9
 energy: -14.912718819477 xtb: 6.6.1 (8d0f1dd)
C            0.05195607719500       -0.77093425349819        0.13422175778797
C           -0.01204132631016        0.83873954075802       -0.23171041804984
H            0.12949576354934        0.98472717131856       -1.29884635218940
H            0.78428195476704        1.34849895336306        0.29484876585912
H           -0.97665748441840        1.28907097703529        0.01312259783272
Cl          -0.06024478241714       -1.71153382863106       -1.09703928227777
H           -1.50647505782366       -0.26699430028760        0.33334276601506
H            1.39057507303989       -0.66437055524815       -0.12277026749387
I            0.19910978261810       -1.04720370480992        1.97483043251601
9
 energy: -15.028871034633 xtb: 6.6.1 (8d0f1dd)
C            0.43993942281180       -0.62860379679544        0.08398156377087
C            0.12853588634980        0.83726297166394       -0.26614329154907
H            0.23867866894696        1.00819327885047       -1.33848502667547
H            0.82846221368625        1.50583619452483        0.26096355363274
H           -0.89889000456232        1.11927719100075        0.02261544071240
Cl          -0.30520747122449       -1.59949137052132       -1.02672668245254
H           -2.05451835465236       -0.53498185657644        0.49275029238101
H            1.54044470660037       -0.68388065624477       -0.09516086333170
I            0.08255493224402       -1.02361195590189        1.86620501351177
9
 energy: -15.036693038494 xtb: 6.6.1 (8d0f1dd)
C            0.45596533768696       -0.59251313671896        0.06876486723887
C            0.16305665429750        0.87249188805519       -0.30397120465481
H            0.34755827020302        1.05768155191709       -1.36166848823363
H            0.78168131450174        1.54888399001918        0.28725694809907
H           -0.88747692939812        1.07973312183009       -0.08930739659453
Cl          -0.26419250048654       -1.59481806932767       -1.12939189556400
H           -2.08616578648282       -0.61009643079695        0.80216062046526
H            1.53799971033845       -0.74827055430893       -0.07093003370861
I           -0.04842607046020       -1.01309236066897        1.79708658295242
9
 energy: -15.041427070495 xtb: 6.6.1 (8d0f1dd)
C            0.45707816834383       -0.56812850027211        0.08503048811558
C            0.16091591359868        0.87921728627288       -0.30341250784381
H            0.36572275895773        1.05708966227337       -1.35679406658397
H            0.77573213864861        1.55250860506500        0.29479406639490
H           -0.89032364478769        1.09063035230323       -0.10374678832615
Cl          -0.26104520382662       -1.65130827587842       -1.18541342196858
H           -2.08397748284118       -0.59807392176428        0.84098961910687
H            1.53347863365416       -0.73840076942744       -0.07407006324655
I           -0.05758128154753       -1.02353443857213        1.80262267435174
9
 energy: -15.040978702423 xtb: 6.6.1 (8d0f1dd)
C            0.48901464772493       -0.54930931095482        0.11139652924988
C            0.16334635916866        0.87968245460681       -0.30083305206642
H            0.38008309575969        1.05032639642215       -1.35287181946651
H            0.75918380578609        1.57031834915750        0.29748477693178
H           -0.89368758574552        1.08158532202110       -0.11958037774033
Cl          -0.30421626452165       -1.66773309781153       -1.22916173382524
H           -2.08571242011242       -0.59855485906491        0.85164075013933
H            1.55095099714907       -0.74026274207766       -0.07070231416563
I           -0.05896263500885       -1.02605251229855        1.81262724094317
9
 energy: -15.036533575959 xtb: 6.6.1 (8d0f1dd)
C            0.49930738410604       -0.52115819178985        0.13185684984988
C            0.16683399713046        0.88916324021556       -0.29700439866482
H            0.39314071046204        1.04904101519518       -1.34787309999346
H            0.75158375588156        1.58960045454814        0.30130682868303
H           -0.89333775130081        1.07956123791096       -0.12509664109340
Cl          -0.31939435967352       -1.71381948504389       -1.27544912520053
H           -2.08011635931044       -0.59674007822652        0.86987386697783
H            1.54817897794707       -0.74712582344244       -0.07427509151606
I           -0.06619635504239       -1.02852236936704        1.81666081095756
9
 energy: -15.030148419084 xtb: 6.6.1 (8d0f1dd)
C            0.52305140732983       -0.50009878942088        0.15987287377397
C            0.17197072311335        0.89241040029483       -0.29367836059849
H            0.40830711076364        1.04130758038406       -1.34388697199631
H            0.73703620391398        1.61489706309314        0.29936814081594
H           -0.89328088686267        1.07143236738564       -0.13711270993041
Cl          -0.35598877377430       -1.73311742613441       -1.32727564544445
H           -2.06819613944921       -0.60610508737846        0.88757042973743
H            1.55550588772103       -0.75489661345258       -0.07005923126212
I           -0.07840553255565       -1.02582949477128        1.82520147490446
9
 energy: -15.023140488980 xtb: 6.6.1 (8d0f1dd)
C            0.53852422900562       -0.47371730311218        0.18198892370621
C            0.18244872266596        0.90388421370897       -0.28960418824466
H            0.43274868126171        1.03752858080976       -1.33820558062960
H            0.72339797488702        1.64903874057989        0.29907449897534
H           -0.88861549393915        1.06659197341988       -0.15155658901486
Cl          -0.39618680729260       -1.76181916039838       -1.37610049897834
H           -2.03751903494564       -0.63649542090181        0.91703246274110
H            1.55290471725083       -0.76958087340474       -0.06664999772460
I           -0.10770298869375       -1.01543075070131        1.82402096916943
9
 energy: -15.017389440174 xtb: 6.6.1 (8d0f1dd)
C            0.50765789030092       -0.44330210143387        0.19395990478131
C            0.23426179554236        0.95016190559873       -0.28927161916620
H            0.54701535850640        1.04026024253850       -1.32712679459288
H            0.69567562502218        1.76764887057059        0.28596391840437
H           -0.85198025270386        1.09274266489427       -0.23968649026398
Cl          -0.52637234293399       -1.75586443705099       -1.45938443945797
H           -1.75655529228939       -0.89802193074343        1.09401031870418
H            1.49526491371634       -0.83371986773032       -0.02675378375282
I           -0.34496769496095       -0.91990534664343        1.76828898534401
9
 energy: -15.022757143790 xtb: 6.6.1 (8d0f1dd)
C            0.52292636033461       -0.38303988280929        0.22272296569262
C            0.26511785605160        0.99502285474210       -0.32762020023493
H            0.64669420269327        1.09464808621059       -1.34128943770499
H            0.74325302741876        1.74860387718631        0.30062359469329
H           -0.80797784734794        1.18515818318822       -0.35080021986970
Cl          -0.82661849481707       -1.76054930094779       -1.28098502076197
H           -1.79867115511425       -1.25594710755669        0.93214155051957
H            1.53281949714266       -0.74416215575467        0.03722095338156
I           -0.27754344616169       -0.87973455425877        1.80798581428453
9
 energy: -15.029507180515 xtb: 6.6.1 (8d0f1dd)
C            0.52977786500652       -0.35222496542063        0.27430540792841
C            0.30971737204274        1.02084536543855       -0.32481648784258
H            0.73521493916032        1.08597905989605       -1.32558770916830
H            0.72956179224534        1.85099073879246        0.26202845774074
H           -0.76301391830866        1.19979625780519       -0.39717998701314
Cl          -1.16532444080577       -1.69522576509332       -1.08956993705211
H           -1.50994972827172       -1.53194568321883        0.72380507777096
H            1.52981884319388       -0.74605115701483        0.08309254386630
I           -0.39580272406434       -0.83216385118741        1.79392263377042
9
 energy: -15.067190534539 xtb: 6.6.1 (8d0f1dd)
C            0.50941782052345       -0.28154483800211        0.37260885302684
C            0.28756890921434        1.01810717422194       -0.32326471419409
H            0.71748390891238        1.01252964119628       -1.32579827524129
H            0.77873995155321        1.82252034093249        0.23624677230774
H           -0.77508651582184        1.25190224513288       -0.39630449034458
Cl          -1.29880910615667       -1.70217563694944       -0.97197933105957
H           -1.45951867969089       -1.65819729809371        0.28177021917596
H            1.46742161336781       -0.73468523397363        0.11293668284996
I           -0.22721790170346       -0.72845639446747        2.01378428347976
9
 energy: -15.073990394895 xtb: 6.6.1 (8d0f1dd)
C            0.56595952181043       -0.24757829377506        0.44122748184979
C            0.29831004247309        1.02683214309914       -0.28966261611263
H            0.65943756957507        0.95181908779517       -1.31264195010645
H            0.79116126207594        1.89016988544075        0.17338163348882
H           -0.77092878742183        1.24887121208173       -0.30435712746027
Cl          -1.22154486214127       -1.70282031942958       -1.08544452325429
H           -1.68964417700436       -1.80670539758478        0.12613578198141
H            1.43761293880298       -0.79591895711128        0.10607223407953
I           -0.07036350797172       -0.56466936051887        2.14528908553481
9
 energy: -15.076105059722 xtb: 6.6.1 (8d0f1dd)
C            0.60661351390447       -0.20638278674891        0.47787939837712
C            0.31355864258464        1.04717234718406       -0.27931838034443
H            0.63414296207023        0.95603566332022       -1.31635946695755
H            0.82755335350906        1.91848450190840        0.14680813602749
H           -0.75496246570458        1.26913254745746       -0.26162532640347
Cl          -1.21991559538436       -1.77427233903594       -1.08651210061759
H           -1.80645600020538       -1.88548941151223        0.03951040509686
H            1.43471726288844       -0.79315004436532        0.10182567959877
I           -0.03525167346429       -0.53153047821048        2.17779165522366
9
 energy: -15.077208294743 xtb: 6.6.1 (8d0f1dd)
C            0.63034392765949       -0.18721297718211        0.49096287494208
C            0.32325270167044        1.05671071765687       -0.27381774933015
H            0.62230390092577        0.94579527118748       -1.31431672766558
H            0.84662714328331        1.93486274558616        0.12606918160670
H           -0.74371081997674        1.28291996946980       -0.23195087019783
Cl          -1.26927402413602       -1.81350832258833       -1.12051504541823
H           -1.84758257456221       -1.93237710714505        0.01535418584232
H            1.46802059547822       -0.76716538690760        0.12593918646180
I           -0.02998085014404       -0.52002491007998        2.18227496375977
9
 energy: -15.077909595440 xtb: 6.6.1 (8d0f1dd)
C            0.65576909406732       -0.16576960271859        0.50727362329615
C            0.33329610200038        1.06652418005799       -0.26931739890456
H            0.60727874379963        0.93885060413976       -1.31559323031788
H            0.87199378641458        1.94880735514889        0.10082464917390
H           -0.73140223089956        1.29503295799341       -0.20704851874120
Cl          -1.32602961035694       -1.84785763717256       -1.14436153604417
H           -1.87594956405469       -1.97584389660606       -0.00159350917040
H            1.50704260676600       -0.73223806827122        0.15243439183738
I           -0.04199892753848       -0.52750589257437        2.17738152887163
9
 energy: -15.078382367185 xtb: 6.6.1 (8d0f1dd)
C            0.67759071739504       -0.14955254982046        0.51802488155563
C            0.34150996119077        1.07290647135683       -0.26682135803189
H            0.59619851130440        0.92975638939935       -1.31582911837960
H            0.89050965516567        1.95794225657539        0.08090909408235
H           -0.72060199289992        1.30620656316516       -0.18599930670967
Cl          -1.39160005529687       -1.87990582048682       -1.17547398249265
H           -1.88674527881043       -2.00470854326964       -0.00320475870154
H            1.55264906086151       -0.69311106156340        0.18372174287099
I           -0.05951057871196       -0.53953370535916        2.16467280580724
9
 energy: -15.078685730946 xtb: 6.6.1 (8d0f1dd)
C            0.70002014512229       -0.13253988294042        0.53197783210727
C            0.34866038282584        1.07804799828689       -0.26454808855763
H            0.58824295215251        0.92147668405788       -1.31590320476415
H            0.90578649919048        1.96643961667937        0.06053693347323
H           -0.71180050868893        1.31176799649532       -0.17236061756198
Cl          -1.46075225187581       -1.90762403043604       -1.20113622220802
H           -1.88918184843122       -2.02550806947578       -0.00559891656561
H            1.59519946831002       -0.65328019201285        0.21565464186474
I           -0.07617483840697       -0.55878012065714        2.15137764221299
9
 energy: -15.078884897679 xtb: 6.6.1 (8d0f1dd)
C            0.72158671086844       -0.11865303742784        0.54291138628721
C            0.35564080716061        1.08067613243032       -0.26330355549211
H            0.58348785944880        0.91168057287080       -1.31553216936215
H            0.91534391285233        1.97386783090801        0.04338425253285
H           -0.70396167171148        1.31250425965703       -0.16052303631428
Cl          -1.53632687061884       -1.93229790337580       -1.22886087544987
H           -1.88575452218899       -2.03996991700311       -0.00428631119329
H            1.64235478387394       -0.61006007592016        0.25172732376779
I           -0.09237100948660       -0.57774786214200        2.13448298522470
9
 energy: -15.079028578189 xtb: 6.6.1 (8d0f1dd)
C            0.74344951367447       -0.10328106341186        0.55658765369049
C            0.36176594683183        1.08264182461189       -0.26205978436560
H            0.58143367589881        0.90069526593536       -1.31446707443168
H            0.92264735299904        1.98111337544935        0.02585297657544
H           -0.69764094975844        1.31107131345335       -0.15419991893812
Cl          -1.61306117546865       -1.95528393046307       -1.25130874416431
H           -1.87975384806230       -2.04920346341476       -0.00657523173897
H            1.68601233519007       -0.56533933453300        0.28832389591963
I           -0.10485285110660       -0.60241398763002        2.11784622745398
9
 energy: -14.938940826405 xtb: 6.6.1 (8d0f1dd)
C            0.03651125839736       -0.67001751281924        0.03407932996408
C            0.01852125649877        0.87691296141709       -0.24153239960174
H            0.18965429871101        1.06844392631902       -1.30497164972127
H            0.77878975676825        1.41773680399191        0.32399410468623
H           -0.94921799780556        1.30588520310079        0.02145026505200
Cl          -0.34795005928531       -1.27390327010719       -1.36462960729063
H           -0.86661524596296       -1.10464128757314        0.44428314100484
H            1.08493914458685       -0.99542392369124        0.05000898378527
I            0.05536758809161       -0.62499290053793        2.03731783202121
9
 energy: -14.967414878750 xtb: 6.6.1 (8d0f1dd)
C            0.01943358821182       -0.65954697444754        0.08646352968441
C            0.00561925617546        0.87772085851178       -0.23252032645539
H            0.11098131454189        1.07550215599008       -1.30302976927461
H            0.81135694259409        1.40725122567840        0.27616712279883
H           -0.93737993778083        1.32087566021059        0.09168770940533
Cl          -0.23247034494997       -1.28344212332105       -1.42786090585403
H           -0.94251224989193       -1.11246971548906        0.33726324027665
H            1.03772006658334       -1.06597179442709        0.09938154059959
I            0.12725136451616       -0.55991929260604        2.07244785871921
9
 energy: -14.995252560094 xtb: 6.6.1 (8d0f1dd)
C            0.01371409289189       -0.64482228315150        0.12781358470095
C           -0.00128660120721        0.88009108180561       -0.22658188043738
H            0.07036661110357        1.06360550685134       -1.30034754996062
H            0.82851549155257        1.40320453993411        0.24895342894592
H           -0.92638199666895        1.33691188355911        0.12580993961855
Cl          -0.18074791517428       -1.30435344909053       -1.48514522216693
H           -0.96086182187192       -1.10652106776301        0.29772276716713
H            1.01448587231456       -1.08409723869657        0.10560502089093
I            0.14219626705977       -0.54401897334848        2.10616991114142
9
 energy: -15.019190419326 xtb: 6.6.1 (8d0f1dd)
C            0.01745037801932       -0.62525862148675        0.17007336853203
C           -0.00299965298879        0.88350892447043       -0.21990963074089
H            0.05520298980092        1.04939431135315       -1.29559342082351
H            0.83498159991990        1.40918869173245        0.23766319296182
H           -0.92201117715633        1.34686411006350        0.13855165009152
Cl          -0.16977878650695       -1.33192142175935       -1.53166906012326
H           -0.95813115856684       -1.10280322458372        0.26603912213519
H            1.00101786450584       -1.09014443239337        0.09222157071288
I            0.14426794297293       -0.53882833729627        2.14262320715420
9
 energy: -15.040246640798 xtb: 6.6.1 (8d0f1dd)
C            0.02205145083994       -0.60371319480151        0.21308584706522
C           -0.00341385145360        0.88765853227407       -0.21187852262391
H            0.04640574510467        1.03126923594722       -1.28986095350325
H            0.83949643507821        1.41900214831477        0.22981886957523
H           -0.91914049535376        1.35767546537020        0.14581767816323
Cl          -0.16801874503876       -1.36771044388985       -1.57337770451301
H           -0.94978923879632       -1.09522514381358        0.23317795029488
H            0.98818420471571       -1.08568838632839        0.07235355204824
I            0.14422449490392       -0.54326821297286        2.18086328339336
9
 energy: -15.058539689667 xtb: 6.6.1 (8d0f1dd)
C            0.02759384274600       -0.58101286942867        0.25395658172101
C           -0.00315315635564        0.89360640662868       -0.20175968469066
H            0.04044325031143        1.01061450975184       -1.28225674285998
H            0.84320773478607        1.43206863460424        0.22431169796307
H           -0.91683269570552        1.37055483696267        0.15152450484194
Cl          -0.17181800064096       -1.41621678446883       -1.61049215437541
H           -0.93790191953865       -1.08128920407614        0.19779100961779
H            0.97628558531924       -1.07184106470642        0.04895396012198
I            0.14217535907805       -0.55648446516728        2.21797082756022
9
 energy: -15.074029501949 xtb: 6.6.1 (8d0f1dd)
C            0.03589240849755       -0.55796889541953        0.29079468562586
C           -0.00188875487471        0.90234157877417       -0.18928729923805
H            0.03732817558702        0.98882377695522       -1.27222464787548
H            0.84621463079201        1.44947306724948        0.22154603955796
H           -0.91521770828722        1.38508918587341        0.15639123127524
Cl          -0.18520364031410       -1.47823023200885       -1.64338220242944
H           -0.92098207754126       -1.06269898401565        0.15957371440418
H            0.96792645276014       -1.04994075556505        0.02491855744903
I            0.13593051338058       -0.57688874174312        2.25166992113068
9
 energy: -15.086804477035 xtb: 6.6.1 (8d0f1dd)
C            0.05517134633135       -0.53448439094104        0.32239379929288
C            0.00190789820797        0.91489796928527       -0.17412359450370
H            0.04120604693249        0.96651767396985       -1.25891964783306
H            0.84648958999175        1.47606916109129        0.22415302609328
H           -0.91559683552546        1.39870305239224        0.15841088888286
Cl          -0.22994689585939       -1.55479034055302       -1.66813425568776
H           -0.88839439176878       -1.04415608134577        0.11178886687474
H            0.97303690266628       -1.01838069191553        0.00400732085182
I            0.11612633902381       -0.60437635188320        2.28042359592891
9
 energy: -15.097426343052 xtb: 6.6.1 (8d0f1dd)
C            0.10229997269880       -0.51369080798037        0.35096911107128
C            0.01213264918336        0.92660355273757       -0.15841618685558
H            0.06541100023588        0.94313020845938       -1.24382257577401
H            0.83627268107682        1.52088674719892        0.23627030067775
H           -0.92171413936252        1.39677915875073        0.14782627920518
Cl          -0.36694706452780       -1.62098596353869       -1.67723842628309
H           -0.80751993611267       -1.04858035245872        0.03686002886452
H            1.01891398478474       -0.97430327578842        0.00231820847480
I            0.06115085202340       -0.62983926728033        2.30523326051913
9
 energy: -15.105456856780 xtb: 6.6.1 (8d0f1dd)
C            0.13155765579266       -0.49540242217228        0.37104802539159
C            0.01990121963492        0.93473404945183       -0.15010220104070
H            0.08530298099532        0.94082916711442       -1.23519508815461
H            0.82828269254073        1.54931302417832        0.24665287432676
H           -0.92567935684761        1.38922722814506        0.14201867217401
Cl          -0.48232783540120       -1.66857552458455       -1.70067617328707
H           -0.73553243153202       -1.06699920108213       -0.01418760044496
H            1.05689304182673       -0.94661579711574        0.02145300165056
I            0.02160203299049       -0.63651052383487        2.31898848928439
9
 energy: -15.111777720438 xtb: 6.6.1 (8d0f1dd)
C            0.16046660290388       -0.47911375242813        0.38456519606077
C            0.02830778979025        0.94477746029182       -0.14086530345418
H            0.10786260468540        0.94255679692922       -1.22510851313181
H            0.81831321460259        1.57918714273539        0.26269696757634
H           -0.92974338392151        1.38239608526503        0.13590879480167
Cl          -0.60621607714613       -1.73046347872353       -1.71480514441978
H           -0.66171957729563       -1.07716011422974       -0.07272100454942
H            1.10041604157357       -0.91367603909398        0.04632619439083
I           -0.01768721519241       -0.64850410064600        2.32400281262555
9
 energy: -15.116768164743 xtb: 6.6.1 (8d0f1dd)
C            0.19480495813152       -0.46431950879583        0.38979460712847
C            0.03888860698860        0.95605164003677       -0.13392428521693
H            0.14124281036767        0.95767113469402       -1.21659864774748
H            0.80283568746561        1.61216633865476        0.28623793017976
H           -0.93580679780956        1.36806062462023        0.12313419758238
Cl          -0.76254541678785       -1.79952383242316       -1.70872141677056
H           -0.57211799541398       -1.09022895094038       -0.13821410433223
H            1.16084395766516       -0.86990242932762        0.08279197016792
I           -0.06814581060717       -0.66997501641871        2.31549974890864
9
 energy: -15.120626923168 xtb: 6.6.1 (8d0f1dd)
C            0.23233374024113       -0.45040871274620        0.38658652484932
C            0.05110503876054        0.96919993397379       -0.12859893762395
H            0.18549863535204        0.98569294472048       -1.20798581773773
H            0.78150476834189        1.64526272366083        0.31986838714977
H           -0.94291497258360        1.34869828395810        0.10284005143496
Cl          -0.93740782058539       -1.87835364616877       -1.67717140722283
H           -0.47338410623483       -1.09985430658542       -0.20991936103542
H            1.22791281977859       -0.81871210834321        0.12296918130817
I           -0.12464810307038       -0.70152511236950        2.29141137877768
9
 energy: -15.123188700169 xtb: 6.6.1 (8d0f1dd)
C            0.26724487115028       -0.43648137599804        0.37667817037321
C            0.06385133719575        0.98491294298676       -0.12367692778998
H            0.23444741958842        1.02371422971439       -1.19754026410765
H            0.75885923033256        1.67392388881766        0.36012993497461
H           -0.94813844410676        1.33148126020876        0.07896652024560
Cl          -1.10048966971683       -1.96811363802048       -1.63118129221190
H           -0.38511639141344       -1.10093965437131       -0.27557371776104
H            1.28614073802313       -0.77005232083631        0.15660316597739
I           -0.17679909105308       -0.73844533240136        2.25559441019973
9
 energy: -15.124054043373 xtb: 6.6.1 (8d0f1dd)
C            0.29082385828117       -0.42280180955611        0.36827360423760
C            0.07468765748009        1.00099290231866       -0.11814373345061
H            0.27448296668852        1.05905699034485       -1.18598435344186
H            0.74382483884153        1.69315758039712        0.39568305131116
H           -0.94879003108384        1.32528138574328        0.06098586834476
Cl          -1.21409940406528       -2.06026079931021       -1.60711662602911
H           -0.33414229410583       -1.09292776298561       -0.31437708598935
H            1.32071659099501       -0.73713579725767        0.17452404491353
I           -0.20750418303135       -0.76536268959425        2.22615523000384
9
 energy: -15.123576485715 xtb: 6.6.1 (8d0f1dd)
C            0.30388903468673       -0.41256492202239        0.36694038899738
C            0.08224135100285        1.01296825588832       -0.11252595658806
H            0.30018633374483        1.08147659987727       -1.17609989053883
H            0.73611867420117        1.70562699270126        0.41894763125829
H           -0.94729300209261        1.32582162354820        0.05077989712465
Cl          -1.28880744178307       -2.13760266248918       -1.62300630280694
H           -0.30933464735885       -1.08491949727167       -0.32499634229050
H            1.33853163183937       -0.71722675641478        0.18450883818134
I           -0.21553193424040       -0.77357963371693        2.21545173656264
9
 energy: -15.122333533244 xtb: 6.6.1 (8d0f1dd)
C            0.31240819185754       -0.40555590790910        0.36822628388291
C            0.08818180333646        1.02219624800762       -0.10722691763817
H            0.32015581747118        1.09825442877153       -1.16735912074344
H            0.73048162963203        1.71497790074506        0.43735324764546
H           -0.94546295993369        1.32774583896661        0.04345887280461
Cl          -1.35166559264773       -2.20745571275228       -1.65882397972178
H           -0.29181961559837       -1.07763940409448       -0.32256283541010
H            1.35090754006862       -0.70129221447497        0.19266040400566
I           -0.21318681418603       -0.77123117715991        2.21427404507482
9
 energy: -15.120813547346 xtb: 6.6.1 (8d0f1dd)
C            0.31928118811376       -0.39986795622365        0.37146847341187
C            0.09342926211710        1.02980477282824       -0.10175930517120
H            0.33555873001895        1.11004980264273       -1.15936206616696
H            0.72619313699157        1.72424105061217        0.45124008884891
H           -0.94345595810698        1.32939723576159        0.03860309347505
Cl          -1.40895086370277       -2.27148903463483       -1.70585598425399
H           -0.27738685632452       -1.07115560766090       -0.31421356965907
H            1.36113299064134       -0.68764767262660        0.20143663412214
I           -0.20580162974842       -0.76333259059865        2.21844263529321
9
 energy: -15.119349551190 xtb: 6.6.1 (8d0f1dd)
C            0.32573284196555       -0.39464989662664        0.37561833680141
C            0.09818790297579        1.03657645417020       -0.09645053844972
H            0.34893538302494        1.11996730318305       -1.15186601198019
H            0.72250382006513        1.73287090964029        0.46327818848684
H           -0.94144542693121        1.33088840414969        0.03491111729683
Cl          -1.46438597406975       -2.33279881809390       -1.75712466852366
H           -0.26360883086825       -1.06538692945966       -0.30372028102999
H            1.37080127361001       -0.67448004226139        0.21065406467487
I           -0.19672098977220       -0.75298738460156        2.22469979262357
9
 energy: -15.118062366871 xtb: 6.6.1 (8d0f1dd)
C            0.33237029433895       -0.38920470180916        0.38065058585085
C            0.10268192079103        1.04292042822542       -0.09123507887041
H            0.36115699959927        1.12877363270989       -1.14464526689972
H            0.71911484071786        1.74138536316703        0.47411157568856
H           -0.93941865954500        1.33218704540153        0.03194604277458
Cl          -1.51861676972714       -2.39228375729776       -1.80987459160314
H           -0.25044658924085       -1.06036684876458       -0.29302710795536
H            1.38025992891484       -0.66174420833105        0.22005718872777