
                                 *****************
                                 * O   R   C   A *
                                 *****************

                                            #,                                       
                                            ###                                      
                                            ####                                     
                                            #####                                    
                                            ######                                   
                                           ########,                                 
                                     ,,################,,,,,                         
                               ,,#################################,,                 
                          ,,##########################################,,             
                       ,#########################################, ''#####,          
                    ,#############################################,,   '####,        
                  ,##################################################,,,,####,       
                ,###########''''           ''''###############################       
              ,#####''   ,,,,##########,,,,          '''####'''          '####       
            ,##' ,,,,###########################,,,                        '##       
           ' ,,###''''                  '''############,,,                           
         ,,##''                                '''############,,,,        ,,,,,,###''
      ,#''                                            '''#######################'''  
     '                                                          ''''####''''         
             ,#######,   #######,   ,#######,      ##                                
            ,#'     '#,  ##    ##  ,#'     '#,    #''#        ######   ,####,        
            ##       ##  ##   ,#'  ##            #'  '#       #        #'  '#        
            ##       ##  #######   ##           ,######,      #####,   #    #        
            '#,     ,#'  ##    ##  '#,     ,#' ,#      #,         ##   #,  ,#        
             '#######'   ##     ##  '#######'  #'      '#     #####' # '####'        



                  #######################################################
                  #                        -***-                        #
                  #          Department of theory and spectroscopy      #
                  #    Directorship and core code : Frank Neese         #
                  #        Max Planck Institute fuer Kohlenforschung    #
                  #                Kaiser Wilhelm Platz 1               #
                  #                 D-45470 Muelheim/Ruhr               #
                  #                      Germany                        #
                  #                                                     #
                  #                  All rights reserved                #
                  #                        -***-                        #
                  #######################################################


                         Program Version 5.0.2 -  RELEASE  -


 With contributions from (in alphabetic order):
   Daniel Aravena         : Magnetic Suceptibility
   Michael Atanasov       : Ab Initio Ligand Field Theory (pilot matlab implementation)
   Alexander A. Auer      : GIAO ZORA, VPT2 properties, NMR spectrum
   Ute Becker             : Parallelization
   Giovanni Bistoni       : ED, misc. LED, open-shell LED, HFLD
   Martin Brehm           : Molecular dynamics
   Dmytro Bykov           : SCF Hessian
   Vijay G. Chilkuri      : MRCI spin determinant printing, contributions to CSF-ICE
   Dipayan Datta          : RHF DLPNO-CCSD density
   Achintya Kumar Dutta   : EOM-CC, STEOM-CC
   Dmitry Ganyushin       : Spin-Orbit,Spin-Spin,Magnetic field MRCI
   Miquel Garcia          : C-PCM and meta-GGA Hessian, CC/C-PCM, Gaussian charge scheme
   Yang Guo               : DLPNO-NEVPT2, F12-NEVPT2, CIM, IAO-localization
   Andreas Hansen         : Spin unrestricted coupled pair/coupled cluster methods
   Benjamin Helmich-Paris : MC-RPA, TRAH-SCF, COSX integrals
   Lee Huntington         : MR-EOM, pCC
   Robert Izsak           : Overlap fitted RIJCOSX, COSX-SCS-MP3, EOM
   Marcus Kettner         : VPT2
   Christian Kollmar      : KDIIS, OOCD, Brueckner-CCSD(T), CCSD density, CASPT2, CASPT2-K
   Simone Kossmann        : Meta GGA functionals, TD-DFT gradient, OOMP2, MP2 Hessian
   Martin Krupicka        : Initial AUTO-CI
   Lucas Lang             : DCDCAS
   Marvin Lechner         : AUTO-CI (C++ implementation), FIC-MRCC
   Dagmar Lenk            : GEPOL surface, SMD
   Dimitrios Liakos       : Extrapolation schemes; Compound Job, initial MDCI parallelization
   Dimitrios Manganas     : Further ROCIS development; embedding schemes
   Dimitrios Pantazis     : SARC Basis sets
   Anastasios Papadopoulos: AUTO-CI, single reference methods and gradients
   Taras Petrenko         : DFT Hessian,TD-DFT gradient, ASA, ECA, R-Raman, ABS, FL, XAS/XES, NRVS
   Peter Pinski           : DLPNO-MP2, DLPNO-MP2 Gradient
   Christoph Reimann      : Effective Core Potentials
   Marius Retegan         : Local ZFS, SOC
   Christoph Riplinger    : Optimizer, TS searches, QM/MM, DLPNO-CCSD(T), (RO)-DLPNO pert. Triples
   Tobias Risthaus        : Range-separated hybrids, TD-DFT gradient, RPA, STAB
   Michael Roemelt        : Original ROCIS implementation
   Masaaki Saitow         : Open-shell DLPNO-CCSD energy and density
   Barbara Sandhoefer     : DKH picture change effects
   Avijit Sen             : IP-ROCIS
   Kantharuban Sivalingam : CASSCF convergence, NEVPT2, FIC-MRCI
   Bernardo de Souza      : ESD, SOC TD-DFT
   Georgi Stoychev        : AutoAux, RI-MP2 NMR, DLPNO-MP2 response
   Willem Van den Heuvel  : Paramagnetic NMR
   Boris Wezisla          : Elementary symmetry handling
   Frank Wennmohs         : Technical directorship


 We gratefully acknowledge several colleagues who have allowed us to
 interface, adapt or use parts of their codes:
   Stefan Grimme, W. Hujo, H. Kruse, P. Pracht,  : VdW corrections, initial TS optimization,
                  C. Bannwarth, S. Ehlert          DFT functionals, gCP, sTDA/sTD-DF
   Ed Valeev, F. Pavosevic, A. Kumar             : LibInt (2-el integral package), F12 methods
   Garnet Chan, S. Sharma, J. Yang, R. Olivares  : DMRG
   Ulf Ekstrom                                   : XCFun DFT Library
   Mihaly Kallay                                 : mrcc  (arbitrary order and MRCC methods)
   Jiri Pittner, Ondrej Demel                    : Mk-CCSD
   Frank Weinhold                                : gennbo (NPA and NBO analysis)
   Christopher J. Cramer and Donald G. Truhlar   : smd solvation model
   Lars Goerigk                                  : TD-DFT with DH, B97 family of functionals
   V. Asgeirsson, H. Jonsson                     : NEB implementation
   FAccTs GmbH                                   : IRC, NEB, NEB-TS, DLPNO-Multilevel, CI-OPT
                                                   MM, QMMM, 2- and 3-layer-ONIOM, Crystal-QMMM,
                                                   LR-CPCM, SF, NACMEs, symmetry and pop. for TD-DFT,
                                                   nearIR, NL-DFT gradient (VV10), updates on ESD,
                                                   ML-optimized integration grids
   S Lehtola, MJT Oliveira, MAL Marques          : LibXC Library
   Liviu Ungur et al                             : ANISO software


 Your calculation uses the libint2 library for the computation of 2-el integrals
 For citations please refer to: http://libint.valeyev.net

 Your ORCA version has been built with support for libXC version: 5.1.0
 For citations please refer to: https://tddft.org/programs/libxc/

 This ORCA versions uses:
   CBLAS   interface :  Fast vector & matrix operations
   LAPACKE interface :  Fast linear algebra routines
   SCALAPACK package :  Parallel linear algebra routines
   Shared memory     :  Shared parallel matrices
   BLAS/LAPACK       :  OpenBLAS 0.3.15  USE64BITINT DYNAMIC_ARCH NO_AFFINITY Zen SINGLE_THREADED
        Core in use  :  Zen
   Copyright (c) 2011-2014, The OpenBLAS Project


Your calculation utilizes the atom-pairwise dispersion correction
based on tight binding partial charges (D4)
Cite in your paper:
E.Caldeweyher, C.Bannwarth, S.Grimme, J.Chem.Phys., (2017), 147, 034112.
E.Caldeweyher, S.Ehlert, A.Hansen, H.Neugebauer, S.Grimme, J.Chem.Phys., (2018), in progress.
   

================================================================================

----- Orbital basis set information -----
Your calculation utilizes the basis: pcSseg-1
   F. Jensen, J. Chem. Theory Comput. 11, 132 (2015).

----- AuxJ basis set information -----
Your calculation utilizes the auxiliary basis: def2/J
   F. Weigend, Phys. Chem. Chem. Phys. 8, 1057 (2006).

================================================================================
                                        WARNINGS
                       Please study these warnings very carefully!
================================================================================



WARNING: Found flag for RIJCOSX approximation but no HF exchange needed!
  ===> : RIJCOSX  will be disabled and Split-RI-J is turned on

INFO   : the flag for use of the SHARK integral package has been found!

================================================================================
                                       INPUT FILE
================================================================================
NAME = inpS
|  1> ! revTPSS
|  2> ! D4
|  3> ! pcSseg-1
|  4> ! def2/J RIJCOSX
|  5> ! DEFGRID2
|  6> ! scfconv7
|  7> ! smallprint printgap noloewdin
|  8> ! NOSOSCF
|  9> %MaxCore 4000
| 10> %output
| 11>        print[P_BondOrder_M] 1
| 12>        print[P_Mayer] 1
| 13>        print[P_basis] 2
| 14> end
| 15> %pal
| 16>     nprocs 4
| 17> end
| 18> ! CPCM(chloroform)
| 19> *xyz 0 1
| 20> C   -5.0218538000   0.2468798900  -0.5055749100
| 21> C   -6.4740972300  -0.1328056400  -0.6752551400
| 22> C   -7.3750759500   0.8220438000   0.1182028200
| 23> H   -6.6446574700  -1.1657098300  -0.3511673700
| 24> H   -6.7575160100  -0.0589792500  -1.7357009600
| 25> C   -4.7281186600   1.6599273500  -0.8319827900
| 26> C   -5.6502033700   2.6599144100  -0.1698669200
| 27> C   -7.1267257100   2.2666596000  -0.3187790900
| 28> H   -5.4757111300   3.6620970200  -0.5756953800
| 29> H   -5.4029131100   2.7004184300   0.9019019700
| 30> H   -7.4296250400   2.3662028100  -1.3700597300
| 31> H   -7.7572465900   2.9414610200   0.2716916500
| 32> O   -7.1736783700   0.6528040400   1.5312992800
| 33> H   -8.4266581700   0.5625402500  -0.0556722100
| 34> C   -4.1156911900  -0.6408032300  -0.0312194500
| 35> C   -3.7560510000   2.0288648500  -1.6734207200
| 36> H   -3.1150729100   1.2942530500  -2.1535683000
| 37> H   -3.5872994100   3.0772730000  -1.9079518500
| 38> C   -2.7292346300  -0.3661210300   0.2692747800
| 39> H   -4.4848695800  -1.6461021600   0.1682317500
| 40> C   -1.7927142700  -1.2698563300   0.6279747300
| 41> H   -2.4281399100   0.6770419800   0.2030118300
| 42> C   -2.0037593500  -2.7584073900   0.7380565400
| 43> C   -1.0051661300  -3.5354728200  -0.1422028000
| 44> H   -3.0252830600  -3.0543320300   0.4846355400
| 45> H   -1.8332819900  -3.0484457100   1.7869879500
| 46> C    0.4493501000  -3.1067673900   0.0935175100
| 47> H   -1.2698169800  -3.3884754300  -1.1970027500
| 48> H   -1.1088257200  -4.6088860500   0.0584524100
| 49> C    0.6309439500  -1.5903009000  -0.0583566100
| 50> H    1.0976724800  -3.6568066000  -0.5965506600
| 51> H    0.7501035800  -3.3925347100   1.1128183100
| 52> C   -0.3716158300  -0.8979681900   0.9205138700
| 53> H   -0.1328767700  -1.3293475100   1.9098713500
| 54> C    0.0763273600   0.5607532400   0.9443946800
| 55> H   -6.2215700300   0.5684301500   1.6829144500
| 56> C    1.6183872100   0.4695616600   0.8358892000
| 57> H   -0.2579688400   1.0783129200   1.8496379500
| 58> H   -0.3346910500   1.1086698300   0.0891854700
| 59> C    1.9673143800  -1.0059523900   0.4766783800
| 60> H    2.1122675700   0.7651561800   1.7668736900
| 61> H    1.9970957200   1.1435593600   0.0585935800
| 62> H    2.1947481000  -1.5494250600   1.4086523400
| 63> C    3.2254356800  -1.0874247300  -0.4113814400
| 64> C    0.3808655700  -1.1455737100  -1.5060877600
| 65> H    0.6154324400  -0.0857389400  -1.6476596500
| 66> H   -0.6647299000  -1.2898974500  -1.7952113800
| 67> H    1.0049002200  -1.7193536000  -2.2000816000
| 68> H    3.0322125800  -0.5261024600  -1.3373703800
| 69> C    3.6226364800  -2.5251820300  -0.7785208000
| 70> C    4.3785192100  -0.4297416400   0.3008565500
| 71> C    5.0780520400   0.6012088100  -0.1716871500
| 72> H    4.6344772200  -0.8760993400   1.2641630800
| 73> H    4.7852002600   1.0088475000  -1.1438837400
| 74> C    6.2457395300   1.3120986300   0.4682729600
| 75> C    7.3693499700   1.4726793900  -0.5702507200
| 76> C    6.7280336000   0.6972170800   1.7995660300
| 77> H    5.8901259400   2.3299829700   0.7054574700
| 78> H    5.8278732400   0.4874303100   2.3954294000
| 79> C    7.5707677400   1.6929898700   2.6027667500
| 80> C    7.4962687400  -0.6158270900   1.6140237200
| 81> H    7.7259879400   0.4973868700  -0.9178826200
| 82> H    8.2213532600   2.0248874200  -0.1610467900
| 83> H    7.0025379100   2.0231558500  -1.4431766200
| 84> H    7.0218582800   2.6243524500   2.7826021000
| 85> H    8.5010109900   1.9427600400   2.0795332400
| 86> H    7.8451774900   1.2683947300   3.5749984500
| 87> H    6.9598476700  -1.3175490700   0.9674605400
| 88> H    7.6609536300  -1.1016968300   2.5821716100
| 89> H    8.4798811600  -0.4308605500   1.1670286000
| 90> H    2.8859437900  -2.9970477100  -1.4336271900
| 91> H    3.7227566600  -3.1427041900   0.1227494700
| 92> H    4.5864206600  -2.5288810700  -1.2989523700
| 93> *
| 94> %eprnmr
| 95>  Nuclei = all H { shift }
| 96>  origin giao
| 97>  giao_2el giao_2el_same_as_scf
| 98>  giao_1el giao_1el_analytic
| 99> end
|100> 
|101>                          ****END OF INPUT****
================================================================================

                       ****************************
                       * Single Point Calculation *
                       ****************************

---------------------------------
CARTESIAN COORDINATES (ANGSTROEM)
---------------------------------
  C     -5.021854    0.246880   -0.505575
  C     -6.474097   -0.132806   -0.675255
  C     -7.375076    0.822044    0.118203
  H     -6.644657   -1.165710   -0.351167
  H     -6.757516   -0.058979   -1.735701
  C     -4.728119    1.659927   -0.831983
  C     -5.650203    2.659914   -0.169867
  C     -7.126726    2.266660   -0.318779
  H     -5.475711    3.662097   -0.575695
  H     -5.402913    2.700418    0.901902
  H     -7.429625    2.366203   -1.370060
  H     -7.757247    2.941461    0.271692
  O     -7.173678    0.652804    1.531299
  H     -8.426658    0.562540   -0.055672
  C     -4.115691   -0.640803   -0.031219
  C     -3.756051    2.028865   -1.673421
  H     -3.115073    1.294253   -2.153568
  H     -3.587299    3.077273   -1.907952
  C     -2.729235   -0.366121    0.269275
  H     -4.484870   -1.646102    0.168232
  C     -1.792714   -1.269856    0.627975
  H     -2.428140    0.677042    0.203012
  C     -2.003759   -2.758407    0.738057
  C     -1.005166   -3.535473   -0.142203
  H     -3.025283   -3.054332    0.484636
  H     -1.833282   -3.048446    1.786988
  C      0.449350   -3.106767    0.093518
  H     -1.269817   -3.388475   -1.197003
  H     -1.108826   -4.608886    0.058452
  C      0.630944   -1.590301   -0.058357
  H      1.097672   -3.656807   -0.596551
  H      0.750104   -3.392535    1.112818
  C     -0.371616   -0.897968    0.920514
  H     -0.132877   -1.329348    1.909871
  C      0.076327    0.560753    0.944395
  H     -6.221570    0.568430    1.682914
  C      1.618387    0.469562    0.835889
  H     -0.257969    1.078313    1.849638
  H     -0.334691    1.108670    0.089185
  C      1.967314   -1.005952    0.476678
  H      2.112268    0.765156    1.766874
  H      1.997096    1.143559    0.058594
  H      2.194748   -1.549425    1.408652
  C      3.225436   -1.087425   -0.411381
  C      0.380866   -1.145574   -1.506088
  H      0.615432   -0.085739   -1.647660
  H     -0.664730   -1.289897   -1.795211
  H      1.004900   -1.719354   -2.200082
  H      3.032213   -0.526102   -1.337370
  C      3.622636   -2.525182   -0.778521
  C      4.378519   -0.429742    0.300857
  C      5.078052    0.601209   -0.171687
  H      4.634477   -0.876099    1.264163
  H      4.785200    1.008847   -1.143884
  C      6.245740    1.312099    0.468273
  C      7.369350    1.472679   -0.570251
  C      6.728034    0.697217    1.799566
  H      5.890126    2.329983    0.705457
  H      5.827873    0.487430    2.395429
  C      7.570768    1.692990    2.602767
  C      7.496269   -0.615827    1.614024
  H      7.725988    0.497387   -0.917883
  H      8.221353    2.024887   -0.161047
  H      7.002538    2.023156   -1.443177
  H      7.021858    2.624352    2.782602
  H      8.501011    1.942760    2.079533
  H      7.845177    1.268395    3.574998
  H      6.959848   -1.317549    0.967461
  H      7.660954   -1.101697    2.582172
  H      8.479881   -0.430861    1.167029
  H      2.885944   -2.997048   -1.433627
  H      3.722757   -3.142704    0.122749
  H      4.586421   -2.528881   -1.298952

----------------------------
CARTESIAN COORDINATES (A.U.)
----------------------------
  NO LB      ZA    FRAG     MASS         X           Y           Z
   0 C     6.0000    0    12.011   -9.489928    0.466535   -0.955398
   1 C     6.0000    0    12.011  -12.234271   -0.250966   -1.276047
   2 C     6.0000    0    12.011  -13.936874    1.553438    0.223371
   3 H     1.0000    0     1.008  -12.556583   -2.202872   -0.663610
   4 H     1.0000    0     1.008  -12.769855   -0.111455   -3.279999
   5 C     6.0000    0    12.011   -8.934849    3.136808   -1.572220
   6 C     6.0000    0    12.011  -10.677337    5.026510   -0.321002
   7 C     6.0000    0    12.011  -13.467560    4.283366   -0.602405
   8 H     1.0000    0     1.008  -10.347594    6.920360   -1.087907
   9 H     1.0000    0     1.008  -10.210026    5.103051    1.704348
  10 H     1.0000    0     1.008  -14.039957    4.471475   -2.589038
  11 H     1.0000    0     1.008  -14.659072    5.558556    0.513423
  12 O     8.0000    0    15.999  -13.556287    1.233621    2.893736
  13 H     1.0000    0     1.008  -15.924076    1.063047   -0.105205
  14 C     6.0000    0    12.011   -7.777529   -1.210943   -0.058996
  15 C     6.0000    0    12.011   -7.097908    3.833999   -3.162307
  16 H     1.0000    0     1.008   -5.886635    2.445784   -4.069654
  17 H     1.0000    0     1.008   -6.779013    5.815203   -3.605506
  18 C     6.0000    0    12.011   -5.157506   -0.691868    0.508856
  19 H     1.0000    0     1.008   -8.475175   -3.110682    0.317912
  20 C     6.0000    0    12.011   -3.387739   -2.399681    1.186700
  21 H     1.0000    0     1.008   -4.588519    1.279424    0.383637
  22 C     6.0000    0    12.011   -3.786556   -5.212635    1.394725
  23 C     6.0000    0    12.011   -1.899489   -6.681075   -0.268724
  24 H     1.0000    0     1.008   -5.716956   -5.771851    0.915828
  25 H     1.0000    0     1.008   -3.464401   -5.760728    3.376918
  26 C     6.0000    0    12.011    0.849149   -5.870940    0.176722
  27 H     1.0000    0     1.008   -2.399606   -6.403291   -2.262007
  28 H     1.0000    0     1.008   -2.095377   -8.709532    0.110459
  29 C     6.0000    0    12.011    1.192311   -3.005233   -0.110278
  30 H     1.0000    0     1.008    2.074300   -6.910363   -1.127317
  31 H     1.0000    0     1.008    1.417490   -6.410962    2.102922
  32 C     6.0000    0    12.011   -0.702252   -1.696914    1.739519
  33 H     1.0000    0     1.008   -0.251101   -2.512103    3.609134
  34 C     6.0000    0    12.011    0.144238    1.059670    1.784647
  35 H     1.0000    0     1.008  -11.757063    1.074177    3.180247
  36 C     6.0000    0    12.011    3.058309    0.887343    1.579602
  37 H     1.0000    0     1.008   -0.487490    2.037716    3.495309
  38 H     1.0000    0     1.008   -0.632474    2.095082    0.168536
  39 C     6.0000    0    12.011    3.717685   -1.900975    0.900792
  40 H     1.0000    0     1.008    3.991607    1.445936    3.338907
  41 H     1.0000    0     1.008    3.773964    2.161014    0.110726
  42 H     1.0000    0     1.008    4.147473   -2.927989    2.661967
  43 C     6.0000    0    12.011    6.095190   -2.054935   -0.777398
  44 C     6.0000    0    12.011    0.719732   -2.164821   -2.846093
  45 H     1.0000    0     1.008    1.162999   -0.162023   -3.113626
  46 H     1.0000    0     1.008   -1.256157   -2.437553   -3.392458
  47 H     1.0000    0     1.008    1.898986   -3.249107   -4.157552
  48 H     1.0000    0     1.008    5.730051   -0.994190   -2.527264
  49 C     6.0000    0    12.011    6.845791   -4.771902   -1.471191
  50 C     6.0000    0    12.011    8.274202   -0.812094    0.568536
  51 C     6.0000    0    12.011    9.596128    1.136120   -0.324442
  52 H     1.0000    0     1.008    8.757893   -1.655588    2.388922
  53 H     1.0000    0     1.008    9.042718    1.906445   -2.161627
  54 C     6.0000    0    12.011   11.802737    2.479507    0.884908
  55 C     6.0000    0    12.011   13.926053    2.782961   -1.077618
  56 C     6.0000    0    12.011   12.714141    1.317549    3.400687
  57 H     1.0000    0     1.008   11.130725    4.403030    1.333121
  58 H     1.0000    0     1.008   11.013084    0.921110    4.526706
  59 C     6.0000    0    12.011   14.306678    3.199287    4.918516
  60 C     6.0000    0    12.011   14.165895   -1.163745    3.050063
  61 H     1.0000    0     1.008   14.600001    0.939925   -1.734547
  62 H     1.0000    0     1.008   15.536106    3.826483   -0.304334
  63 H     1.0000    0     1.008   13.232879    3.823210   -2.727209
  64 H     1.0000    0     1.008   13.269389    4.959307    5.258356
  65 H     1.0000    0     1.008   16.064583    3.671284    3.929748
  66 H     1.0000    0     1.008   14.825237    2.396919    6.755768
  67 H     1.0000    0     1.008   13.152206   -2.489807    1.828235
  68 H     1.0000    0     1.008   14.477104   -2.081905    4.879597
  69 H     1.0000    0     1.008   16.024653   -0.814208    2.205364
  70 H     1.0000    0     1.008    5.453643   -5.663599   -2.709163
  71 H     1.0000    0     1.008    7.034991   -5.938850    0.231963
  72 H     1.0000    0     1.008    8.667079   -4.778893   -2.454664

--------------------------------
INTERNAL COORDINATES (ANGSTROEM)
--------------------------------
 C      0   0   0     0.000000000000     0.00000000     0.00000000
 C      1   0   0     1.510616914417     0.00000000     0.00000000
 C      2   1   0     1.533973807224   110.49331776     0.00000000
 H      2   1   3     1.095908182218   110.68911480   237.87483188
 H      2   1   3     1.100146298395   109.82017375   118.77637517
 C      1   2   3     1.479704551865   113.95900625   306.22823803
 C      6   1   2     1.512815837400   114.43704673    49.65097862
 C      3   2   1     1.529557400356   110.16701076    56.75135211
 H      7   6   1     1.095223385686   110.21668824   188.81694975
 H      7   6   1     1.100673249379   108.27399007    72.16519262
 H      8   3   2     1.098566265098   108.31290602    64.40605507
 H      8   3   2     1.096161133842   109.51955418   181.39630692
 O      3   2   1     1.437374233406   110.66679375   292.76197191
 H      3   2   1     1.096995799418   109.49949734   177.23390325
 C      1   2   3     1.354298748329   121.18767584   123.17821364
 C      6   1   2     1.337553066075   123.12324915   231.59553859
 H     16   6   1     1.086760832538   121.34104133   359.03455888
 H     16   6   1     1.087493263912   120.95471781   178.41038567
 C     15   1   2     1.444994424220   126.17378039   185.03626791
 H     15   1   2     1.089357335076   116.24769386     3.02099322
 C     19  15   1     1.349990196739   126.41434385   186.33500930
 H     19  15   1     1.087767380641   115.79908648     6.84615813
 C     21  19  15     1.507462201487   125.68452364     2.29662984
 C     23  21  19     1.541387559048   111.43261039   123.93034801
 H     23  21  19     1.093299723723   112.40542635     0.36758947
 H     23  21  19     1.101563370953   107.93049718   242.48216766
 C     24  23  21     1.534591109577   112.67429371    51.19967074
 H     24  23  21     1.097383815988   108.97477673   289.06371960
 H     24  23  21     1.096915578446   109.12578851   173.13604528
 C     27  24  23     1.534833114699   111.89830359   306.45549768
 H     27  24  23     1.095015579886   108.90779681   182.93450024
 H     27  24  23     1.100495223885   109.19343928    66.48258876
 C     21  19  15     1.497798622404   122.94816935   179.88826663
 H     33  21  19     1.105401592058   106.42917291   127.95608427
 C     33  21  19     1.526136168530   121.25596851     5.30683248
 H     13   3   2     0.967789442072   107.58527493    42.49041850
 C     35  33  21     1.548559951837   103.58569306   197.00206891
 H     35  33  21     1.095028469756   112.03029235    74.97290605
 H     35  33  21     1.095687690825   110.83383353   315.38507610
 C     30  27  24     1.553580235405   116.06079822   166.19327318
 H     37  35  33     1.094543763798   111.95169178   249.47680924
 H     37  35  33     1.096303569283   110.94472834   130.86597332
 H     40  30  27     1.102571585952   106.44759351   321.11387912
 C     40  30  27     1.542127488763   118.91933588    81.87450681
 C     30  27  24     1.535007150586   111.11900065   294.04983068
 H     45  30  27     1.094675274335   111.56563882   186.29623752
 H     45  30  27     1.094391016252   111.50677115    66.26800638
 H     45  30  27     1.095568371452   110.66514504   306.12293724
 H     44  40  30     1.099942441300   108.33177577    61.12930272
 C     44  40  30     1.536133405302   113.45527415   300.24117440
 C     44  40  30     1.506463284793   109.21610627   178.57950691
 C     51  44  40     1.332479853136   124.88636487   238.61433104
 H     51  44  40     1.092112251544   114.70752739    59.70632757
 H     52  51  44     1.094119589552   117.57186562     0.81888029
 C     52  51  44     1.509439416762   128.32754598   180.36527833
 C     55  52  51     1.538446630625   109.14451330   132.44997986
 C     55  52  51     1.543705972236   114.81766279     3.99850402
 H     55  52  51     1.103995492198   106.02935595   246.81688177
 H     57  55  52     1.099705559816   106.71026242   314.93701640
 C     57  55  52     1.531958118434   111.41468734   198.62863794
 C     57  55  52     1.532545650707   113.17057069    73.84260657
 H     56  55  52     1.095095465752   111.05005872   298.44087782
 H     56  55  52     1.094664866932   111.63928008   177.43175781
 H     56  55  52     1.095251134337   110.23528902    57.69434471
 H     60  57  55     1.095937317465   111.27843630    55.93056230
 H     60  57  55     1.096134548301   111.38855564   295.29867917
 H     60  57  55     1.095817604481   110.55254847   175.95051108
 H     61  57  55     1.094625619692   112.03068181   310.61326837
 H     61  57  55     1.095673698760   110.38329266   190.04187468
 H     61  57  55     1.096134412835   110.76998391    71.12579647
 H     50  44  40     1.092949093819   111.90418313    67.15742622
 H     50  44  40     1.097107910882   110.73672632   306.45800189
 H     50  44  40     1.095327643935   110.13531508   187.13525466

---------------------------
INTERNAL COORDINATES (A.U.)
---------------------------
 C      0   0   0     0.000000000000     0.00000000     0.00000000
 C      1   0   0     2.854652261517     0.00000000     0.00000000
 C      2   1   0     2.898790392261   110.49331776     0.00000000
 H      2   1   3     2.070966332315   110.68911480   237.87483188
 H      2   1   3     2.078975211214   109.82017375   118.77637517
 C      1   2   3     2.796236362141   113.95900625   306.22823803
 C      6   1   2     2.858807623745   114.43704673    49.65097862
 C      3   2   1     2.890444592786   110.16701076    56.75135211
 H      7   6   1     2.069672254412   110.21668824   188.81694975
 H      7   6   1     2.079971004260   108.27399007    72.16519262
 H      8   3   2     2.075989380999   108.31290602    64.40605507
 H      8   3   2     2.071444341610   109.51955418   181.39630692
 O      3   2   1     2.716243653092   110.66679375   292.76197191
 H      3   2   1     2.073021630962   109.49949734   177.23390325
 C      1   2   3     2.559253737855   121.18767584   123.17821364
 C      6   1   2     2.527608984469   123.12324915   231.59553859
 H     16   6   1     2.053680346569   121.34104133   359.03455888
 H     16   6   1     2.055064441277   120.95471781   178.41038567
 C     15   1   2     2.730643726819   126.17378039   185.03626791
 H     15   1   2     2.058587025272   116.24769386     3.02099322
 C     19  15   1     2.551111755315   126.41434385   186.33500930
 H     19  15   1     2.055582446825   115.79908648     6.84615813
 C     21  19  15     2.848690718049   125.68452364     2.29662984
 C     23  21  19     2.912800352834   111.43261039   123.93034801
 H     23  21  19     2.066037060128   112.40542635     0.36758947
 H     23  21  19     2.081653090260   107.93049718   242.48216766
 C     24  23  21     2.899956924650   112.67429371    51.19967074
 H     24  23  21     2.073754876015   108.97477673   289.06371960
 H     24  23  21     2.072870035295   109.12578851   173.13604528
 C     27  24  23     2.900414248054   111.89830359   306.45549768
 H     27  24  23     2.069279558362   108.90779681   182.93450024
 H     27  24  23     2.079634584830   109.19343928    66.48258876
 C     21  19  15     2.830429200108   122.94816935   179.88826663
 H     33  21  19     2.088906276991   106.42917291   127.95608427
 C     33  21  19     2.883979401593   121.25596851     5.30683248
 H     13   3   2     1.828857000816   107.58527493    42.49041850
 C     35  33  21     2.926354210931   103.58569306   197.00206891
 H     35  33  21     2.069303916686   112.03029235    74.97290605
 H     35  33  21     2.070549663967   110.83383353   315.38507610
 C     30  27  24     2.935841171989   116.06079822   166.19327318
 H     37  35  33     2.068387955169   111.95169178   249.47680924
 H     37  35  33     2.071713505585   110.94472834   130.86597332
 H     40  30  27     2.083558340492   106.44759351   321.11387912
 C     40  30  27     2.914198617353   118.91933588    81.87450681
 C     30  27  24     2.900743128218   111.11900065   294.04983068
 H     45  30  27     2.068636474069   111.56563882   186.29623752
 H     45  30  27     2.068099304141   111.50677115    66.26800638
 H     45  30  27     2.070324183031   110.66514504   306.12293724
 H     44  40  30     2.078589977135   108.33177577    61.12930272
 C     44  40  30     2.902871441189   113.45527415   300.24117440
 C     44  40  30     2.846803039066   109.21610627   178.57950691
 C     51  44  40     2.518022001394   124.88636487   238.61433104
 H     51  44  40     2.063793062919   114.70752739    59.70632757
 H     52  51  44     2.067586382012   117.57186562     0.81888029
 C     52  51  44     2.852427113425   128.32754598   180.36527833
 C     55  52  51     2.907242803534   109.14451330   132.44997986
 C     55  52  51     2.917181518825   114.81766279     3.99850402
 H     55  52  51     2.086249133338   106.02935595   246.81688177
 H     57  55  52     2.078142336003   106.71026242   314.93701640
 C     57  55  52     2.894981292477   111.41468734   198.62863794
 C     57  55  52     2.896091567569   113.17057069    73.84260657
 H     56  55  52     2.069430520771   111.05005872   298.44087782
 H     56  55  52     2.068616806926   111.63928008   177.43175781
 H     56  55  52     2.069724691763   110.23528902    57.69434471
 H     60  57  55     2.071021389952   111.27843630    55.93056230
 H     60  57  55     2.071394102219   111.38855564   295.29867917
 H     60  57  55     2.070795165200   110.55254847   175.95051108
 H     61  57  55     2.068542640392   112.03068181   310.61326837
 H     61  57  55     2.070523222796   110.38329266   190.04187468
 H     61  57  55     2.071393846225   110.76998391    71.12579647
 H     50  44  40     2.065374465636   111.90418313    67.15742622
 H     50  44  40     2.073233490926   110.73672632   306.45800189
 H     50  44  40     2.069869273950   110.13531508   187.13525466

---------------------
BASIS SET INFORMATION
---------------------
There are 3 groups of distinct atoms

 Group   1 Type C   : 8s5p1d contracted to 3s3p1d pattern {521/311/1}
 Group   2 Type H   : 4s2p contracted to 2s1p pattern {31/2}
 Group   3 Type O   : 8s5p1d contracted to 3s3p1d pattern {521/311/1}

Atom   0C    basis set group =>   1
Atom   1C    basis set group =>   1
Atom   2C    basis set group =>   1
Atom   3H    basis set group =>   2
Atom   4H    basis set group =>   2
Atom   5C    basis set group =>   1
Atom   6C    basis set group =>   1
Atom   7C    basis set group =>   1
Atom   8H    basis set group =>   2
Atom   9H    basis set group =>   2
Atom  10H    basis set group =>   2
Atom  11H    basis set group =>   2
Atom  12O    basis set group =>   3
Atom  13H    basis set group =>   2
Atom  14C    basis set group =>   1
Atom  15C    basis set group =>   1
Atom  16H    basis set group =>   2
Atom  17H    basis set group =>   2
Atom  18C    basis set group =>   1
Atom  19H    basis set group =>   2
Atom  20C    basis set group =>   1
Atom  21H    basis set group =>   2
Atom  22C    basis set group =>   1
Atom  23C    basis set group =>   1
Atom  24H    basis set group =>   2
Atom  25H    basis set group =>   2
Atom  26C    basis set group =>   1
Atom  27H    basis set group =>   2
Atom  28H    basis set group =>   2
Atom  29C    basis set group =>   1
Atom  30H    basis set group =>   2
Atom  31H    basis set group =>   2
Atom  32C    basis set group =>   1
Atom  33H    basis set group =>   2
Atom  34C    basis set group =>   1
Atom  35H    basis set group =>   2
Atom  36C    basis set group =>   1
Atom  37H    basis set group =>   2
Atom  38H    basis set group =>   2
Atom  39C    basis set group =>   1
Atom  40H    basis set group =>   2
Atom  41H    basis set group =>   2
Atom  42H    basis set group =>   2
Atom  43C    basis set group =>   1
Atom  44C    basis set group =>   1
Atom  45H    basis set group =>   2
Atom  46H    basis set group =>   2
Atom  47H    basis set group =>   2
Atom  48H    basis set group =>   2
Atom  49C    basis set group =>   1
Atom  50C    basis set group =>   1
Atom  51C    basis set group =>   1
Atom  52H    basis set group =>   2
Atom  53H    basis set group =>   2
Atom  54C    basis set group =>   1
Atom  55C    basis set group =>   1
Atom  56C    basis set group =>   1
Atom  57H    basis set group =>   2
Atom  58H    basis set group =>   2
Atom  59C    basis set group =>   1
Atom  60C    basis set group =>   1
Atom  61H    basis set group =>   2
Atom  62H    basis set group =>   2
Atom  63H    basis set group =>   2
Atom  64H    basis set group =>   2
Atom  65H    basis set group =>   2
Atom  66H    basis set group =>   2
Atom  67H    basis set group =>   2
Atom  68H    basis set group =>   2
Atom  69H    basis set group =>   2
Atom  70H    basis set group =>   2
Atom  71H    basis set group =>   2
Atom  72H    basis set group =>   2

-------------------------
BASIS SET IN INPUT FORMAT
-------------------------

 # Basis set for element : H 
 NewGTO H 
 S 3 
   1      12.2518000000      0.0372173893
   2       1.8687100000      0.2538082070
   3       0.4182080000      0.7973867639
 S 1 
   1       0.1061000000      1.0000000000
 P 2 
   1       9.0000000000      0.0402678705
   2       1.0000000000      0.9880231245
  end;

 # Basis set for element : C 
 NewGTO C 
 S 5 
   1    1243.2000000000      0.0056300977
   2     187.1450000000      0.0419506039
   3      42.5126000000      0.1846643605
   4      11.7393000000      0.4665574214
   5       3.5054800000      0.4482347783
 S 2 
   1       5.3908900000     -0.1481148174
   2       0.4933410000      1.0519817143
 S 1 
   1       0.1497410000      1.0000000000
 P 3 
   1      59.6736000000      0.0113906672
   2       9.1805600000      0.1672414929
   3       1.9365800000      0.9041087436
 P 1 
   1       0.5262960000      1.0000000000
 P 1 
   1       0.1363190000      1.0000000000
 D 1 
   1       0.8000000000      1.0000000000
  end;

 # Basis set for element : O 
 NewGTO O 
 S 5 
   1    2288.6400000000      0.0054511382
   2     344.4160000000      0.0407189228
   3      78.2538000000      0.1813694209
   4      21.7195000000      0.4655368202
   5       6.5590700000      0.4512113212
 S 2 
   1      10.4656000000     -0.1502112012
   2       0.9643510000      1.0528679834
 S 1 
   1       0.2851270000      1.0000000000
 P 3 
   1     110.8840000000      0.0113058003
   2      17.0590000000      0.1699226452
   3       3.6899900000      0.9008060328
 P 1 
   1       0.9929960000      1.0000000000
 P 1 
   1       0.2449240000      1.0000000000
 D 1 
   1       1.0000000000      1.0000000000
  end;

---------------------------------
AUXILIARY/J BASIS SET INFORMATION
---------------------------------
There are 3 groups of distinct atoms

 Group   1 Type C   : 12s5p4d2f1g contracted to 6s4p3d1f1g pattern {711111/2111/211/2/1}
 Group   2 Type H   : 5s2p1d contracted to 3s1p1d pattern {311/2/1}
 Group   3 Type O   : 12s5p4d2f1g contracted to 6s4p3d1f1g pattern {711111/2111/211/2/1}

Atom   0C    basis set group =>   1
Atom   1C    basis set group =>   1
Atom   2C    basis set group =>   1
Atom   3H    basis set group =>   2
Atom   4H    basis set group =>   2
Atom   5C    basis set group =>   1
Atom   6C    basis set group =>   1
Atom   7C    basis set group =>   1
Atom   8H    basis set group =>   2
Atom   9H    basis set group =>   2
Atom  10H    basis set group =>   2
Atom  11H    basis set group =>   2
Atom  12O    basis set group =>   3
Atom  13H    basis set group =>   2
Atom  14C    basis set group =>   1
Atom  15C    basis set group =>   1
Atom  16H    basis set group =>   2
Atom  17H    basis set group =>   2
Atom  18C    basis set group =>   1
Atom  19H    basis set group =>   2
Atom  20C    basis set group =>   1
Atom  21H    basis set group =>   2
Atom  22C    basis set group =>   1
Atom  23C    basis set group =>   1
Atom  24H    basis set group =>   2
Atom  25H    basis set group =>   2
Atom  26C    basis set group =>   1
Atom  27H    basis set group =>   2
Atom  28H    basis set group =>   2
Atom  29C    basis set group =>   1
Atom  30H    basis set group =>   2
Atom  31H    basis set group =>   2
Atom  32C    basis set group =>   1
Atom  33H    basis set group =>   2
Atom  34C    basis set group =>   1
Atom  35H    basis set group =>   2
Atom  36C    basis set group =>   1
Atom  37H    basis set group =>   2
Atom  38H    basis set group =>   2
Atom  39C    basis set group =>   1
Atom  40H    basis set group =>   2
Atom  41H    basis set group =>   2
Atom  42H    basis set group =>   2
Atom  43C    basis set group =>   1
Atom  44C    basis set group =>   1
Atom  45H    basis set group =>   2
Atom  46H    basis set group =>   2
Atom  47H    basis set group =>   2
Atom  48H    basis set group =>   2
Atom  49C    basis set group =>   1
Atom  50C    basis set group =>   1
Atom  51C    basis set group =>   1
Atom  52H    basis set group =>   2
Atom  53H    basis set group =>   2
Atom  54C    basis set group =>   1
Atom  55C    basis set group =>   1
Atom  56C    basis set group =>   1
Atom  57H    basis set group =>   2
Atom  58H    basis set group =>   2
Atom  59C    basis set group =>   1
Atom  60C    basis set group =>   1
Atom  61H    basis set group =>   2
Atom  62H    basis set group =>   2
Atom  63H    basis set group =>   2
Atom  64H    basis set group =>   2
Atom  65H    basis set group =>   2
Atom  66H    basis set group =>   2
Atom  67H    basis set group =>   2
Atom  68H    basis set group =>   2
Atom  69H    basis set group =>   2
Atom  70H    basis set group =>   2
Atom  71H    basis set group =>   2
Atom  72H    basis set group =>   2

-------------------------------------
AUXILIARY/J BASIS SET IN INPUT FORMAT
-------------------------------------

 # Auxiliary/J basis set for element : H 
 NewAuxJGTO H 
 S 3 
   1      15.6752927000      0.1007184237
   2       3.6063578000      0.3404257499
   3       1.2080016000      0.6491996172
 S 1 
   1       0.4726794000      1.0000000000
 S 1 
   1       0.2018100000      1.0000000000
 P 2 
   1       2.0281365000      0.5596620919
   2       0.5358730000      0.5596620919
 D 1 
   1       2.2165124000      1.0000000000
  end;

 # Auxiliary/J basis set for element : C 
 NewAuxJGTO C 
 S 7 
   1    1861.0916331000      0.0134602335
   2     642.9939764000      0.0299160374
   3     235.1105725000      0.1008649584
   4      90.7028894000      0.2370970548
   5      36.7794552000      0.3924037254
   6      15.6046273000      0.3195862154
   7       6.8907294000      0.0530104441
 S 1 
   1       3.1478850000     -1.0000000000
 S 1 
   1       1.4777287000      1.0000000000
 S 1 
   1       0.7076466000      1.0000000000
 S 1 
   1       0.3430122000      1.0000000000
 S 1 
   1       0.1669453000      1.0000000000
 P 2 
   1      13.5472892000     -0.6769313712
   2       5.4669419000     -0.3779500978
 P 1 
   1       2.1751721000      1.0000000000
 P 1 
   1       0.8582194000      1.0000000000
 P 1 
   1       0.3376720000      1.0000000000
 D 2 
   1       5.9287253000     -0.3533329857
   2       1.9809209000     -0.7456525731
 D 1 
   1       0.8055417000     -1.0000000000
 D 1 
   1       0.3531244000     -1.0000000000
 F 2 
   1       1.6755626000      0.6311076882
   2       0.5997536000      0.4968166032
 G 1 
   1       1.0024600000     -1.0000000000
  end;

 # Auxiliary/J basis set for element : O 
 NewAuxJGTO O 
 S 7 
   1    2876.8216605000      0.0168151159
   2    1004.7443032000      0.0340137548
   3     369.7579954000      0.1194951309
   4     142.9442404000      0.2664627624
   5      57.8366425000      0.4202764046
   6      24.3864983000      0.2765077335
   7      10.6622662000      0.0057008815
 S 1 
   1       4.8070437000     -1.0000000000
 S 1 
   1       2.2210770000      1.0000000000
 S 1 
   1       1.0447795000      1.0000000000
 S 1 
   1       0.4968425000      1.0000000000
 S 1 
   1       0.2371384000      1.0000000000
 P 2 
   1      64.2613382000     -0.2731534179
   2      16.3006076000     -0.8168011598
 P 1 
   1       4.3550542000      1.0000000000
 P 1 
   1       1.2019554000      1.0000000000
 P 1 
   1       0.3354196000      1.0000000000
 D 2 
   1       9.2146611000     -0.4661230638
   2       2.8435251000     -0.6600908911
 D 1 
   1       0.9955759000     -1.0000000000
 D 1 
   1       0.3649441000     -1.0000000000
 F 2 
   1       2.6420115000      0.5931563945
   2       0.7345613000      0.5931563945
 G 1 
   1       1.3931000000     -1.0000000000
  end;



           ************************************************************
           *        Program running with 4 parallel MPI-processes     *
           *              working on a common directory               *
           ************************************************************
------------------------------------------------------------------------------
                           ORCA GTO INTEGRAL CALCULATION
                           -- RI-GTO INTEGRALS CHOSEN --
------------------------------------------------------------------------------
------------------------------------------------------------------------------
                   ___                                                        
                  /   \      - P O W E R E D   B Y -                         
                 /     \                                                     
                 |  |  |   _    _      __       _____    __    __             
                 |  |  |  | |  | |    /  \     |  _  \  |  |  /  |          
                  \  \/   | |  | |   /    \    | | | |  |  | /  /          
                 / \  \   | |__| |  /  /\  \   | |_| |  |  |/  /          
                |  |  |   |  __  | /  /__\  \  |    /   |      \           
                |  |  |   | |  | | |   __   |  |    \   |  |\   \          
                \     /   | |  | | |  |  |  |  | |\  \  |  | \   \       
                 \___/    |_|  |_| |__|  |__|  |_| \__\ |__|  \__/        
                                                                              
                      - O R C A' S   B I G   F R I E N D -                    
                                      &                                       
                       - I N T E G R A L  F E E D E R -                       
                                                                              
 v1 FN, 2020, v2 2021                                                         
------------------------------------------------------------------------------


Reading SHARK input file inpS.SHARKINP.tmp ... ok
----------------------
SHARK INTEGRAL PACKAGE
----------------------

Number of atoms                             ...     73
Number of basis functions                   ...    713
Number of shells                            ...    335
Maximum angular momentum                    ...      2
Integral batch strategy                     ... SHARK/LIBINT Hybrid
RI-J (if used) integral strategy            ... SPLIT-RIJ (Revised 2003 algorithm where possible)
Printlevel                                  ...      1
Contraction scheme used                     ... SEGMENTED contraction
Coulomb Range Separation                    ... NOT USED
Exchange Range Separation                   ... NOT USED
Finite Nucleus Model                        ... NOT USED
Auxiliary Coulomb fitting basis             ... AVAILABLE
   # of basis functions in Aux-J            ...   1905
   # of shells in Aux-J                     ...    655
   Maximum angular momentum in Aux-J        ...      4
Auxiliary J/K fitting basis                 ... NOT available
Auxiliary Correlation fitting basis         ... NOT available
Auxiliary 'external' fitting basis          ... NOT available
Integral threshold                          ...     3.000000e-11
Primitive cut-off                           ...     1.000000e-12
Primitive pair pre-selection threshold      ...     1.000000e-12

Calculating pre-screening integrals         ... done (  0.0 sec) Dimension = 335
Organizing shell pair data                  ... done (  0.1 sec)
Shell pair information
Total number of shell pairs                 ...     56280
Shell pairs after pre-screening             ...     31503
Total number of primitive shell pairs       ...    225367
Primitive shell pairs kept                  ...     74237
          la=0 lb=0:   9616 shell pairs
          la=1 lb=0:  12953 shell pairs
          la=1 lb=1:   4232 shell pairs
          la=2 lb=0:   2752 shell pairs
          la=2 lb=1:   1755 shell pairs
          la=2 lb=2:    195 shell pairs

Calculating one electron integrals          ... done (  0.1 sec)
Calculating RI/J V-Matrix + Cholesky decomp.... done (  0.2 sec)
Calculating Nuclear repulsion               ... done (  0.0 sec) ENN=   2780.112023368333 Eh

SHARK setup successfully completed in   0.6 seconds

Maximum memory used throughout the entire GTOINT-calculation: 61.1 MB


           ************************************************************
           *        Program running with 4 parallel MPI-processes     *
           *              working on a common directory               *
           ************************************************************
-------------------------------------------------------------------------------
                                 ORCA SCF
-------------------------------------------------------------------------------

------------
SCF SETTINGS
------------
Hamiltonian:
 Density Functional     Method          .... DFT(GTOs)
 Exchange Functional    Exchange        .... revTPSS
 Correlation Functional Correlation     .... revTPSS
 LDA part of GGA corr.  LDAOpt          .... PW91-LDA
 Gradients option       PostSCFGGA      .... off
   Density functional embedding theory  .... OFF
 RI-approximation to the Coulomb term is turned on
   Number of AuxJ basis functions       .... 1905


General Settings:
 Integral files         IntName         .... inpS
 Hartree-Fock type      HFTyp           .... RHF
 Total Charge           Charge          ....    0
 Multiplicity           Mult            ....    1
 Number of Electrons    NEL             ....  220
 Basis Dimension        Dim             ....  713
 Nuclear Repulsion      ENuc            ....   2780.1120233683 Eh

Convergence Acceleration:
 DIIS                   CNVDIIS         .... on
   Start iteration      DIISMaxIt       ....    12
   Startup error        DIISStart       ....  0.200000
   # of expansion vecs  DIISMaxEq       ....     5
   Bias factor          DIISBfac        ....   1.050
   Max. coefficient     DIISMaxC        ....  10.000
 Trust-Rad. Augm. Hess. CNVTRAH         .... auto
   Auto Start mean grad. ratio tolernc. ....  1.125000
   Auto Start start iteration           ....    20
   Auto Start num. interpolation iter.  ....    10
   Max. Number of Micro iterations      ....    16
   Max. Number of Macro iterations      .... Maxiter - #DIIS iter
   Number of Davidson start vectors     ....     2
   Converg. threshold I  (grad. norm)   ....   1.000e-04
   Converg. threshold II (energy diff.) ....   1.000e-07
   Grad. Scal. Fac. for Micro threshold ....   0.100
   Minimum threshold for Micro iter.    ....   0.010
   NR start threshold (gradient norm)   ....   0.001
   Initial trust radius                 ....   0.400
   Minimum AH scaling param. (alpha)    ....   1.000
   Maximum AH scaling param. (alpha)    .... 1000.000
   Orbital update algorithm             .... Taylor
   White noise on init. David. guess    .... on
   Maximum white noise                  ....   0.010
   Quad. conv. algorithm                .... NR
 SOSCF                  CNVSOSCF        .... off
 Level Shifting         CNVShift        .... on
   Level shift para.    LevelShift      ....    0.2500
   Turn off err/grad.   ShiftErr        ....    0.0010
 Zerner damping         CNVZerner       .... off
 Static damping         CNVDamp         .... on
   Fraction old density DampFac         ....    0.7000
   Max. Damping (<1)    DampMax         ....    0.9800
   Min. Damping (>=0)   DampMin         ....    0.0000
   Turn off err/grad.   DampErr         ....    0.1000
 Fernandez-Rico         CNVRico         .... off

SCF Procedure:
 Maximum # iterations   MaxIter         ....   125
 SCF integral mode      SCFMode         .... Direct
   Integral package                     .... SHARK and LIBINT hybrid scheme
 Reset frequency        DirectResetFreq ....    20
 Integral Threshold     Thresh          ....  3.000e-11 Eh
 Primitive CutOff       TCut            ....  1.000e-12 Eh

Convergence Tolerance:
 Convergence Check Mode ConvCheckMode   .... Total+1el-Energy
 Convergence forced     ConvForced      .... 0
 Energy Change          TolE            ....  1.000e-07 Eh
 1-El. energy change                    ....  1.000e-04 Eh
 DIIS Error             TolErr          ....  1.000e-07


Diagonalization of the overlap matrix:
Smallest eigenvalue                        ... 5.195e-04
Time for diagonalization                   ...    0.064 sec
Threshold for overlap eigenvalues          ... 1.000e-08
Number of eigenvalues below threshold      ... 0
Time for construction of square roots      ...    0.052 sec
Total time needed                          ...    0.118 sec

Time for model grid setup =    0.758 sec

------------------------------
INITIAL GUESS: MODEL POTENTIAL
------------------------------
Loading Hartree-Fock densities                     ... done
Calculating cut-offs                               ... done
Initializing the effective Hamiltonian             ... done
Setting up the integral package (SHARK)            ... done
Starting the Coulomb interaction                   ... done (   0.6 sec)
Reading the grid                                   ... done
Mapping shells                                     ... done
Starting the XC term evaluation                    ... done (   0.3 sec)
  promolecular density results
     # of electrons  =    219.983997661
     EX              =   -164.431481248
     EC              =     -7.326539277
     EX+EC           =   -171.758020525
Transforming the Hamiltonian                       ... done (   0.0 sec)
Diagonalizing the Hamiltonian                      ... done (   0.1 sec)
Back transforming the eigenvectors                 ... done (   0.0 sec)
Now organizing SCF variables                       ... done
                      ------------------
                      INITIAL GUESS DONE (   1.8 sec)
                      ------------------
-------------------
DFT GRID GENERATION
-------------------

General Integration Accuracy     IntAcc      ... 4.388
Radial Grid Type                 RadialGrid  ... OptM3 with GC (2021)
Angular Grid (max. ang.)         AngularGrid ... 4 (Lebedev-302)
Angular grid pruning method      GridPruning ... 4 (adaptive)
Weight generation scheme         WeightScheme... Becke
Basis function cutoff            BFCut       ... 1.0000e-11
Integration weight cutoff        WCut        ... 1.0000e-14
Angular grids for H and He will be reduced by one unit
Partially contracted basis set               ... off
Rotationally invariant grid construction     ... off

Total number of grid points                  ...   309962
Total number of batches                      ...     4879
Average number of points per batch           ...       63
Average number of grid points per atom       ...     4246
Time for grid setup =    2.924 sec


--------------------
CPCM SOLVATION MODEL
--------------------
CPCM parameters:
  Epsilon                                         ...       4.9000
  Refrac                                          ...       1.4500
  Rsolv                                           ...       1.3000
  Surface type                                    ... GAUSSIAN VDW
  Epsilon function type                           ...         CPCM
Radii:
 Radius for C  used is    3.8550 Bohr (=   2.0400 Ang.)
 Radius for H  used is    2.4944 Bohr (=   1.3200 Ang.)
 Radius for O  used is    3.4469 Bohr (=   1.8240 Ang.)
Calculating surface                               ...        done! (  0.0s)
GEPOL surface points                              ...         3629
GEPOL Volume                                      ...    3608.6212
GEPOL Surface-area                                ...    1781.6994
Calculating surface distance matrix               ...        done! (  0.1s)
Performing Cholesky decomposition & store         ...        done! (  0.5s)
Overall time for CPCM initialization              ...                 0.6s
--------------
SCF ITERATIONS
--------------
ITER       Energy         Delta-E        Max-DP      RMS-DP      [F,P]     Damp
               ***  Starting incremental Fock matrix formation  ***

  HOMO= 109 E= -1.916 eV LUMO=  7.775 eV gap=   9.691 eV
  0  -1167.5229457302   0.000000000000 0.05530566  0.00083077  0.2633629 0.7000

  HOMO= 109 E= -3.431 eV LUMO=  6.673 eV gap=  10.104 eV
  1  -1167.8968028811  -0.373857150878 0.02894707  0.00061403  0.1016574 0.7000
                               ***Turning on DIIS***

  HOMO= 109 E= -4.408 eV LUMO=  5.788 eV gap=  10.195 eV
  2  -1168.0430315450  -0.146228663929 0.04768705  0.00101177  0.0320114 0.0000

  HOMO= 109 E= -5.030 eV LUMO=  5.204 eV gap=  10.234 eV
  3  -1168.2407733615  -0.197741816500 0.02329735  0.00047501  0.0535505 0.0000

  HOMO= 109 E= -5.053 eV LUMO=  5.179 eV gap=  10.233 eV
  4  -1168.3076386644  -0.066865302915 0.00744069  0.00015248  0.0104105 0.0000

  HOMO= 109 E= -5.008 eV LUMO=  5.232 eV gap=  10.240 eV
  5  -1168.3107169625  -0.003078298108 0.00341027  0.00005707  0.0101385 0.0000

  HOMO= 109 E= -4.989 eV LUMO=  5.248 eV gap=  10.238 eV
  6  -1168.3109840195  -0.000267057000 0.00128423  0.00001920  0.0030965 0.0000

  HOMO= 109 E= -4.990 eV LUMO= -1.556 eV gap=   3.434 eV
  7  -1168.3110045253  -0.000020505759 0.00069397  0.00001168  0.0005149 0.0000

  HOMO= 109 E= -4.988 eV LUMO= -1.554 eV gap=   3.434 eV
  8  -1168.3110075518  -0.000003026498 0.00026570  0.00000292  0.0003799 0.0000

  HOMO= 109 E= -4.987 eV LUMO= -1.552 eV gap=   3.434 eV
  9  -1168.3110081983  -0.000000646565 0.00016256  0.00000153  0.0002552 0.0000

  HOMO= 109 E= -4.987 eV LUMO= -1.553 eV gap=   3.434 eV
 10  -1168.3110084505  -0.000000252126 0.00006429  0.00000069  0.0001030 0.0000

  HOMO= 109 E= -4.987 eV LUMO= -1.553 eV gap=   3.434 eV
 11  -1168.3110084664  -0.000000015969 0.00002550  0.00000027  0.0000267 0.0000

  HOMO= 109 E= -4.987 eV LUMO= -1.553 eV gap=   3.434 eV
 12  -1168.3110084639   0.000000002483 0.00001234  0.00000012  0.0000167 0.0000

  HOMO= 109 E= -4.987 eV LUMO= -1.553 eV gap=   3.434 eV
 13  -1168.3110084745  -0.000000010577 0.00000584  0.00000005  0.0000075 0.0000
                 **** Energy Check signals convergence ****

               *****************************************************
               *                     SUCCESS                       *
               *           SCF CONVERGED AFTER  14 CYCLES          *
               *****************************************************


----------------
TOTAL SCF ENERGY
----------------

Total Energy       :        -1168.31100849 Eh          -31791.35878 eV

Components:
Nuclear Repulsion  :         2780.11202337 Eh           75650.69416 eV
Electronic Energy  :        -3948.42303185 Eh         -107442.05295 eV
One Electron Energy:        -7106.37497666 Eh         -193374.29407 eV
Two Electron Energy:         3157.95194481 Eh           85932.24113 eV
CPCM Dielectric    :           -0.00903002 Eh              -0.24572 eV

Virial components:
Potential Energy   :        -2330.40944222 Eh          -63413.66481 eV
Kinetic Energy     :         1162.09843374 Eh           31622.30603 eV
Virial Ratio       :            2.00534600


DFT components:
N(Alpha)           :      109.999961457090 electrons
N(Beta)            :      109.999961457090 electrons
N(Total)           :      219.999922914180 electrons
E(X)               :     -169.583083291505 Eh       
E(C)               :       -7.443668344512 Eh       
E(XC)              :     -177.026751636017 Eh       
DFET-embed. en.    :        0.000000000000 Eh       
CPCM Solvation Model Properties:
Surface-charge          :           -0.04548269
Charge-correction       :           -0.00006974 Eh              -0.00190 eV
Free-energy (cav+disp)  :  This term is not implemented in the current solvation scheme

---------------
SCF CONVERGENCE
---------------

  Last Energy change         ...   -1.1712e-08  Tolerance :   1.0000e-07
  Last MAX-Density change    ...    2.8987e-06  Tolerance :   1.0000e-05
  Last RMS-Density change    ...    2.8288e-08  Tolerance :   1.0000e-06
  Last DIIS Error            ...    3.5063e-06  Tolerance :   1.0000e-07

             **** THE GBW FILE WAS UPDATED (inpS.gbw) ****
             **** DENSITY inpS.scfp WAS UPDATED ****
             **** ENERGY FILE WAS UPDATED (inpS.en.tmp) ****
             **** THE GBW FILE WAS UPDATED (inpS.gbw) ****
             **** DENSITY inpS.scfp WAS UPDATED ****
----------------
ORBITAL ENERGIES
----------------

  NO   OCC          E(Eh)            E(eV) 
   0   2.0000     -18.903710      -514.3961 
   1   2.0000     -10.057175      -273.6696 
   2   2.0000     -10.016447      -272.5614 
   3   2.0000     -10.014628      -272.5119 
   4   2.0000     -10.012209      -272.4461 
   5   2.0000     -10.012124      -272.4437 
   6   2.0000     -10.011970      -272.4395 
   7   2.0000     -10.010970      -272.4123 
   8   2.0000     -10.010156      -272.3902 
   9   2.0000     -10.009774      -272.3798 
  10   2.0000     -10.009645      -272.3763 
  11   2.0000     -10.007553      -272.3194 
  12   2.0000     -10.006668      -272.2953 
  13   2.0000     -10.006418      -272.2885 
  14   2.0000     -10.006288      -272.2849 
  15   2.0000     -10.005618      -272.2667 
  16   2.0000     -10.005118      -272.2531 
  17   2.0000     -10.001001      -272.1411 
  18   2.0000     -10.000827      -272.1363 
  19   2.0000      -9.999646      -272.1042 
  20   2.0000      -9.999561      -272.1019 
  21   2.0000      -9.998718      -272.0790 
  22   2.0000      -9.998467      -272.0721 
  23   2.0000      -9.998050      -272.0608 
  24   2.0000      -9.997503      -272.0459 
  25   2.0000      -9.996922      -272.0301 
  26   2.0000      -9.995838      -272.0006 
  27   2.0000      -9.995371      -271.9879 
  28   2.0000      -9.994269      -271.9579 
  29   2.0000      -0.954390       -25.9703 
  30   2.0000      -0.807816       -21.9818 
  31   2.0000      -0.789436       -21.4816 
  32   2.0000      -0.770734       -20.9727 
  33   2.0000      -0.757064       -20.6008 
  34   2.0000      -0.734375       -19.9834 
  35   2.0000      -0.727795       -19.8043 
  36   2.0000      -0.708842       -19.2886 
  37   2.0000      -0.708717       -19.2852 
  38   2.0000      -0.693461       -18.8700 
  39   2.0000      -0.676165       -18.3994 
  40   2.0000      -0.659782       -17.9536 
  41   2.0000      -0.655070       -17.8254 
  42   2.0000      -0.636040       -17.3075 
  43   2.0000      -0.628700       -17.1078 
  44   2.0000      -0.625277       -17.0147 
  45   2.0000      -0.619287       -16.8517 
  46   2.0000      -0.591486       -16.0952 
  47   2.0000      -0.587981       -15.9998 
  48   2.0000      -0.556498       -15.1431 
  49   2.0000      -0.547680       -14.9031 
  50   2.0000      -0.541133       -14.7250 
  51   2.0000      -0.535104       -14.5609 
  52   2.0000      -0.526809       -14.3352 
  53   2.0000      -0.518143       -14.0994 
  54   2.0000      -0.489361       -13.3162 
  55   2.0000      -0.478193       -13.0123 
  56   2.0000      -0.472370       -12.8538 
  57   2.0000      -0.463417       -12.6102 
  58   2.0000      -0.451266       -12.2796 
  59   2.0000      -0.443232       -12.0609 
  60   2.0000      -0.434069       -11.8116 
  61   2.0000      -0.429308       -11.6821 
  62   2.0000      -0.422189       -11.4884 
  63   2.0000      -0.416979       -11.3466 
  64   2.0000      -0.415304       -11.3010 
  65   2.0000      -0.406823       -11.0702 
  66   2.0000      -0.405212       -11.0264 
  67   2.0000      -0.401527       -10.9261 
  68   2.0000      -0.397779       -10.8241 
  69   2.0000      -0.392318       -10.6755 
  70   2.0000      -0.388617       -10.5748 
  71   2.0000      -0.381132       -10.3711 
  72   2.0000      -0.376818       -10.2538 
  73   2.0000      -0.371751       -10.1159 
  74   2.0000      -0.368790       -10.0353 
  75   2.0000      -0.362046        -9.8518 
  76   2.0000      -0.357557        -9.7296 
  77   2.0000      -0.356871        -9.7109 
  78   2.0000      -0.355261        -9.6671 
  79   2.0000      -0.351620        -9.5681 
  80   2.0000      -0.347405        -9.4534 
  81   2.0000      -0.344441        -9.3727 
  82   2.0000      -0.342489        -9.3196 
  83   2.0000      -0.336938        -9.1685 
  84   2.0000      -0.335394        -9.1265 
  85   2.0000      -0.326328        -8.8798 
  86   2.0000      -0.325123        -8.8471 
  87   2.0000      -0.323165        -8.7938 
  88   2.0000      -0.319183        -8.6854 
  89   2.0000      -0.311738        -8.4828 
  90   2.0000      -0.309190        -8.4135 
  91   2.0000      -0.305745        -8.3197 
  92   2.0000      -0.302277        -8.2254 
  93   2.0000      -0.296061        -8.0562 
  94   2.0000      -0.290487        -7.9046 
  95   2.0000      -0.286472        -7.7953 
  96   2.0000      -0.286054        -7.7839 
  97   2.0000      -0.284967        -7.7543 
  98   2.0000      -0.282125        -7.6770 
  99   2.0000      -0.278773        -7.5858 
 100   2.0000      -0.274529        -7.4703 
 101   2.0000      -0.272266        -7.4087 
 102   2.0000      -0.270549        -7.3620 
 103   2.0000      -0.268868        -7.3163 
 104   2.0000      -0.259970        -7.0741 
 105   2.0000      -0.249500        -6.7893 
 106   2.0000      -0.230162        -6.2630 
 107   2.0000      -0.228652        -6.2219 
 108   2.0000      -0.213078        -5.7981 
 109   2.0000      -0.183270        -4.9870 
 110   0.0000      -0.057057        -1.5526 
 111   0.0000      -0.014160        -0.3853 
 112   0.0000      -0.005941        -0.1617 
 113   0.0000       0.030124         0.8197 
 114   0.0000       0.038198         1.0394 
 115   0.0000       0.039721         1.0809 
 116   0.0000       0.046062         1.2534 
 117   0.0000       0.048282         1.3138 
 118   0.0000       0.052674         1.4333 
 119   0.0000       0.059385         1.6159 
 120   0.0000       0.060372         1.6428 
 121   0.0000       0.065790         1.7902 
 122   0.0000       0.068459         1.8629 
 123   0.0000       0.073360         1.9962 
 124   0.0000       0.079083         2.1520 
 125   0.0000       0.082359         2.2411 
 126   0.0000       0.084865         2.3093 
 127   0.0000       0.086275         2.3477 
 128   0.0000       0.087649         2.3850 
 129   0.0000       0.092317         2.5121 
 130   0.0000       0.094536         2.5725 
 131   0.0000       0.100432         2.7329 
 132   0.0000       0.102375         2.7858 
 133   0.0000       0.106760         2.9051 
 134   0.0000       0.107359         2.9214 
 135   0.0000       0.111675         3.0388 
 136   0.0000       0.112655         3.0655 
 137   0.0000       0.119776         3.2593 
 138   0.0000       0.122623         3.3367 
 139   0.0000       0.124393         3.3849 
 140   0.0000       0.126071         3.4306 
 141   0.0000       0.127674         3.4742 
 142   0.0000       0.130266         3.5447 
 143   0.0000       0.132811         3.6140 
 144   0.0000       0.139107         3.7853 
 145   0.0000       0.140980         3.8363 
 146   0.0000       0.142753         3.8845 
 147   0.0000       0.145639         3.9630 
 148   0.0000       0.145796         3.9673 
 149   0.0000       0.148729         4.0471 
 150   0.0000       0.152164         4.1406 
 151   0.0000       0.159387         4.3371 
 152   0.0000       0.161055         4.3825 
 153   0.0000       0.163409         4.4466 
 154   0.0000       0.165363         4.4998 
 155   0.0000       0.168788         4.5930 
 156   0.0000       0.175398         4.7728 
 157   0.0000       0.176900         4.8137 
 158   0.0000       0.179608         4.8874 
 159   0.0000       0.184397         5.0177 
 160   0.0000       0.185753         5.0546 
 161   0.0000       0.188949         5.1416 
 162   0.0000       0.194431         5.2907 
 163   0.0000       0.198540         5.4025 
 164   0.0000       0.203266         5.5311 
 165   0.0000       0.204599         5.5674 
 166   0.0000       0.208444         5.6721 
 167   0.0000       0.209711         5.7065 
 168   0.0000       0.214655         5.8410 
 169   0.0000       0.215991         5.8774 
 170   0.0000       0.218112         5.9351 
 171   0.0000       0.227708         6.1963 
 172   0.0000       0.228728         6.2240 
 173   0.0000       0.230536         6.2732 
 174   0.0000       0.238262         6.4834 
 175   0.0000       0.244264         6.6468 
 176   0.0000       0.245282         6.6745 
 177   0.0000       0.252291         6.8652 
 178   0.0000       0.261220         7.1082 
 179   0.0000       0.265679         7.2295 
 180   0.0000       0.273362         7.4385 
 181   0.0000       0.275173         7.4878 
 182   0.0000       0.284554         7.7431 
 183   0.0000       0.294141         8.0040 
 184   0.0000       0.296627         8.0716 
 185   0.0000       0.327334         8.9072 
 186   0.0000       0.335800         9.1376 
 187   0.0000       0.338834         9.2201 
 188   0.0000       0.346348         9.4246 
 189   0.0000       0.349851         9.5199 
 190   0.0000       0.359313         9.7774 
 191   0.0000       0.367129         9.9901 
 192   0.0000       0.370544        10.0830 
 193   0.0000       0.372242        10.1292 
 194   0.0000       0.376034        10.2324 
 195   0.0000       0.382284        10.4025 
 196   0.0000       0.384842        10.4721 
 197   0.0000       0.389964        10.6115 
 198   0.0000       0.392252        10.6737 
 199   0.0000       0.398889        10.8543 
 200   0.0000       0.403170        10.9708 
 201   0.0000       0.408746        11.1225 
 202   0.0000       0.412032        11.2120 
 203   0.0000       0.419865        11.4251 
 204   0.0000       0.424286        11.5454 
 205   0.0000       0.428074        11.6485 
 206   0.0000       0.434170        11.8144 
 207   0.0000       0.443158        12.0589 
 208   0.0000       0.452148        12.3036 
 209   0.0000       0.458925        12.4880 
 210   0.0000       0.461768        12.5653 
 211   0.0000       0.464155        12.6303 
 212   0.0000       0.465547        12.6682 
 213   0.0000       0.475648        12.9431 
 214   0.0000       0.479406        13.0453 
 215   0.0000       0.482346        13.1253 
 216   0.0000       0.484266        13.1775 
 217   0.0000       0.494357        13.4521 
 218   0.0000       0.499672        13.5968 
 219   0.0000       0.500298        13.6138 
 220   0.0000       0.504570        13.7301 
 221   0.0000       0.510212        13.8836 
 222   0.0000       0.512368        13.9422 
 223   0.0000       0.522157        14.2086 
 224   0.0000       0.524999        14.2860 
 225   0.0000       0.525888        14.3101 
 226   0.0000       0.531401        14.4602 
 227   0.0000       0.538139        14.6435 
 228   0.0000       0.541313        14.7299 
 229   0.0000       0.543275        14.7833 
 230   0.0000       0.546975        14.8839 
 231   0.0000       0.549585        14.9550 
 232   0.0000       0.553998        15.0751 
 233   0.0000       0.561249        15.2724 
 234   0.0000       0.563646        15.3376 
 235   0.0000       0.564568        15.3627 
 236   0.0000       0.570501        15.5241 
 237   0.0000       0.571261        15.5448 
 238   0.0000       0.574868        15.6429 
 239   0.0000       0.578715        15.7476 
 240   0.0000       0.580336        15.7917 
 241   0.0000       0.582812        15.8591 
 242   0.0000       0.584767        15.9123 
 243   0.0000       0.590829        16.0773 
 244   0.0000       0.594173        16.1683 
 245   0.0000       0.596158        16.2223 
 246   0.0000       0.599645        16.3172 
 247   0.0000       0.601563        16.3694 
 248   0.0000       0.602320        16.3900 
 249   0.0000       0.605507        16.4767 
 250   0.0000       0.607257        16.5243 
 251   0.0000       0.607845        16.5403 
 252   0.0000       0.609790        16.5932 
 253   0.0000       0.614435        16.7196 
 254   0.0000       0.616213        16.7680 
 255   0.0000       0.617223        16.7955 
 256   0.0000       0.623604        16.9691 
 257   0.0000       0.625705        17.0263 
 258   0.0000       0.627342        17.0708 
 259   0.0000       0.632783        17.2189 
 260   0.0000       0.635077        17.2813 
 261   0.0000       0.637536        17.3482 
 262   0.0000       0.641077        17.4446 
 263   0.0000       0.644404        17.5351 
 264   0.0000       0.645596        17.5676 
 265   0.0000       0.649291        17.6681 
 266   0.0000       0.651330        17.7236 
 267   0.0000       0.653563        17.7844 
 268   0.0000       0.654555        17.8113 
 269   0.0000       0.657764        17.8987 
 270   0.0000       0.660072        17.9615 
 271   0.0000       0.665574        18.1112 
 272   0.0000       0.670728        18.2514 
 273   0.0000       0.674026        18.3412 
 274   0.0000       0.676092        18.3974 
 275   0.0000       0.678061        18.4510 
 276   0.0000       0.683437        18.5973 
 277   0.0000       0.684919        18.6376 
 278   0.0000       0.685481        18.6529 
 279   0.0000       0.691769        18.8240 
 280   0.0000       0.695594        18.9281 
 281   0.0000       0.699346        19.0302 
 282   0.0000       0.710341        19.3294 
 283   0.0000       0.712436        19.3864 
 284   0.0000       0.713411        19.4129 
 285   0.0000       0.717696        19.5295 
 286   0.0000       0.723273        19.6813 
 287   0.0000       0.725308        19.7366 
 288   0.0000       0.730330        19.8733 
 289   0.0000       0.735608        20.0169 
 290   0.0000       0.739305        20.1175 
 291   0.0000       0.742788        20.2123 
 292   0.0000       0.747310        20.3353 
 293   0.0000       0.749438        20.3932 
 294   0.0000       0.761354        20.7175 
 295   0.0000       0.764166        20.7940 
 296   0.0000       0.770325        20.9616 
 297   0.0000       0.776711        21.1354 
 298   0.0000       0.781259        21.2591 
 299   0.0000       0.784158        21.3380 
 300   0.0000       0.801491        21.8097 
 301   0.0000       0.802813        21.8457 
 302   0.0000       0.811951        22.0943 
 303   0.0000       0.817511        22.2456 
 304   0.0000       0.830226        22.5916 
 305   0.0000       0.848264        23.0824 
 306   0.0000       0.868274        23.6269 
 307   0.0000       0.874037        23.7838 
 308   0.0000       0.888101        24.1664 
 309   0.0000       0.895292        24.3621 
 310   0.0000       0.927978        25.2516 
 311   0.0000       0.934976        25.4420 
 312   0.0000       0.947457        25.7816 
 313   0.0000       0.963908        26.2293 
 314   0.0000       0.977101        26.5883 
 315   0.0000       0.987540        26.8723 
 316   0.0000       1.002181        27.2707 
 317   0.0000       1.019873        27.7522 
 318   0.0000       1.026928        27.9441 
 319   0.0000       1.040243        28.3065 
 320   0.0000       1.047499        28.5039 
 321   0.0000       1.057827        28.7849 
 322   0.0000       1.060783        28.8654 
 323   0.0000       1.090922        29.6855 
 324   0.0000       1.107934        30.1484 
 325   0.0000       1.110258        30.2116 
 326   0.0000       1.122175        30.5359 
 327   0.0000       1.143026        31.1033 
 328   0.0000       1.157974        31.5101 
 329   0.0000       1.171652        31.8823 
 330   0.0000       1.180177        32.1142 
 331   0.0000       1.204282        32.7702 
 332   0.0000       1.225431        33.3457 
 333   0.0000       1.237169        33.6651 
 334   0.0000       1.254620        34.1400 
 335   0.0000       1.262078        34.3429 
 336   0.0000       1.277621        34.7658 
 337   0.0000       1.284226        34.9456 
 338   0.0000       1.295045        35.2400 
 339   0.0000       1.301485        35.4152 
 340   0.0000       1.310704        35.6661 
 341   0.0000       1.334039        36.3010 
 342   0.0000       1.336136        36.3581 
 343   0.0000       1.351251        36.7694 
 344   0.0000       1.368635        37.2424 
 345   0.0000       1.373043        37.3624 
 346   0.0000       1.392485        37.8914 
 347   0.0000       1.397395        38.0251 
 348   0.0000       1.410320        38.3768 
 349   0.0000       1.414638        38.4942 
 350   0.0000       1.430279        38.9199 
 351   0.0000       1.436066        39.0773 
 352   0.0000       1.446794        39.3693 
 353   0.0000       1.456268        39.6271 
 354   0.0000       1.461552        39.7708 
 355   0.0000       1.474642        40.1271 
 356   0.0000       1.479818        40.2679 
 357   0.0000       1.488993        40.5176 
 358   0.0000       1.501108        40.8472 
 359   0.0000       1.506665        40.9984 
 360   0.0000       1.509202        41.0675 
 361   0.0000       1.521861        41.4119 
 362   0.0000       1.530675        41.6518 
 363   0.0000       1.549510        42.1643 
 364   0.0000       1.557299        42.3763 
 365   0.0000       1.561801        42.4988 
 366   0.0000       1.576877        42.9090 
 367   0.0000       1.586938        43.1828 
 368   0.0000       1.593671        43.3660 
 369   0.0000       1.600088        43.5406 
 370   0.0000       1.603334        43.6289 
 371   0.0000       1.614830        43.9418 
 372   0.0000       1.623046        44.1653 
 373   0.0000       1.628930        44.3255 
 374   0.0000       1.643544        44.7231 
 375   0.0000       1.654518        45.0217 
 376   0.0000       1.661375        45.2083 
 377   0.0000       1.668000        45.3886 
 378   0.0000       1.680242        45.7217 
 379   0.0000       1.683319        45.8055 
 380   0.0000       1.688639        45.9502 
 381   0.0000       1.692379        46.0520 
 382   0.0000       1.701584        46.3025 
 383   0.0000       1.708428        46.4887 
 384   0.0000       1.713204        46.6186 
 385   0.0000       1.714731        46.6602 
 386   0.0000       1.718448        46.7613 
 387   0.0000       1.731312        47.1114 
 388   0.0000       1.737538        47.2808 
 389   0.0000       1.739138        47.3243 
 390   0.0000       1.748398        47.5763 
 391   0.0000       1.751010        47.6474 
 392   0.0000       1.752632        47.6915 
 393   0.0000       1.760795        47.9137 
 394   0.0000       1.768564        48.1251 
 395   0.0000       1.772736        48.2386 
 396   0.0000       1.778248        48.3886 
 397   0.0000       1.784100        48.5478 
 398   0.0000       1.788449        48.6662 
 399   0.0000       1.793451        48.8023 
 400   0.0000       1.798155        48.9303 
 401   0.0000       1.809941        49.2510 
 402   0.0000       1.811911        49.3046 
 403   0.0000       1.820372        49.5348 
 404   0.0000       1.823603        49.6228 
 405   0.0000       1.828230        49.7487 
 406   0.0000       1.838457        50.0270 
 407   0.0000       1.844250        50.1846 
 408   0.0000       1.845918        50.2300 
 409   0.0000       1.856354        50.5140 
 410   0.0000       1.860340        50.6224 
 411   0.0000       1.869276        50.8656 
 412   0.0000       1.871160        50.9168 
 413   0.0000       1.875982        51.0481 
 414   0.0000       1.884656        51.2841 
 415   0.0000       1.891017        51.4572 
 416   0.0000       1.894087        51.5407 
 417   0.0000       1.906398        51.8757 
 418   0.0000       1.914634        52.0999 
 419   0.0000       1.919888        52.2428 
 420   0.0000       1.925852        52.4051 
 421   0.0000       1.934289        52.6347 
 422   0.0000       1.936835        52.7040 
 423   0.0000       1.949630        53.0521 
 424   0.0000       1.951748        53.1098 
 425   0.0000       1.962546        53.4036 
 426   0.0000       1.967152        53.5289 
 427   0.0000       1.969054        53.5807 
 428   0.0000       1.975537        53.7571 
 429   0.0000       1.977484        53.8101 
 430   0.0000       1.986195        54.0471 
 431   0.0000       1.987735        54.0890 
 432   0.0000       1.990630        54.1678 
 433   0.0000       1.993069        54.2342 
 434   0.0000       1.995654        54.3045 
 435   0.0000       2.001119        54.4532 
 436   0.0000       2.004722        54.5513 
 437   0.0000       2.005917        54.5838 
 438   0.0000       2.013343        54.7858 
 439   0.0000       2.022554        55.0365 
 440   0.0000       2.026156        55.1345 
 441   0.0000       2.031578        55.2821 
 442   0.0000       2.035951        55.4010 
 443   0.0000       2.043746        55.6132 
[...]

 --------------
 Nucleus  47H :
 --------------

Diamagnetic contribution to the shielding tensor (ppm) : 
            32.840         -2.982        -5.311
            -4.950         35.750         8.266
            -6.878          8.714        48.390

Paramagnetic contribution to the shielding tensor (ppm): 
            -1.414          1.401         3.090
             3.248         -8.353        -5.899
             3.855         -5.649       -13.303

Total shielding tensor (ppm): 
            31.426         -1.581        -2.221
            -1.701         27.397         2.367
            -3.023          3.065        35.087


 Diagonalized sT*s matrix:
 
 sDSO            31.599           31.302           54.079  iso=      38.993
 sPSO            -5.209           -1.234          -16.627  iso=      -7.690
        ---------------  ---------------  ---------------
 Total           26.390           30.069           37.452  iso=      31.304

 --------------
 Nucleus  48H :
 --------------

Diamagnetic contribution to the shielding tensor (ppm) : 
            36.176         -0.033        -2.358
            -6.850         39.337        -0.055
            -3.756         -0.501        46.117

Paramagnetic contribution to the shielding tensor (ppm): 
            -3.969          1.349         2.698
             8.308        -11.074        -1.506
             3.118         -1.507       -16.689

Total shielding tensor (ppm): 
            32.207          1.316         0.341
             1.459         28.263        -1.560
            -0.638         -2.008        29.428


 Diagonalized sT*s matrix:
 
 sDSO            42.707           42.813           36.110  iso=      40.543
 sPSO           -15.944          -12.488           -3.300  iso=     -10.577
        ---------------  ---------------  ---------------
 Total           26.763           30.326           32.809  iso=      29.966

 --------------
 Nucleus  52H :
 --------------

Diamagnetic contribution to the shielding tensor (ppm) : 
            39.125          1.459         2.725
             5.416         37.787       -13.089
            10.172        -11.204        46.547

Paramagnetic contribution to the shielding tensor (ppm): 
            -6.727          2.487        -1.475
            -1.733        -12.331        14.290
            -7.868         13.629       -24.566

Total shielding tensor (ppm): 
            32.398          3.947         1.250
             3.683         25.457         1.202
             2.305          2.426        21.981


 Diagonalized sT*s matrix:
 
 sDSO            53.588           27.960           41.912  iso=      41.153
 sPSO           -32.380           -3.859           -7.383  iso=     -14.541
        ---------------  ---------------  ---------------
 Total           21.207           24.101           34.529  iso=      26.612

 --------------
 Nucleus  53H :
 --------------

Diamagnetic contribution to the shielding tensor (ppm) : 
            34.352          0.822         2.304
             4.582         40.069        -7.333
            -5.241         -5.912        55.454

Paramagnetic contribution to the shielding tensor (ppm): 
            -4.333          3.185        -2.738
            -1.403        -14.602         6.757
             5.645          5.205       -31.959

Total shielding tensor (ppm): 
            30.018          4.007        -0.434
             3.180         25.467        -0.576
             0.403         -0.707        23.495


 Diagonalized sT*s matrix:
 
 sDSO            40.994           50.406           38.474  iso=      43.292
 sPSO           -18.063          -26.365           -6.466  iso=     -16.965
        ---------------  ---------------  ---------------
 Total           22.931           24.041           32.008  iso=      26.327

 --------------
 Nucleus  57H :
 --------------

Diamagnetic contribution to the shielding tensor (ppm) : 
            31.291         -3.393        -2.614
            12.739         48.453         4.327
             1.324         -1.650        38.631

Paramagnetic contribution to the shielding tensor (ppm): 
            -1.871          0.759         3.304
           -14.592        -15.359        -3.075
            -0.400          2.906       -11.848

Total shielding tensor (ppm): 
            29.420         -2.635         0.691
            -1.854         33.095         1.251
             0.925          1.256        26.783


 Diagonalized sT*s matrix:
 
 sDSO            39.065           36.765           42.545  iso=      39.458
 sPSO           -13.044           -7.731           -8.302  iso=      -9.692
        ---------------  ---------------  ---------------
 Total           26.021           29.033           34.244  iso=      29.766

 --------------
 Nucleus  58H :
 --------------

Diamagnetic contribution to the shielding tensor (ppm) : 
            39.238          2.264        -7.248
            10.987         32.523        -5.849
            12.211         -4.960        45.747

Paramagnetic contribution to the shielding tensor (ppm): 
            -5.512          0.428         5.599
            -7.938         -6.574         6.370
           -14.023          5.083       -15.678

Total shielding tensor (ppm): 
            33.725          2.692        -1.649
             3.050         25.950         0.520
            -1.812          0.124        30.069


 Diagonalized sT*s matrix:
 
 sDSO            31.478           43.881           42.149  iso=      39.169
 sPSO            -6.617          -14.143           -7.004  iso=      -9.255
        ---------------  ---------------  ---------------
 Total           24.860           29.738           35.145  iso=      29.914

 --------------
 Nucleus  61H :
 --------------

Diamagnetic contribution to the shielding tensor (ppm) : 
            32.922         -5.254        -6.173
            -4.117         31.494         4.276
           -12.659          4.341        26.928

Paramagnetic contribution to the shielding tensor (ppm): 
            -2.338          2.984         3.072
             1.524          0.001        -2.868
             9.425         -2.735         4.752

Total shielding tensor (ppm): 
            30.585         -2.269        -3.101
            -2.594         31.495         1.408
            -3.234          1.607        31.680


 Diagonalized sT*s matrix:
 
 sDSO            22.501           26.051           42.791  iso=      30.448
 sPSO             5.130            4.059           -6.774  iso=       0.805
        ---------------  ---------------  ---------------
 Total           27.632           30.110           36.017  iso=      31.253

 --------------
 Nucleus  62H :
 --------------

Diamagnetic contribution to the shielding tensor (ppm) : 
            38.082          4.982         0.454
            12.627         33.534         1.300
            -2.261         -0.606        13.741

Paramagnetic contribution to the shielding tensor (ppm): 
            -4.075          0.857         0.121
            -7.326         -5.175        -1.757
             1.773         -0.346        16.038

Total shielding tensor (ppm): 
            34.007          5.839         0.575
             5.301         28.359        -0.457
            -0.488         -0.952        29.779


 Diagonalized sT*s matrix:
 
 sDSO            26.905           13.735           44.717  iso=      28.452
 sPSO            -2.046           16.109           -7.276  iso=       2.262
        ---------------  ---------------  ---------------
 Total           24.859           29.844           37.442  iso=      30.715

 --------------
 Nucleus  63H :
 --------------

Diamagnetic contribution to the shielding tensor (ppm) : 
            28.006         -0.926        -0.332
            10.648         28.223       -10.518
           -17.096        -11.237        35.843

Paramagnetic contribution to the shielding tensor (ppm): 
             1.048          1.405         0.156
           -10.476          1.035         5.666
            17.699          6.044        -1.445

Total shielding tensor (ppm): 
            29.054          0.479        -0.175
             0.172         29.258        -4.852
             0.604         -5.194        34.397


 Diagonalized sT*s matrix:
 
 sDSO            20.841           27.926           43.304  iso=      30.691
 sPSO             5.293            1.180           -5.835  iso=       0.213
        ---------------  ---------------  ---------------
 Total           26.134           29.107           37.469  iso=      30.903

 --------------
 Nucleus  64H :
 --------------

Diamagnetic contribution to the shielding tensor (ppm) : 
            25.519         -3.791        -2.417
            12.117         35.085        15.407
            14.603          6.237        27.896

Paramagnetic contribution to the shielding tensor (ppm): 
             2.707          2.799         2.660
           -14.108          0.107       -10.904
           -14.382         -1.364         1.377

Total shielding tensor (ppm): 
            28.225         -0.992         0.243
            -1.992         35.192         4.504
             0.221          4.874        29.273


 Diagonalized sT*s matrix:
 
 sDSO            18.869           29.113           40.518  iso=      29.500
 sPSO             7.363           -0.580           -2.593  iso=       1.397
        ---------------  ---------------  ---------------
 Total           26.232           28.533           37.925  iso=      30.897

 --------------
 Nucleus  65H :
 --------------

Diamagnetic contribution to the shielding tensor (ppm) : 
            38.154          6.416        -0.821
            10.696         21.265         4.291
             6.104         -4.505        18.268

Paramagnetic contribution to the shielding tensor (ppm): 
            -4.216         -2.456         0.536
            -6.287          7.310        -4.120
            -5.754          4.970        11.457

Total shielding tensor (ppm): 
            33.938          3.961        -0.285
             4.409         28.575         0.170
             0.350          0.465        29.725


 Diagonalized sT*s matrix:
 
 sDSO            18.133           17.979           41.574  iso=      25.896
 sPSO             8.133           11.761           -5.343  iso=       4.850
        ---------------  ---------------  ---------------
 Total           26.266           29.740           36.232  iso=      30.746

 --------------
 Nucleus  66H :
 --------------

Diamagnetic contribution to the shielding tensor (ppm) : 
            26.173          1.057         5.450
             8.629         10.377        -1.420
            20.704          0.140        36.462

Paramagnetic contribution to the shielding tensor (ppm): 
             1.982         -0.930        -0.913
            -7.691         17.696         1.720
           -16.845         -0.335        -0.485

Total shielding tensor (ppm): 
            28.154          0.127         4.536
             0.938         28.074         0.300
             3.859         -0.195        35.977


 Diagonalized sT*s matrix:
 
 sDSO            15.567           13.053           44.392  iso=      24.337
 sPSO            10.643           15.132           -6.582  iso=       6.398
        ---------------  ---------------  ---------------
 Total           26.211           28.184           37.809  iso=      30.735

 --------------
 Nucleus  67H :
 --------------

Diamagnetic contribution to the shielding tensor (ppm) : 
            34.169         -1.241         3.636
           -11.672         33.181       -10.531
             6.593         -0.202        27.508

Paramagnetic contribution to the shielding tensor (ppm): 
            -3.406          1.583        -0.065
            13.197          0.916        13.535
            -3.493          3.400        -0.284

Total shielding tensor (ppm): 
            30.763          0.342         3.571
             1.525         34.097         3.004
             3.100          3.198        27.224


 Diagonalized sT*s matrix:
 
 sDSO            26.047           42.674           26.137  iso=      31.619
 sPSO            -1.372          -11.467           10.066  iso=      -0.925
        ---------------  ---------------  ---------------
 Total           24.675           31.207           36.203  iso=      30.695

 --------------
 Nucleus  68H :
 --------------

Diamagnetic contribution to the shielding tensor (ppm) : 
            29.819         -3.849         3.536
           -15.732         21.574       -16.692
             9.995        -10.938        30.390

Paramagnetic contribution to the shielding tensor (ppm): 
            -1.286          2.045        -0.729
            13.685         10.599        11.869
            -8.040          6.616         1.981

Total shielding tensor (ppm): 
            28.533         -1.803         2.807
            -2.047         32.173        -4.823
             1.955         -4.322        32.371


 Diagonalized sT*s matrix:
 
 sDSO            23.079           12.833           45.871  iso=      27.261
 sPSO             4.251           15.070           -8.027  iso=       3.765
        ---------------  ---------------  ---------------
 Total           27.330           27.903           37.844  iso=      31.026

 --------------
 Nucleus  69H :
 --------------

Diamagnetic contribution to the shielding tensor (ppm) : 
            42.401         -3.509        -3.832
           -10.172         18.755        -5.935
             3.909         -0.524        18.807

Paramagnetic contribution to the shielding tensor (ppm): 
            -6.537          1.785         1.763
             7.513         10.456         5.401
            -6.183         -0.191        10.036

Total shielding tensor (ppm): 
            35.864         -1.724        -2.069
            -2.659         29.211        -0.535
            -2.275         -0.715        28.843


 Diagonalized sT*s matrix:
 
 sDSO            15.771           21.691           42.501  iso=      26.654
 sPSO            11.508            7.972           -5.526  iso=       4.651
        ---------------  ---------------  ---------------
 Total           27.280           29.663           36.975  iso=      31.306

 --------------
 Nucleus  70H :
 --------------

Diamagnetic contribution to the shielding tensor (ppm) : 
            30.625          1.115         4.472
            -8.181         39.068        10.169
            -2.521          8.937        38.679

Paramagnetic contribution to the shielding tensor (ppm): 
             1.696         -0.567        -3.868
             9.987         -8.685        -4.900
             3.464         -4.348       -10.800

Total shielding tensor (ppm): 
            32.320          0.548         0.604
             1.807         30.382         5.268
             0.943          4.589        27.879


 Diagonalized sT*s matrix:
 
 sDSO            29.589           36.428           42.354  iso=      36.124
 sPSO            -5.545           -4.853           -7.393  iso=      -5.930
        ---------------  ---------------  ---------------
 Total           24.044           31.575           34.961  iso=      30.194

 --------------
 Nucleus  71H :
 --------------

Diamagnetic contribution to the shielding tensor (ppm) : 
            27.296         -6.426         0.417
           -13.522         40.807        -2.811
            -2.611         -6.537        36.265

Paramagnetic contribution to the shielding tensor (ppm): 
             3.435          4.299         0.498
            11.968         -7.573        -0.613
             3.085          4.327        -7.514

Total shielding tensor (ppm): 
            30.731         -2.127         0.914
            -1.555         33.234        -3.424
             0.474         -2.210        28.751


 Diagonalized sT*s matrix:
 
 sDSO            32.699           24.437           47.232  iso=      34.789
 sPSO            -5.317            5.484          -11.819  iso=      -3.884
        ---------------  ---------------  ---------------
 Total           27.382           29.921           35.413  iso=      30.905

 --------------
 Nucleus  72H :
 --------------

Diamagnetic contribution to the shielding tensor (ppm) : 
            35.153         -7.870        -7.824
           -15.505         26.951         2.181
           -14.604          3.979        32.873

Paramagnetic contribution to the shielding tensor (ppm): 
            -0.609          6.439         3.571
            13.799          2.559         0.592
            10.606         -1.269        -4.136

Total shielding tensor (ppm): 
            34.544         -1.431        -4.253
            -1.706         29.510         2.772
            -3.998          2.710        28.737


 Diagonalized sT*s matrix:
 
 sDSO            27.060           18.272           49.645  iso=      31.659
 sPSO            -1.381           11.252          -12.058  iso=      -0.729
        ---------------  ---------------  ---------------
 Total           25.679           29.524           37.588  iso=      30.930



--------------------------------
CHEMICAL SHIELDING SUMMARY (ppm)
--------------------------------


  Nucleus  Element    Isotropic     Anisotropy
  -------  -------  ------------   ------------
      3       H           29.369          6.446 
      4       H           29.050          7.400 
      8       H           29.572          7.936 
      9       H           29.338          5.451 
     10       H           30.106          8.322 
     11       H           29.859         10.231 
     13       H           27.735          7.772 
     16       H           26.790          4.731 
     17       H           26.510          4.835 
     19       H           25.406         10.413 
     21       H           25.605         14.596 
     24       H           28.909         10.097 
     25       H           30.045          9.569 
     27       H           30.242          7.020 
     28       H           30.110         11.794 
     30       H           29.753          8.095 
     31       H           30.421          6.985 
     33       H           29.762          4.333 
     35       H           30.165         14.716 
     37       H           30.405         10.698 
     38       H           30.250          9.904 
     40       H           30.122          9.543 
     41       H           30.586          8.408 
     42       H           30.525          5.478 
     45       H           31.262          7.265 
     46       H           31.019          8.072 
     47       H           31.304          9.222 
     48       H           29.966          4.265 
     52       H           26.612         11.875 
     53       H           26.327          8.521 
     57       H           29.766          6.717 
     58       H           29.914          7.846 
     61       H           31.253          7.146 
     62       H           30.715         10.090 
     63       H           30.903          9.849 
     64       H           30.897         10.542 
     65       H           30.746          8.229 
     66       H           30.735         10.612 
     67       H           30.695          8.262 
     68       H           31.026         10.227 
     69       H           31.306          8.503 
     70       H           30.194          7.151 
     71       H           30.905          6.761 
     72       H           30.930          9.986 



Maximum memory used throughout the entire EPRNMR-calculation: 140.6 MB

Timings for individual modules:

Sum of individual times         ...      141.867 sec (=   2.364 min)
GTO integral calculation        ...        0.876 sec (=   0.015 min)   0.6 %
SCF iterations                  ...       95.198 sec (=   1.587 min)  67.1 %
EPR/NMR calculation             ...       45.793 sec (=   0.763 min)  32.3 %
                             ****ORCA TERMINATED NORMALLY****
TOTAL RUN TIME: 0 days 0 hours 2 minutes 22 seconds 393 msec
