
                                 *****************
                                 * O   R   C   A *
                                 *****************

                                            #,                                       
                                            ###                                      
                                            ####                                     
                                            #####                                    
                                            ######                                   
                                           ########,                                 
                                     ,,################,,,,,                         
                               ,,#################################,,                 
                          ,,##########################################,,             
                       ,#########################################, ''#####,          
                    ,#############################################,,   '####,        
                  ,##################################################,,,,####,       
                ,###########''''           ''''###############################       
              ,#####''   ,,,,##########,,,,          '''####'''          '####       
            ,##' ,,,,###########################,,,                        '##       
           ' ,,###''''                  '''############,,,                           
         ,,##''                                '''############,,,,        ,,,,,,###''
      ,#''                                            '''#######################'''  
     '                                                          ''''####''''         
             ,#######,   #######,   ,#######,      ##                                
            ,#'     '#,  ##    ##  ,#'     '#,    #''#        ######   ,####,        
            ##       ##  ##   ,#'  ##            #'  '#       #        #'  '#        
            ##       ##  #######   ##           ,######,      #####,   #    #        
            '#,     ,#'  ##    ##  '#,     ,#' ,#      #,         ##   #,  ,#        
             '#######'   ##     ##  '#######'  #'      '#     #####' # '####'        



                  #######################################################
                  #                        -***-                        #
                  #          Department of theory and spectroscopy      #
                  #    Directorship and core code : Frank Neese         #
                  #        Max Planck Institute fuer Kohlenforschung    #
                  #                Kaiser Wilhelm Platz 1               #
                  #                 D-45470 Muelheim/Ruhr               #
                  #                      Germany                        #
                  #                                                     #
                  #                  All rights reserved                #
                  #                        -***-                        #
                  #######################################################


                         Program Version 5.0.2 -  RELEASE  -


 With contributions from (in alphabetic order):
   Daniel Aravena         : Magnetic Suceptibility
   Michael Atanasov       : Ab Initio Ligand Field Theory (pilot matlab implementation)
   Alexander A. Auer      : GIAO ZORA, VPT2 properties, NMR spectrum
   Ute Becker             : Parallelization
   Giovanni Bistoni       : ED, misc. LED, open-shell LED, HFLD
   Martin Brehm           : Molecular dynamics
   Dmytro Bykov           : SCF Hessian
   Vijay G. Chilkuri      : MRCI spin determinant printing, contributions to CSF-ICE
   Dipayan Datta          : RHF DLPNO-CCSD density
   Achintya Kumar Dutta   : EOM-CC, STEOM-CC
   Dmitry Ganyushin       : Spin-Orbit,Spin-Spin,Magnetic field MRCI
   Miquel Garcia          : C-PCM and meta-GGA Hessian, CC/C-PCM, Gaussian charge scheme
   Yang Guo               : DLPNO-NEVPT2, F12-NEVPT2, CIM, IAO-localization
   Andreas Hansen         : Spin unrestricted coupled pair/coupled cluster methods
   Benjamin Helmich-Paris : MC-RPA, TRAH-SCF, COSX integrals
   Lee Huntington         : MR-EOM, pCC
   Robert Izsak           : Overlap fitted RIJCOSX, COSX-SCS-MP3, EOM
   Marcus Kettner         : VPT2
   Christian Kollmar      : KDIIS, OOCD, Brueckner-CCSD(T), CCSD density, CASPT2, CASPT2-K
   Simone Kossmann        : Meta GGA functionals, TD-DFT gradient, OOMP2, MP2 Hessian
   Martin Krupicka        : Initial AUTO-CI
   Lucas Lang             : DCDCAS
   Marvin Lechner         : AUTO-CI (C++ implementation), FIC-MRCC
   Dagmar Lenk            : GEPOL surface, SMD
   Dimitrios Liakos       : Extrapolation schemes; Compound Job, initial MDCI parallelization
   Dimitrios Manganas     : Further ROCIS development; embedding schemes
   Dimitrios Pantazis     : SARC Basis sets
   Anastasios Papadopoulos: AUTO-CI, single reference methods and gradients
   Taras Petrenko         : DFT Hessian,TD-DFT gradient, ASA, ECA, R-Raman, ABS, FL, XAS/XES, NRVS
   Peter Pinski           : DLPNO-MP2, DLPNO-MP2 Gradient
   Christoph Reimann      : Effective Core Potentials
   Marius Retegan         : Local ZFS, SOC
   Christoph Riplinger    : Optimizer, TS searches, QM/MM, DLPNO-CCSD(T), (RO)-DLPNO pert. Triples
   Tobias Risthaus        : Range-separated hybrids, TD-DFT gradient, RPA, STAB
   Michael Roemelt        : Original ROCIS implementation
   Masaaki Saitow         : Open-shell DLPNO-CCSD energy and density
   Barbara Sandhoefer     : DKH picture change effects
   Avijit Sen             : IP-ROCIS
   Kantharuban Sivalingam : CASSCF convergence, NEVPT2, FIC-MRCI
   Bernardo de Souza      : ESD, SOC TD-DFT
   Georgi Stoychev        : AutoAux, RI-MP2 NMR, DLPNO-MP2 response
   Willem Van den Heuvel  : Paramagnetic NMR
   Boris Wezisla          : Elementary symmetry handling
   Frank Wennmohs         : Technical directorship


 We gratefully acknowledge several colleagues who have allowed us to
 interface, adapt or use parts of their codes:
   Stefan Grimme, W. Hujo, H. Kruse, P. Pracht,  : VdW corrections, initial TS optimization,
                  C. Bannwarth, S. Ehlert          DFT functionals, gCP, sTDA/sTD-DF
   Ed Valeev, F. Pavosevic, A. Kumar             : LibInt (2-el integral package), F12 methods
   Garnet Chan, S. Sharma, J. Yang, R. Olivares  : DMRG
   Ulf Ekstrom                                   : XCFun DFT Library
   Mihaly Kallay                                 : mrcc  (arbitrary order and MRCC methods)
   Jiri Pittner, Ondrej Demel                    : Mk-CCSD
   Frank Weinhold                                : gennbo (NPA and NBO analysis)
   Christopher J. Cramer and Donald G. Truhlar   : smd solvation model
   Lars Goerigk                                  : TD-DFT with DH, B97 family of functionals
   V. Asgeirsson, H. Jonsson                     : NEB implementation
   FAccTs GmbH                                   : IRC, NEB, NEB-TS, DLPNO-Multilevel, CI-OPT
                                                   MM, QMMM, 2- and 3-layer-ONIOM, Crystal-QMMM,
                                                   LR-CPCM, SF, NACMEs, symmetry and pop. for TD-DFT,
                                                   nearIR, NL-DFT gradient (VV10), updates on ESD,
                                                   ML-optimized integration grids
   S Lehtola, MJT Oliveira, MAL Marques          : LibXC Library
   Liviu Ungur et al                             : ANISO software


 Your calculation uses the libint2 library for the computation of 2-el integrals
 For citations please refer to: http://libint.valeyev.net

 Your ORCA version has been built with support for libXC version: 5.1.0
 For citations please refer to: https://tddft.org/programs/libxc/

 This ORCA versions uses:
   CBLAS   interface :  Fast vector & matrix operations
   LAPACKE interface :  Fast linear algebra routines
   SCALAPACK package :  Parallel linear algebra routines
   Shared memory     :  Shared parallel matrices
   BLAS/LAPACK       :  OpenBLAS 0.3.15  USE64BITINT DYNAMIC_ARCH NO_AFFINITY Zen SINGLE_THREADED
        Core in use  :  Zen
   Copyright (c) 2011-2014, The OpenBLAS Project


Your calculation utilizes the atom-pairwise dispersion correction
based on tight binding partial charges (D4)
Cite in your paper:
E.Caldeweyher, C.Bannwarth, S.Grimme, J.Chem.Phys., (2017), 147, 034112.
E.Caldeweyher, S.Ehlert, A.Hansen, H.Neugebauer, S.Grimme, J.Chem.Phys., (2018), in progress.
   

================================================================================

----- Orbital basis set information -----
Your calculation utilizes the basis: pcJ-0
   F. Jensen, Theor. Chem. Acc. 126, 371 (2010).

----- AuxJ basis set information -----
Your calculation utilizes the auxiliary basis: def2/J
   F. Weigend, Phys. Chem. Chem. Phys. 8, 1057 (2006).

================================================================================
                                        WARNINGS
                       Please study these warnings very carefully!
================================================================================


INFO   : the flag for use of the SHARK integral package has been found!

================================================================================
                                       INPUT FILE
================================================================================
NAME = inpJ
|  1> ! pbe0
|  2> ! D4
|  3> ! pcJ-0
|  4> ! def2/J RIJCOSX
|  5> ! DEFGRID2
|  6> ! scfconv7
|  7> ! smallprint printgap noloewdin
|  8> ! NOSOSCF
|  9> %MaxCore 4000
| 10> %output
| 11>        print[P_BondOrder_M] 1
| 12>        print[P_Mayer] 1
| 13>        print[P_basis] 2
| 14> end
| 15> %pal
| 16>     nprocs 4
| 17> end
| 18> ! CPCM(chloroform)
| 19> *xyz 0 1
| 20> C   -5.0507508800   0.2641967600   0.3215146500
| 21> C   -6.4574780800  -0.1556776200  -0.0345912800
| 22> C   -7.0122567200   0.6533996600  -1.2133751400
| 23> H   -7.1219674100   0.0264256400   0.8271947800
| 24> H   -6.4950596900  -1.2260101000  -0.2653043200
| 25> C   -4.8787914000   1.7224169100   0.4945906300
| 26> C   -5.4747088600   2.5575705200  -0.6161056200
| 27> C   -6.9219875700   2.1468349700  -0.9198613200
| 28> H   -4.8732985000   2.4058725500  -1.5252678300
| 29> H   -5.4201864800   3.6211499200  -0.3611102900
| 30> H   -7.3071129400   2.7153106500  -1.7745746800
| 31> H   -7.5600318400   2.3742281400  -0.0524886600
| 32> O   -8.3510522500   0.2525928200  -1.5332664300
| 33> H   -6.4254486200   0.4228409000  -2.1135445600
| 34> C   -4.0559625000  -0.6493796500   0.4184033300
| 35> C   -4.2896870300   2.2729140300   1.5622629400
| 36> H   -3.8905953400   1.6615718100   2.3669015600
| 37> H   -4.2036623100   3.3526616500   1.6587362800
| 38> C   -2.6586476800  -0.3741089200   0.6610896200
| 39> H   -4.3404058800  -1.6884395300   0.2579656100
| 40> C   -1.6804308100  -1.2880700400   0.8381323700
| 41> H   -2.3796533400   0.6766351200   0.6939071900
| 42> C   -1.8685117000  -2.7837790600   0.8721175900
| 43> C   -0.9162256700  -3.5023418800  -0.1022303800
| 44> H   -2.9017415600  -3.0774088300   0.6678289500
| 45> H   -1.6369140500  -3.1273711000   1.8930981900
| 46> C    0.5456553500  -3.0686277500   0.0723530200
| 47> H   -1.2414512800  -3.3047764600  -1.1315338000
| 48> H   -0.9982349400  -4.5858437500   0.0479430300
| 49> C    0.7030921000  -1.5447496000  -0.0210328300
| 50> H    1.1601819100  -3.5798523700  -0.6758769700
| 51> H    0.9042012000  -3.3954408100   1.0602237800
| 52> C   -0.2453298000  -0.9102848600   1.0445590000
| 53> H    0.0624871000  -1.3756554100   1.9994584100
| 54> C    0.1838109500   0.5527333700   1.1011693900
| 55> H   -8.9049781900   0.4472804600  -0.7654123100
| 56> C    1.7187187800   0.4859955600   0.9076530100
| 57> H   -0.1068556500   1.0319793400   2.0420042300
| 58> H   -0.2811100000   1.1244591000   0.2901689700
| 59> C    2.0628532700  -0.9673101400   0.4614818800
| 60> H    2.2544987800   0.7432523300   1.8267273800
| 61> H    2.0508212900   1.2016107000   0.1463221800
| 62> H    2.3477538100  -1.5487223100   1.3539142700
| 63> C    3.2680025600  -0.9935737600  -0.4999002600
| 64> C    0.3634264100  -1.0396801600  -1.4301592300
| 65> H   -0.6985463600  -1.1730200400  -1.6586263300
| 66> H    0.9420020000  -1.5833522100  -2.1851514200
| 67> H    0.5900528900   0.0253093800  -1.5425601700
| 68> H    3.0221804800  -0.3826300800  -1.3813402000
| 69> C    3.6429383000  -2.4068740200  -0.9719600900
| 70> C    4.4626228800  -0.3722673900   0.1758739200
| 71> C    5.1175438400   0.6991743900  -0.2688983900
| 72> H    4.7902270200  -0.8801392000   1.0861217100
| 73> H    4.7569299600   1.1691878300  -1.1881417000
| 74> C    6.3742835500   1.3215500700   0.2949958800
| 75> C    7.5282710900   1.0084856200  -0.6768566300
| 76> C    6.6912917300   0.9289217700   1.7512468700
| 77> H    6.2292979600   2.4156258200   0.2824762400
| 78> H    6.6989967100  -0.1701024100   1.8126653100
| 79> C    5.6261162700   1.4709394200   2.7108537300
| 80> C    8.0703269900   1.4286180600   2.1958045200
| 81> H    7.2236726200   1.2076294800  -1.7099838900
| 82> H    7.8046636300  -0.0507604800  -0.6076135500
| 83> H    8.4146578400   1.6143300400  -0.4670101700
| 84> H    5.8162931400   1.1323995100   3.7354173100
| 85> H    4.6187009700   1.1557421200   2.4270806600
| 86> H    5.6478462800   2.5683568500   2.7122147400
| 87> H    8.1549011400   2.5130287100   2.0465806700
| 88> H    8.8848336900   0.9459658900   1.6483627800
| 89> H    8.2197778100   1.2260698600   3.2620502900
| 90> H    4.5750186100  -2.3778800700  -1.5464762700
| 91> H    2.8682408500  -2.8393488400  -1.6101118300
| 92> H    3.7926363500  -3.0756172400  -0.1154035600
| 93> *
| 94> %eprnmr
| 95>  Nuclei = all H { ssfc }
| 96>  SpinSpinRThresh 8.0
| 97> end
| 98> 
| 99>                          ****END OF INPUT****
================================================================================

                       ****************************
                       * Single Point Calculation *
                       ****************************

---------------------------------
CARTESIAN COORDINATES (ANGSTROEM)
---------------------------------
  C     -5.050751    0.264197    0.321515
  C     -6.457478   -0.155678   -0.034591
  C     -7.012257    0.653400   -1.213375
  H     -7.121967    0.026426    0.827195
  H     -6.495060   -1.226010   -0.265304
  C     -4.878791    1.722417    0.494591
  C     -5.474709    2.557571   -0.616106
  C     -6.921988    2.146835   -0.919861
  H     -4.873298    2.405873   -1.525268
  H     -5.420186    3.621150   -0.361110
  H     -7.307113    2.715311   -1.774575
  H     -7.560032    2.374228   -0.052489
  O     -8.351052    0.252593   -1.533266
  H     -6.425449    0.422841   -2.113545
  C     -4.055962   -0.649380    0.418403
  C     -4.289687    2.272914    1.562263
  H     -3.890595    1.661572    2.366902
  H     -4.203662    3.352662    1.658736
  C     -2.658648   -0.374109    0.661090
  H     -4.340406   -1.688440    0.257966
  C     -1.680431   -1.288070    0.838132
  H     -2.379653    0.676635    0.693907
  C     -1.868512   -2.783779    0.872118
  C     -0.916226   -3.502342   -0.102230
  H     -2.901742   -3.077409    0.667829
  H     -1.636914   -3.127371    1.893098
  C      0.545655   -3.068628    0.072353
  H     -1.241451   -3.304776   -1.131534
  H     -0.998235   -4.585844    0.047943
  C      0.703092   -1.544750   -0.021033
  H      1.160182   -3.579852   -0.675877
  H      0.904201   -3.395441    1.060224
  C     -0.245330   -0.910285    1.044559
  H      0.062487   -1.375655    1.999458
  C      0.183811    0.552733    1.101169
  H     -8.904978    0.447280   -0.765412
  C      1.718719    0.485996    0.907653
  H     -0.106856    1.031979    2.042004
  H     -0.281110    1.124459    0.290169
  C      2.062853   -0.967310    0.461482
  H      2.254499    0.743252    1.826727
  H      2.050821    1.201611    0.146322
  H      2.347754   -1.548722    1.353914
  C      3.268003   -0.993574   -0.499900
  C      0.363426   -1.039680   -1.430159
  H     -0.698546   -1.173020   -1.658626
  H      0.942002   -1.583352   -2.185151
  H      0.590053    0.025309   -1.542560
  H      3.022180   -0.382630   -1.381340
  C      3.642938   -2.406874   -0.971960
  C      4.462623   -0.372267    0.175874
  C      5.117544    0.699174   -0.268898
  H      4.790227   -0.880139    1.086122
  H      4.756930    1.169188   -1.188142
  C      6.374284    1.321550    0.294996
  C      7.528271    1.008486   -0.676857
  C      6.691292    0.928922    1.751247
  H      6.229298    2.415626    0.282476
  H      6.698997   -0.170102    1.812665
  C      5.626116    1.470939    2.710854
  C      8.070327    1.428618    2.195805
  H      7.223673    1.207629   -1.709984
  H      7.804664   -0.050760   -0.607614
  H      8.414658    1.614330   -0.467010
  H      5.816293    1.132400    3.735417
  H      4.618701    1.155742    2.427081
  H      5.647846    2.568357    2.712215
  H      8.154901    2.513029    2.046581
  H      8.884834    0.945966    1.648363
  H      8.219778    1.226070    3.262050
  H      4.575019   -2.377880   -1.546476
  H      2.868241   -2.839349   -1.610112
  H      3.792636   -3.075617   -0.115404

----------------------------
CARTESIAN COORDINATES (A.U.)
----------------------------
  NO LB      ZA    FRAG     MASS         X           Y           Z
   0 C     6.0000    0    12.011   -9.544536    0.499260    0.607575
   1 C     6.0000    0    12.011  -12.202865   -0.294188   -0.065368
   2 C     6.0000    0    12.011  -13.251245    1.234746   -2.292947
   3 H     1.0000    0     1.008  -13.458568    0.049937    1.563172
   4 H     1.0000    0     1.008  -12.273884   -2.316823   -0.501353
   5 C     6.0000    0    12.011   -9.219580    3.254896    0.934641
   6 C     6.0000    0    12.011  -10.345700    4.833108   -1.164271
   7 C     6.0000    0    12.011  -13.080661    4.056930   -1.738286
   8 H     1.0000    0     1.008   -9.209200    4.546440   -2.882338
   9 H     1.0000    0     1.008  -10.242668    6.842982   -0.682400
  10 H     1.0000    0     1.008  -13.808442    5.131193   -3.353460
  11 H     1.0000    0     1.008  -14.286390    4.486641   -0.099189
  12 O     8.0000    0    15.999  -15.781202    0.477331   -2.897454
  13 H     1.0000    0     1.008  -12.142338    0.799053   -3.994020
  14 C     6.0000    0    12.011   -7.664658   -1.227150    0.790668
  15 C     6.0000    0    12.011   -8.106334    4.295185    2.952249
  16 H     1.0000    0     1.008   -7.352160    3.139916    4.472796
  17 H     1.0000    0     1.008   -7.943771    6.335612    3.134557
  18 C     6.0000    0    12.011   -5.024116   -0.706963    1.249278
  19 H     1.0000    0     1.008   -8.202178   -3.190688    0.487484
  20 C     6.0000    0    12.011   -3.175554   -2.434100    1.583841
  21 H     1.0000    0     1.008   -4.496893    1.278655    1.311295
  22 C     6.0000    0    12.011   -3.530975   -5.260580    1.648063
  23 C     6.0000    0    12.011   -1.731416   -6.618467   -0.193187
  24 H     1.0000    0     1.008   -5.483497   -5.815460    1.262014
  25 H     1.0000    0     1.008   -3.093319   -5.909875    3.577437
  26 C     6.0000    0    12.011    1.031139   -5.798866    0.136727
  27 H     1.0000    0     1.008   -2.346003   -6.245122   -2.138289
  28 H     1.0000    0     1.008   -1.886391   -8.665989    0.090599
  29 C     6.0000    0    12.011    1.328652   -2.919154   -0.039746
  30 H     1.0000    0     1.008    2.192426   -6.764941   -1.277222
  31 H     1.0000    0     1.008    1.708693   -6.416453    2.003533
  32 C     6.0000    0    12.011   -0.463606   -1.720189    1.973930
  33 H     1.0000    0     1.008    0.118084   -2.599612    3.778429
  34 C     6.0000    0    12.011    0.347352    1.044515    2.080909
  35 H     1.0000    0     1.008  -16.827970    0.845238   -1.446420
  36 C     6.0000    0    12.011    3.247908    0.918399    1.715216
  37 H     1.0000    0     1.008   -0.201928    1.950158    3.858829
  38 H     1.0000    0     1.008   -0.531221    2.124920    0.548340
  39 C     6.0000    0    12.011    3.898228   -1.827951    0.872074
  40 H     1.0000    0     1.008    4.260385    1.404543    3.452014
  41 H     1.0000    0     1.008    3.875491    2.270715    0.276509
  42 H     1.0000    0     1.008    4.436612   -2.926661    2.558527
  43 C     6.0000    0    12.011    6.175630   -1.877582   -0.944675
  44 C     6.0000    0    12.011    0.686776   -1.964711   -2.702609
  45 H     1.0000    0     1.008   -1.320061   -2.216687   -3.134350
  46 H     1.0000    0     1.008    1.780126   -2.992102   -4.129338
  47 H     1.0000    0     1.008    1.115038    0.047828   -2.915016
  48 H     1.0000    0     1.008    5.711093   -0.723066   -2.610355
  49 C     6.0000    0    12.011    6.884156   -4.548333   -1.836738
  50 C     6.0000    0    12.011    8.433135   -0.703483    0.332354
  51 C     6.0000    0    12.011    9.670756    1.321248   -0.508144
  52 H     1.0000    0     1.008    9.052217   -1.663222    2.052473
  53 H     1.0000    0     1.008    8.989295    2.209445   -2.245262
  54 C     6.0000    0    12.011   12.045650    2.497368    0.557461
  55 C     6.0000    0    12.011   14.226371    1.905762   -1.279074
  56 C     6.0000    0    12.011   12.644709    1.755408    3.309377
  57 H     1.0000    0     1.008   11.771667    4.564871    0.533803
  58 H     1.0000    0     1.008   12.659269   -0.321447    3.425441
  59 C     6.0000    0    12.011   10.631819    2.779673    5.122771
  60 C     6.0000    0    12.011   15.250708    2.699697    4.149469
  61 H     1.0000    0     1.008   13.650763    2.282089   -3.231401
  62 H     1.0000    0     1.008   14.748677   -0.095923   -1.148223
  63 H     1.0000    0     1.008   15.901399    3.050642   -0.882521
  64 H     1.0000    0     1.008   10.991201    2.139925    7.058916
  65 H     1.0000    0     1.008    8.728080    2.184036    4.586518
  66 H     1.0000    0     1.008   10.672883    4.853491    5.125343
  67 H     1.0000    0     1.008   15.410530    4.748936    3.867477
  68 H     1.0000    0     1.008   16.789902    1.787616    3.114954
  69 H     1.0000    0     1.008   15.533129    2.316936    6.164382
  70 H     1.0000    0     1.008    8.645532   -4.493542   -2.922417
  71 H     1.0000    0     1.008    5.420190   -5.365592   -3.042670
  72 H     1.0000    0     1.008    7.167044   -5.812074   -0.218081

--------------------------------
INTERNAL COORDINATES (ANGSTROEM)
--------------------------------
 C      0   0   0     0.000000000000     0.00000000     0.00000000
 C      1   0   0     1.510624818935     0.00000000     0.00000000
 C      2   1   0     1.533596026667   111.80372424     0.00000000
 H      2   1   3     1.103350751211   109.31905206   241.48347658
 H      2   1   3     1.095560359806   110.67914691   122.93793640
 C      1   2   3     1.478489554742   114.20739729    50.32969043
 C      6   1   2     1.512033508621   114.38941107   312.01333785
 C      3   2   1     1.524679608025   110.32654976   305.19365822
 H      7   6   1     1.100582854359   108.37981658   290.26039237
 H      7   6   1     1.095078284118   110.22934944   172.98620608
 H      8   3   2     1.096367218195   109.69472657   179.15934040
 H      8   3   2     1.100519638879   108.65018052   296.62316725
 O      3   2   1     1.433649201010   111.21264470   180.48452348
 H      3   2   1     1.099002307887   109.01063674    65.29964947
 C      1   2   3     1.354109742304   120.89464513   232.41291917
 C      6   1   2     1.337914496305   123.39773175   129.74049009
 H     16   6   1     1.086488286074   121.41387717     0.68023339
 H     16   6   1     1.087456794856   120.94194805   181.34494873
 C     15   1   2     1.444700424427   126.44258591   175.55308290
 H     15   1   2     1.089171121840   116.18254965   358.08349813
 C     19  15   1     1.350398944369   126.41978293   175.69309093
 H     19  15   1     1.087647862246   115.92791820   355.16177036
 C     21  19  15     1.507870978854   125.72877242   357.36027793
 C     23  21  19     1.540303598601   111.80025203   127.97566475
 H     23  21  19     1.093396649830   112.33617298     3.84298487
 H     23  21  19     1.101859495132   107.69686911   246.58918015
 C     24  23  21     1.534823581638   112.64890684    50.97413485
 H     24  23  21     1.097392055285   109.03281866   288.86902603
 H     24  23  21     1.096929293861   109.14586925   172.90100798
 C     27  24  23     1.534832845387   111.79862023   306.04988509
 H     27  24  23     1.094916262997   108.96006875   182.51766137
 H     27  24  23     1.100568281027   109.17699353    66.01392153
 C     21  19  15     1.498281850889   122.76897606   178.10883695
 H     33  21  19     1.105962872773   106.22716353   123.73336634
 C     33  21  19     1.525709297631   121.08499376     1.59291203
 H     13   3   2     0.966611180245   107.55285812    62.80985641
 C     35  33  21     1.548497520569   103.46433329   195.86910080
 H     35  33  21     1.095141072317   112.13883134    73.89198005
 H     35  33  21     1.095784413712   110.70224266   314.28195356
 C     30  27  24     1.554093695622   116.08898625   166.36173693
 H     37  35  33     1.094503975188   111.72502921   250.06401443
 H     37  35  33     1.096367519792   111.03285829   131.52433912
 H     40  30  27     1.102562469812   106.34737960   321.03557388
 C     40  30  27     1.541859334711   118.94453579    81.83434985
 C     30  27  24     1.534960954344   111.09117245   294.25270894
 H     45  30  27     1.094423548542   111.48623117    66.97247129
 H     45  30  27     1.095601304424   110.63898919   306.83344895
 H     45  30  27     1.094621511327   111.62861817   187.01144354
 H     44  40  30     1.100280438331   108.38616116    61.94621850
 C     44  40  30     1.536500867929   113.45090585   301.23121873
 C     44  40  30     1.506588881120   109.45512714   179.40282423
 C     51  44  40     1.332190436657   124.87135399   239.87137265
 H     51  44  40     1.092615800333   114.81805615    60.84171966
 H     52  51  44     1.093601054868   117.65785867     0.57307591
 C     52  51  44     1.511529997547   127.97746385   184.64199951
 C     55  52  51     1.540841943070   107.68178125   107.70954917
 C     55  52  51     1.541206707104   114.74741714   340.99299553
 H     55  52  51     1.103711606096   107.13995257   222.52716839
 H     57  55  52     1.100765978632   107.96951399    53.51908063
 C     57  55  52     1.532718897664   111.01033370   294.28903593
 C     57  55  52     1.532666348145   112.09104179   171.90780245
 H     56  55  52     1.095349460335   110.46859764    46.49980569
 H     56  55  52     1.096900059559   110.18794181   287.53254399
 H     56  55  52     1.093967306913   111.92020328   166.61671339
 H     60  57  55     1.095676522523   110.82766699   176.09213081
 H     60  57  55     1.093051727897   112.08586449    54.99421153
 H     60  57  55     1.097633391142   109.91221607   295.04580125
 H     61  57  55     1.097892072150   110.60448818    55.07389298
 H     61  57  55     1.093648362247   112.39760160   294.16165606
 H     61  57  55     1.095555276088   110.16712511   174.05420547
 H     50  44  40     1.095300504203   110.14872489   187.09301693
 H     50  44  40     1.092899012826   111.74066367    67.16952618
 H     50  44  40     1.096957651669   110.74153058   306.53669619

---------------------------
INTERNAL COORDINATES (A.U.)
---------------------------
 C      0   0   0     0.000000000000     0.00000000     0.00000000
 C      1   0   0     2.854667198891     0.00000000     0.00000000
 C      2   1   0     2.898076490471   111.80372424     0.00000000
 H      2   1   3     2.085030749444   109.31905206   241.48347658
 H      2   1   3     2.070309043214   110.67914691   122.93793640
 C      1   2   3     2.793940350325   114.20739729    50.32969043
 C      6   1   2     2.857329236606   114.38941107   312.01333785
 C      3   2   1     2.881226901142   110.32654976   305.19365822
 H      7   6   1     2.079800182428   108.37981658   290.26039237
 H      7   6   1     2.069398052188   110.22934944   172.98620608
 H      8   3   2     2.071833784597   109.69472657   179.15934040
 H      8   3   2     2.079680722483   108.65018052   296.62316725
 O      3   2   1     2.709204362024   111.21264470   180.48452348
 H      3   2   1     2.076813382454   109.01063674    65.29964947
 C      1   2   3     2.558896568230   120.89464513   232.41291917
 C      6   1   2     2.528291988619   123.39773175   129.74049009
 H     16   6   1     2.053165308394   121.41387717     0.68023339
 H     16   6   1     2.054995524749   120.94194805   181.34494873
 C     15   1   2     2.730088147727   126.44258591   175.55308290
 H     15   1   2     2.058235133253   116.18254965   358.08349813
 C     19  15   1     2.551884176393   126.41978293   175.69309093
 H     19  15   1     2.055356589790   115.92791820   355.16177036
 C     21  19  15     2.849463195322   125.72877242   357.36027793
 C     23  21  19     2.910751964449   111.80025203   127.97566475
 H     23  21  19     2.066220223925   112.33617298     3.84298487
 H     23  21  19     2.082212683861   107.69686911   246.58918015
 C     24  23  21     2.900396233181   112.64890684    50.97413485
 H     24  23  21     2.073770446030   109.03281866   288.86902603
 H     24  23  21     2.072895953673   109.14586925   172.90100798
 C     27  24  23     2.900413739128   111.79862023   306.04988509
 H     27  24  23     2.069091876641   108.96006875   182.51766137
 H     27  24  23     2.079772642821   109.17699353    66.01392153
 C     21  19  15     2.831342369605   122.76897606   178.10883695
 H     33  21  19     2.089966943825   106.22716353   123.73336634
 C     33  21  19     2.883172732501   121.08499376     1.59291203
 H     13   3   2     1.826630408649   107.55285812    62.80985641
 C     35  33  21     2.926236232931   103.46433329   195.86910080
 H     35  33  21     2.069516704687   112.13883134    73.89198005
 H     35  33  21     2.070732443734   110.70224266   314.28195356
 C     30  27  24     2.936811471179   116.08898625   166.36173693
 H     37  35  33     2.068312765593   111.72502921   250.06401443
 H     37  35  33     2.071834354533   111.03285829   131.52433912
 H     40  30  27     2.083541113484   106.34737960   321.03557388
 C     40  30  27     2.913691879633   118.94453579    81.83434985
 C     30  27  24     2.900655829973   111.09117245   294.25270894
 H     45  30  27     2.068160781258   111.48623117    66.97247129
 H     45  30  27     2.070386417329   110.63898919   306.83344895
 H     45  30  27     2.068534876707   111.62861817   187.01144354
 H     44  40  30     2.079228698957   108.38616116    61.94621850
 C     44  40  30     2.903565844917   113.45090585   301.23121873
 C     44  40  30     2.847040381727   109.45512714   179.40282423
 C     51  44  40     2.517475083510   124.87135399   239.87137265
 H     51  44  40     2.064744632225   114.81805615    60.84171966
 H     52  51  44     2.066606493468   117.65785867     0.57307591
 C     52  51  44     2.856377738571   127.97746385   184.64199951
 C     55  52  51     2.911769288061   107.68178125   107.70954917
 C     55  52  51     2.912458592190   114.74741714   340.99299553
 H     55  52  51     2.085712666352   107.13995257   222.52716839
 H     57  55  52     2.080146237152   107.96951399    53.51908063
 C     57  55  52     2.896418956871   111.01033370   294.28903593
 C     57  55  52     2.896319652672   112.09104179   171.90780245
 H     56  55  52     2.069910500972   110.46859764    46.49980569
 H     56  55  52     2.072840708849   110.18794181   287.53254399
 H     56  55  52     2.067298609530   111.92020328   166.61671339
 H     60  57  55     2.070528558936   110.82766699   176.09213081
 H     60  57  55     2.065568415935   112.08586449    54.99421153
 H     60  57  55     2.074226504706   109.91221607   295.04580125
 H     61  57  55     2.074715340967   110.60448818    55.07389298
 H     61  57  55     2.066695891458   112.39760160   294.16165606
 H     61  57  55     2.070299436379   110.16712511   174.05420547
 H     50  44  40     2.069817987290   110.14872489   187.09301693
 H     50  44  40     2.065279826274   111.74066367    67.16952618
 H     50  44  40     2.072949542164   110.74153058   306.53669619

---------------------
BASIS SET INFORMATION
---------------------
There are 3 groups of distinct atoms

 Group   1 Type C   : 7s4p contracted to 4s3p pattern {4111/211}
 Group   2 Type H   : 5s contracted to 3s pattern {311}
 Group   3 Type O   : 7s4p contracted to 4s3p pattern {4111/211}

Atom   0C    basis set group =>   1
Atom   1C    basis set group =>   1
Atom   2C    basis set group =>   1
Atom   3H    basis set group =>   2
Atom   4H    basis set group =>   2
Atom   5C    basis set group =>   1
Atom   6C    basis set group =>   1
Atom   7C    basis set group =>   1
Atom   8H    basis set group =>   2
Atom   9H    basis set group =>   2
Atom  10H    basis set group =>   2
Atom  11H    basis set group =>   2
Atom  12O    basis set group =>   3
Atom  13H    basis set group =>   2
Atom  14C    basis set group =>   1
Atom  15C    basis set group =>   1
Atom  16H    basis set group =>   2
Atom  17H    basis set group =>   2
Atom  18C    basis set group =>   1
Atom  19H    basis set group =>   2
Atom  20C    basis set group =>   1
Atom  21H    basis set group =>   2
Atom  22C    basis set group =>   1
Atom  23C    basis set group =>   1
Atom  24H    basis set group =>   2
Atom  25H    basis set group =>   2
Atom  26C    basis set group =>   1
Atom  27H    basis set group =>   2
Atom  28H    basis set group =>   2
Atom  29C    basis set group =>   1
Atom  30H    basis set group =>   2
Atom  31H    basis set group =>   2
Atom  32C    basis set group =>   1
Atom  33H    basis set group =>   2
Atom  34C    basis set group =>   1
Atom  35H    basis set group =>   2
Atom  36C    basis set group =>   1
Atom  37H    basis set group =>   2
Atom  38H    basis set group =>   2
Atom  39C    basis set group =>   1
Atom  40H    basis set group =>   2
Atom  41H    basis set group =>   2
Atom  42H    basis set group =>   2
Atom  43C    basis set group =>   1
Atom  44C    basis set group =>   1
Atom  45H    basis set group =>   2
Atom  46H    basis set group =>   2
Atom  47H    basis set group =>   2
Atom  48H    basis set group =>   2
Atom  49C    basis set group =>   1
Atom  50C    basis set group =>   1
Atom  51C    basis set group =>   1
Atom  52H    basis set group =>   2
Atom  53H    basis set group =>   2
Atom  54C    basis set group =>   1
Atom  55C    basis set group =>   1
Atom  56C    basis set group =>   1
Atom  57H    basis set group =>   2
Atom  58H    basis set group =>   2
Atom  59C    basis set group =>   1
Atom  60C    basis set group =>   1
Atom  61H    basis set group =>   2
Atom  62H    basis set group =>   2
Atom  63H    basis set group =>   2
Atom  64H    basis set group =>   2
Atom  65H    basis set group =>   2
Atom  66H    basis set group =>   2
Atom  67H    basis set group =>   2
Atom  68H    basis set group =>   2
Atom  69H    basis set group =>   2
Atom  70H    basis set group =>   2
Atom  71H    basis set group =>   2
Atom  72H    basis set group =>   2

-------------------------
BASIS SET IN INPUT FORMAT
-------------------------

 # Basis set for element : H 
 NewGTO H 
 S 3 
   1    1357.7500000000      0.0012928364
   2      54.3100000000      0.0588280685
   3       4.3448000000      0.9761499708
 S 1 
   1       0.6604910000      1.0000000000
 S 1 
   1       0.1366870000      1.0000000000
  end;

 # Basis set for element : C 
 NewGTO C 
 S 4 
   1  139534.0000000000      0.0001655246
   2    5581.3600000000      0.0074486101
   3     446.5090000000      0.1285821065
   4      67.4620000000      0.9218029311
 S 1 
   1      15.0674000000      1.0000000000
 S 1 
   1       3.9387600000      1.0000000000
 S 1 
   1       0.2999150000      1.0000000000
 P 2 
   1      28.3900000000      0.0816325586
   2       4.3676900000      0.9660360576
 P 1 
   1       0.8698170000      1.0000000000
 P 1 
   1       0.1889340000      1.0000000000
  end;

 # Basis set for element : O 
 NewGTO O 
 S 4 
   1  253789.0000000000      0.0001641076
   2   10151.6000000000      0.0074010921
   3     812.1250000000      0.1277711901
   4     122.6930000000      0.9223372164
 S 1 
   1      27.5608000000      1.0000000000
 S 1 
   1       7.3172600000      1.0000000000
 S 1 
   1       0.5792400000      1.0000000000
 P 2 
   1      53.4157000000      0.0793786106
   2       8.2177900000      0.9670506337
 P 1 
   1       1.6754400000      1.0000000000
 P 1 
   1       0.3506720000      1.0000000000
  end;

---------------------------------
AUXILIARY/J BASIS SET INFORMATION
---------------------------------
There are 3 groups of distinct atoms

 Group   1 Type C   : 12s5p4d2f1g contracted to 6s4p3d1f1g pattern {711111/2111/211/2/1}
 Group   2 Type H   : 5s2p1d contracted to 3s1p1d pattern {311/2/1}
 Group   3 Type O   : 12s5p4d2f1g contracted to 6s4p3d1f1g pattern {711111/2111/211/2/1}

Atom   0C    basis set group =>   1
Atom   1C    basis set group =>   1
Atom   2C    basis set group =>   1
Atom   3H    basis set group =>   2
Atom   4H    basis set group =>   2
Atom   5C    basis set group =>   1
Atom   6C    basis set group =>   1
Atom   7C    basis set group =>   1
Atom   8H    basis set group =>   2
Atom   9H    basis set group =>   2
Atom  10H    basis set group =>   2
Atom  11H    basis set group =>   2
Atom  12O    basis set group =>   3
Atom  13H    basis set group =>   2
Atom  14C    basis set group =>   1
Atom  15C    basis set group =>   1
Atom  16H    basis set group =>   2
Atom  17H    basis set group =>   2
Atom  18C    basis set group =>   1
Atom  19H    basis set group =>   2
Atom  20C    basis set group =>   1
Atom  21H    basis set group =>   2
Atom  22C    basis set group =>   1
Atom  23C    basis set group =>   1
Atom  24H    basis set group =>   2
Atom  25H    basis set group =>   2
Atom  26C    basis set group =>   1
Atom  27H    basis set group =>   2
Atom  28H    basis set group =>   2
Atom  29C    basis set group =>   1
Atom  30H    basis set group =>   2
Atom  31H    basis set group =>   2
Atom  32C    basis set group =>   1
Atom  33H    basis set group =>   2
Atom  34C    basis set group =>   1
Atom  35H    basis set group =>   2
Atom  36C    basis set group =>   1
Atom  37H    basis set group =>   2
Atom  38H    basis set group =>   2
Atom  39C    basis set group =>   1
Atom  40H    basis set group =>   2
Atom  41H    basis set group =>   2
Atom  42H    basis set group =>   2
Atom  43C    basis set group =>   1
Atom  44C    basis set group =>   1
Atom  45H    basis set group =>   2
Atom  46H    basis set group =>   2
Atom  47H    basis set group =>   2
Atom  48H    basis set group =>   2
Atom  49C    basis set group =>   1
Atom  50C    basis set group =>   1
Atom  51C    basis set group =>   1
Atom  52H    basis set group =>   2
Atom  53H    basis set group =>   2
Atom  54C    basis set group =>   1
Atom  55C    basis set group =>   1
Atom  56C    basis set group =>   1
Atom  57H    basis set group =>   2
Atom  58H    basis set group =>   2
Atom  59C    basis set group =>   1
Atom  60C    basis set group =>   1
Atom  61H    basis set group =>   2
Atom  62H    basis set group =>   2
Atom  63H    basis set group =>   2
Atom  64H    basis set group =>   2
Atom  65H    basis set group =>   2
Atom  66H    basis set group =>   2
Atom  67H    basis set group =>   2
Atom  68H    basis set group =>   2
Atom  69H    basis set group =>   2
Atom  70H    basis set group =>   2
Atom  71H    basis set group =>   2
Atom  72H    basis set group =>   2

-------------------------------------
AUXILIARY/J BASIS SET IN INPUT FORMAT
-------------------------------------

 # Auxiliary/J basis set for element : H 
 NewAuxJGTO H 
 S 3 
   1      15.6752927000      0.1007184237
   2       3.6063578000      0.3404257499
   3       1.2080016000      0.6491996172
 S 1 
   1       0.4726794000      1.0000000000
 S 1 
   1       0.2018100000      1.0000000000
 P 2 
   1       2.0281365000      0.5596620919
   2       0.5358730000      0.5596620919
 D 1 
   1       2.2165124000      1.0000000000
  end;

 # Auxiliary/J basis set for element : C 
 NewAuxJGTO C 
 S 7 
   1    1861.0916331000      0.0134602335
   2     642.9939764000      0.0299160374
   3     235.1105725000      0.1008649584
   4      90.7028894000      0.2370970548
   5      36.7794552000      0.3924037254
   6      15.6046273000      0.3195862154
   7       6.8907294000      0.0530104441
 S 1 
   1       3.1478850000     -1.0000000000
 S 1 
   1       1.4777287000      1.0000000000
 S 1 
   1       0.7076466000      1.0000000000
 S 1 
   1       0.3430122000      1.0000000000
 S 1 
   1       0.1669453000      1.0000000000
 P 2 
   1      13.5472892000     -0.6769313712
   2       5.4669419000     -0.3779500978
 P 1 
   1       2.1751721000      1.0000000000
 P 1 
   1       0.8582194000      1.0000000000
 P 1 
   1       0.3376720000      1.0000000000
 D 2 
   1       5.9287253000     -0.3533329857
   2       1.9809209000     -0.7456525731
 D 1 
   1       0.8055417000     -1.0000000000
 D 1 
   1       0.3531244000     -1.0000000000
 F 2 
   1       1.6755626000      0.6311076882
   2       0.5997536000      0.4968166032
 G 1 
   1       1.0024600000     -1.0000000000
  end;

 # Auxiliary/J basis set for element : O 
 NewAuxJGTO O 
 S 7 
   1    2876.8216605000      0.0168151159
   2    1004.7443032000      0.0340137548
   3     369.7579954000      0.1194951309
   4     142.9442404000      0.2664627624
   5      57.8366425000      0.4202764046
   6      24.3864983000      0.2765077335
   7      10.6622662000      0.0057008815
 S 1 
   1       4.8070437000     -1.0000000000
 S 1 
   1       2.2210770000      1.0000000000
 S 1 
   1       1.0447795000      1.0000000000
 S 1 
   1       0.4968425000      1.0000000000
 S 1 
   1       0.2371384000      1.0000000000
 P 2 
   1      64.2613382000     -0.2731534179
   2      16.3006076000     -0.8168011598
 P 1 
   1       4.3550542000      1.0000000000
 P 1 
   1       1.2019554000      1.0000000000
 P 1 
   1       0.3354196000      1.0000000000
 D 2 
   1       9.2146611000     -0.4661230638
   2       2.8435251000     -0.6600908911
 D 1 
   1       0.9955759000     -1.0000000000
 D 1 
   1       0.3649441000     -1.0000000000
 F 2 
   1       2.6420115000      0.5931563945
   2       0.7345613000      0.5931563945
 G 1 
   1       1.3931000000     -1.0000000000
  end;



           ************************************************************
           *        Program running with 4 parallel MPI-processes     *
           *              working on a common directory               *
           ************************************************************
------------------------------------------------------------------------------
                           ORCA GTO INTEGRAL CALCULATION
                           -- RI-GTO INTEGRALS CHOSEN --
------------------------------------------------------------------------------
------------------------------------------------------------------------------
                   ___                                                        
                  /   \      - P O W E R E D   B Y -                         
                 /     \                                                     
                 |  |  |   _    _      __       _____    __    __             
                 |  |  |  | |  | |    /  \     |  _  \  |  |  /  |          
                  \  \/   | |  | |   /    \    | | | |  |  | /  /          
                 / \  \   | |__| |  /  /\  \   | |_| |  |  |/  /          
                |  |  |   |  __  | /  /__\  \  |    /   |      \           
                |  |  |   | |  | | |   __   |  |    \   |  |\   \          
                \     /   | |  | | |  |  |  |  | |\  \  |  | \   \       
                 \___/    |_|  |_| |__|  |__|  |_| \__\ |__|  \__/        
                                                                              
                      - O R C A' S   B I G   F R I E N D -                    
                                      &                                       
                       - I N T E G R A L  F E E D E R -                       
                                                                              
 v1 FN, 2020, v2 2021                                                         
------------------------------------------------------------------------------


Reading SHARK input file inpJ.SHARKINP.tmp ... ok
----------------------
SHARK INTEGRAL PACKAGE
----------------------

Number of atoms                             ...     73
Number of basis functions                   ...    509
Number of shells                            ...    335
Maximum angular momentum                    ...      1
Integral batch strategy                     ... SHARK/LIBINT Hybrid
RI-J (if used) integral strategy            ... SPLIT-RIJ (Revised 2003 algorithm where possible)
Printlevel                                  ...      1
Contraction scheme used                     ... SEGMENTED contraction
Coulomb Range Separation                    ... NOT USED
Exchange Range Separation                   ... NOT USED
Finite Nucleus Model                        ... NOT USED
Auxiliary Coulomb fitting basis             ... AVAILABLE
   # of basis functions in Aux-J            ...   1905
   # of shells in Aux-J                     ...    655
   Maximum angular momentum in Aux-J        ...      4
Auxiliary J/K fitting basis                 ... NOT available
Auxiliary Correlation fitting basis         ... NOT available
Auxiliary 'external' fitting basis          ... NOT available
Integral threshold                          ...     3.000000e-11
Primitive cut-off                           ...     1.000000e-12
Primitive pair pre-selection threshold      ...     1.000000e-12

Calculating pre-screening integrals         ... done (  0.0 sec) Dimension = 335
Organizing shell pair data                  ... done (  0.1 sec)
Shell pair information
Total number of shell pairs                 ...     56280
Shell pairs after pre-screening             ...     21713
Total number of primitive shell pairs       ...    145865
Primitive shell pairs kept                  ...     37365
          la=0 lb=0:  10927 shell pairs
          la=1 lb=0:   8923 shell pairs
          la=1 lb=1:   1863 shell pairs

Calculating one electron integrals          ... done (  0.0 sec)
Calculating RI/J V-Matrix + Cholesky decomp.... done (  0.2 sec)
Calculating Nuclear repulsion               ... done (  0.0 sec) ENN=   2767.237381647059 Eh

SHARK setup successfully completed in   0.4 seconds

Maximum memory used throughout the entire GTOINT-calculation: 46.2 MB


           ************************************************************
           *        Program running with 4 parallel MPI-processes     *
           *              working on a common directory               *
           ************************************************************
-------------------------------------------------------------------------------
                                 ORCA SCF
-------------------------------------------------------------------------------

------------
SCF SETTINGS
------------
Hamiltonian:
 Density Functional     Method          .... DFT(GTOs)
 Exchange Functional    Exchange        .... PBE
   PBE kappa parameter   XKappa         ....  0.804000
   PBE mue parameter    XMuePBE         ....  0.219520
 Correlation Functional Correlation     .... PBE
   PBE beta parameter  CBetaPBE         ....  0.066725
 LDA part of GGA corr.  LDAOpt          .... PW91-LDA
 Gradients option       PostSCFGGA      .... off
 Hybrid DFT is turned on
   Fraction HF Exchange ScalHFX         ....  0.250000
   Scaling of DF-GGA-X  ScalDFX         ....  0.750000
   Scaling of DF-GGA-C  ScalDFC         ....  1.000000
   Scaling of DF-LDA-C  ScalLDAC        ....  1.000000
   Perturbative correction              ....  0.000000
   Density functional embedding theory  .... OFF
   NL short-range parameter             ....  6.900000
 RI-approximation to the Coulomb term is turned on
   Number of AuxJ basis functions       .... 1905
   RIJ-COSX (HFX calculated with COS-X)).... on


General Settings:
 Integral files         IntName         .... inpJ
 Hartree-Fock type      HFTyp           .... RHF
 Total Charge           Charge          ....    0
 Multiplicity           Mult            ....    1
 Number of Electrons    NEL             ....  220
 Basis Dimension        Dim             ....  509
 Nuclear Repulsion      ENuc            ....   2767.2373816471 Eh

Convergence Acceleration:
 DIIS                   CNVDIIS         .... on
   Start iteration      DIISMaxIt       ....    12
   Startup error        DIISStart       ....  0.200000
   # of expansion vecs  DIISMaxEq       ....     5
   Bias factor          DIISBfac        ....   1.050
   Max. coefficient     DIISMaxC        ....  10.000
 Trust-Rad. Augm. Hess. CNVTRAH         .... auto
   Auto Start mean grad. ratio tolernc. ....  1.125000
   Auto Start start iteration           ....    20
   Auto Start num. interpolation iter.  ....    10
   Max. Number of Micro iterations      ....    16
   Max. Number of Macro iterations      .... Maxiter - #DIIS iter
   Number of Davidson start vectors     ....     2
   Converg. threshold I  (grad. norm)   ....   1.000e-04
   Converg. threshold II (energy diff.) ....   1.000e-07
   Grad. Scal. Fac. for Micro threshold ....   0.100
   Minimum threshold for Micro iter.    ....   0.010
   NR start threshold (gradient norm)   ....   0.001
   Initial trust radius                 ....   0.400
   Minimum AH scaling param. (alpha)    ....   1.000
   Maximum AH scaling param. (alpha)    .... 1000.000
   Orbital update algorithm             .... Taylor
   White noise on init. David. guess    .... on
   Maximum white noise                  ....   0.010
   Quad. conv. algorithm                .... NR
 SOSCF                  CNVSOSCF        .... off
 Level Shifting         CNVShift        .... on
   Level shift para.    LevelShift      ....    0.2500
   Turn off err/grad.   ShiftErr        ....    0.0010
 Zerner damping         CNVZerner       .... off
 Static damping         CNVDamp         .... on
   Fraction old density DampFac         ....    0.7000
   Max. Damping (<1)    DampMax         ....    0.9800
   Min. Damping (>=0)   DampMin         ....    0.0000
   Turn off err/grad.   DampErr         ....    0.1000
 Fernandez-Rico         CNVRico         .... off

SCF Procedure:
 Maximum # iterations   MaxIter         ....   125
 SCF integral mode      SCFMode         .... Direct
   Integral package                     .... SHARK and LIBINT hybrid scheme
 Reset frequency        DirectResetFreq ....    20
 Integral Threshold     Thresh          ....  3.000e-11 Eh
 Primitive CutOff       TCut            ....  1.000e-12 Eh

Convergence Tolerance:
 Convergence Check Mode ConvCheckMode   .... Total+1el-Energy
 Convergence forced     ConvForced      .... 0
 Energy Change          TolE            ....  1.000e-07 Eh
 1-El. energy change                    ....  1.000e-04 Eh
 DIIS Error             TolErr          ....  1.000e-07


Diagonalization of the overlap matrix:
Smallest eigenvalue                        ... 7.553e-03
Time for diagonalization                   ...    0.027 sec
Threshold for overlap eigenvalues          ... 1.000e-08
Number of eigenvalues below threshold      ... 0
Time for construction of square roots      ...    0.022 sec
Total time needed                          ...    0.050 sec

Time for model grid setup =    0.768 sec

------------------------------
INITIAL GUESS: MODEL POTENTIAL
------------------------------
Loading Hartree-Fock densities                     ... done
Calculating cut-offs                               ... done
Initializing the effective Hamiltonian             ... done
Setting up the integral package (SHARK)            ... done
Starting the Coulomb interaction                   ... done (   0.4 sec)
Reading the grid                                   ... done
Mapping shells                                     ... done
Starting the XC term evaluation                    ... done (   0.1 sec)
  promolecular density results
     # of electrons  =    219.991342910
     EX              =   -164.432484338
     EC              =     -7.324915843
     EX+EC           =   -171.757400181
Transforming the Hamiltonian                       ... done (   0.0 sec)
Diagonalizing the Hamiltonian                      ... done (   0.0 sec)
Back transforming the eigenvectors                 ... done (   0.0 sec)
Now organizing SCF variables                       ... done
                      ------------------
                      INITIAL GUESS DONE (   1.4 sec)
                      ------------------
-------------------
DFT GRID GENERATION
-------------------

General Integration Accuracy     IntAcc      ... 4.388
Radial Grid Type                 RadialGrid  ... OptM3 with GC (2021)
Angular Grid (max. ang.)         AngularGrid ... 4 (Lebedev-302)
Angular grid pruning method      GridPruning ... 4 (adaptive)
Weight generation scheme         WeightScheme... Becke
Basis function cutoff            BFCut       ... 1.0000e-11
Integration weight cutoff        WCut        ... 1.0000e-14
Angular grids for H and He will be reduced by one unit
Partially contracted basis set               ... off
Rotationally invariant grid construction     ... off

Total number of grid points                  ...   309911
Total number of batches                      ...     4881
Average number of points per batch           ...       63
Average number of grid points per atom       ...     4245
Time for grid setup =    2.798 sec

--------------------
COSX GRID GENERATION
--------------------

GRIDX 1
-------
General Integration Accuracy     IntAcc      ... 3.816
Radial Grid Type                 RadialGrid  ... OptM3 with GC (2021)
Angular Grid (max. ang.)         AngularGrid ... 1 (Lebedev-50)
Angular grid pruning method      GridPruning ... 4 (adaptive)
Weight generation scheme         WeightScheme... Becke
Basis function cutoff            BFCut       ... 1.0000e-11
Integration weight cutoff        WCut        ... 1.0000e-14
Angular grids for H and He will be reduced by one unit
Partially contracted basis set               ... on
Rotationally invariant grid construction     ... off

Total number of grid points                  ...    39418
Total number of batches                      ...      655
Average number of points per batch           ...       60
Average number of grid points per atom       ...      540
UseSFitting                                  ... on

GRIDX 2
-------
General Integration Accuracy     IntAcc      ... 4.020
Radial Grid Type                 RadialGrid  ... OptM3 with GC (2021)
Angular Grid (max. ang.)         AngularGrid ... 2 (Lebedev-110)
Angular grid pruning method      GridPruning ... 4 (adaptive)
Weight generation scheme         WeightScheme... Becke
Basis function cutoff            BFCut       ... 1.0000e-11
Integration weight cutoff        WCut        ... 1.0000e-14
Angular grids for H and He will be reduced by one unit
Partially contracted basis set               ... on
Rotationally invariant grid construction     ... off

Total number of grid points                  ...    81453
Total number of batches                      ...     1309
Average number of points per batch           ...       62
Average number of grid points per atom       ...     1116
UseSFitting                                  ... on

GRIDX 3
-------
General Integration Accuracy     IntAcc      ... 4.338
Radial Grid Type                 RadialGrid  ... OptM3 with GC (2021)
Angular Grid (max. ang.)         AngularGrid ... 3 (Lebedev-194)
Angular grid pruning method      GridPruning ... 4 (adaptive)
Weight generation scheme         WeightScheme... Becke
Basis function cutoff            BFCut       ... 1.0000e-11
Integration weight cutoff        WCut        ... 1.0000e-14
Angular grids for H and He will be reduced by one unit
Partially contracted basis set               ... on
Rotationally invariant grid construction     ... off

Total number of grid points                  ...   176402
Total number of batches                      ...     2794
Average number of points per batch           ...       63
Average number of grid points per atom       ...     2416
UseSFitting                                  ... on

Time for X-Grid setup             =    2.710 sec


--------------------
CPCM SOLVATION MODEL
--------------------
CPCM parameters:
  Epsilon                                         ...       4.9000
  Refrac                                          ...       1.4500
  Rsolv                                           ...       1.3000
  Surface type                                    ... GAUSSIAN VDW
  Epsilon function type                           ...         CPCM
Radii:
 Radius for C  used is    3.8550 Bohr (=   2.0400 Ang.)
 Radius for H  used is    2.4944 Bohr (=   1.3200 Ang.)
 Radius for O  used is    3.4469 Bohr (=   1.8240 Ang.)
Calculating surface                               ...        done! (  0.0s)
GEPOL surface points                              ...         3649
GEPOL Volume                                      ...    3592.2079
GEPOL Surface-area                                ...    1783.7068
Calculating surface distance matrix               ...        done! (  0.1s)
Performing Cholesky decomposition & store         ...        done! (  0.6s)
Overall time for CPCM initialization              ...                 0.8s
--------------
SCF ITERATIONS
--------------
ITER       Energy         Delta-E        Max-DP      RMS-DP      [F,P]     Damp
               ***  Starting incremental Fock matrix formation  ***

  HOMO= 109 E= -3.885 eV LUMO=  7.792 eV gap=  11.677 eV
  0  -1165.0088385701   0.000000000000 0.09760421  0.00105951  0.1936809 0.7000

  HOMO= 109 E= -4.734 eV LUMO=  7.096 eV gap=  11.830 eV
  1  -1165.2268105715  -0.217972001403 0.06544266  0.00078096  0.0942863 0.7000
                               ***Turning on DIIS***

  HOMO= 109 E= -5.334 eV LUMO=  6.539 eV gap=  11.872 eV
  2  -1165.3275700134  -0.100759441931 0.10341657  0.00138605  0.0376742 0.0000

  HOMO= 109 E= -5.901 eV LUMO=  5.995 eV gap=  11.896 eV
  3  -1165.4716122662  -0.144042252770 0.05170631  0.00056878  0.0453167 0.0000

  HOMO= 109 E= -5.981 eV LUMO=  5.916 eV gap=  11.897 eV
  4  -1165.5070317227  -0.035419456539 0.01164636  0.00013497  0.0061611 0.0000

  HOMO= 109 E= -5.927 eV LUMO=  5.976 eV gap=  11.904 eV
  5  -1165.5079042006  -0.000872477810 0.00282775  0.00003819  0.0044463 0.0000

  HOMO= 109 E= -5.914 eV LUMO=  5.990 eV gap=  11.904 eV
  6  -1165.5079818757  -0.000077675136 0.00115257  0.00001159  0.0010598 0.0000

  HOMO= 109 E= -5.916 eV LUMO= -0.814 eV gap=   5.101 eV
  7  -1165.5079866276  -0.000004751906 0.00051024  0.00000595  0.0002338 0.0000
               *** Restarting incremental Fock matrix formation ***
                                   *** Resetting DIIS ***

  HOMO= 109 E= -5.915 eV LUMO= -0.813 eV gap=   5.102 eV
  8  -1165.5080972933  -0.000110665668 0.00041152  0.00000283  0.0001143 0.0000

  HOMO= 109 E= -5.915 eV LUMO= -0.813 eV gap=   5.102 eV
  9  -1165.5080973653  -0.000000072080 0.00013966  0.00000126  0.0001505 0.0000

  HOMO= 109 E= -5.915 eV LUMO= -0.813 eV gap=   5.102 eV
 10  -1165.5080974850  -0.000000119637 0.00006612  0.00000041  0.0000418 0.0000

  HOMO= 109 E= -5.915 eV LUMO= -0.813 eV gap=   5.102 eV
 11  -1165.5080975234  -0.000000038434 0.00002481  0.00000018  0.0000221 0.0000

  HOMO= 109 E= -5.915 eV LUMO= -0.813 eV gap=   5.102 eV
 12  -1165.5080975038   0.000000019578 0.00000744  0.00000005  0.0000039 0.0000
                 **** Energy Check signals convergence ****

               *****************************************************
               *                     SUCCESS                       *
               *           SCF CONVERGED AFTER  13 CYCLES          *
               *****************************************************

Old exchange energy                            =    -42.066925923 Eh
New exchange energy                            =    -42.066980789 Eh
Exchange energy change after final integration =     -0.000054865 Eh
Total energy after final integration           =  -1165.508152365 Eh
Final COS-X integration done in                =    13.053 sec

----------------
TOTAL SCF ENERGY
----------------

Total Energy       :        -1165.50815237 Eh          -31715.08919 eV

Components:
Nuclear Repulsion  :         2767.23738165 Eh           75300.35735 eV
Electronic Energy  :        -3932.74553401 Eh         -107015.44654 eV
One Electron Energy:        -7076.52850210 Eh         -192562.13021 eV
Two Electron Energy:         3143.78296809 Eh           85546.68367 eV
Max COSX asymmetry :            0.00000181 Eh               0.00005 eV
CPCM Dielectric    :           -0.01532802 Eh              -0.41710 eV

Virial components:
Potential Energy   :        -2322.40445115 Eh          -63195.83793 eV
Kinetic Energy     :         1156.89629879 Eh           31480.74874 eV
Virial Ratio       :            2.00744393


DFT components:
N(Alpha)           :      110.000148685377 electrons
N(Beta)            :      110.000148685377 electrons
N(Total)           :      220.000297370755 electrons
E(X)               :     -125.744094616161 Eh       
E(C)               :       -7.326441004550 Eh       
E(XC)              :     -133.070535620710 Eh       
DFET-embed. en.    :        0.000000000000 Eh       
CPCM Solvation Model Properties:
Surface-charge          :           -0.03459481
Charge-correction       :           -0.00005819 Eh              -0.00158 eV
Free-energy (cav+disp)  :  This term is not implemented in the current solvation scheme

---------------
SCF CONVERGENCE
---------------

  Last Energy change         ...    4.0488e-09  Tolerance :   1.0000e-07
  Last MAX-Density change    ...    0.0000e+00  Tolerance :   1.0000e-05
  Last RMS-Density change    ...    0.0000e+00  Tolerance :   1.0000e-06
  Last DIIS Error            ...    2.7454e-06  Tolerance :   1.0000e-07

             **** THE GBW FILE WAS UPDATED (inpJ.gbw) ****
             **** DENSITY inpJ.scfp WAS UPDATED ****
             **** ENERGY FILE WAS UPDATED (inpJ.en.tmp) ****
             **** THE GBW FILE WAS UPDATED (inpJ.gbw) ****
             **** DENSITY inpJ.scfp WAS UPDATED ****
----------------
ORBITAL ENERGIES
----------------

  NO   OCC          E(Eh)            E(eV) 
   0   2.0000     -19.214980      -522.8662 
   1   2.0000     -10.301282      -280.3121 
   2   2.0000     -10.269340      -279.4429 
   3   2.0000     -10.266588      -279.3681 
   4   2.0000     -10.261581      -279.2318 
   5   2.0000     -10.255939      -279.0783 
   6   2.0000     -10.253240      -279.0048 
   7   2.0000     -10.251863      -278.9674 
   8   2.0000     -10.249756      -278.9100 
   9   2.0000     -10.249111      -278.8925 
  10   2.0000     -10.247629      -278.8522 
  11   2.0000     -10.245995      -278.8077 
  12   2.0000     -10.245085      -278.7829 
  13   2.0000     -10.244926      -278.7786 
  14   2.0000     -10.244461      -278.7660 
  15   2.0000     -10.243804      -278.7481 
  16   2.0000     -10.242903      -278.7236 
  17   2.0000     -10.242673      -278.7173 
  18   2.0000     -10.241780      -278.6930 
  19   2.0000     -10.240924      -278.6697 
  20   2.0000     -10.238968      -278.6165 
  21   2.0000     -10.233740      -278.4742 
  22   2.0000     -10.233455      -278.4665 
  23   2.0000     -10.232487      -278.4401 
  24   2.0000     -10.227468      -278.3036 
  25   2.0000     -10.225654      -278.2542 
  26   2.0000     -10.224242      -278.2158 
  27   2.0000     -10.221494      -278.1410 
  28   2.0000     -10.220115      -278.1035 
  29   2.0000      -1.045702       -28.4550 
  30   2.0000      -0.900431       -24.5020 
  31   2.0000      -0.883503       -24.0413 
  32   2.0000      -0.860300       -23.4100 
  33   2.0000      -0.845495       -23.0071 
  34   2.0000      -0.821832       -22.3632 
  35   2.0000      -0.813503       -22.1365 
  36   2.0000      -0.794723       -21.6255 
  37   2.0000      -0.794588       -21.6218 
  38   2.0000      -0.776951       -21.1419 
  39   2.0000      -0.757340       -20.6083 
  40   2.0000      -0.741262       -20.1708 
  41   2.0000      -0.735445       -20.0125 
  42   2.0000      -0.713356       -19.4114 
  43   2.0000      -0.699857       -19.0441 
  44   2.0000      -0.698908       -19.0183 
  45   2.0000      -0.693277       -18.8650 
  46   2.0000      -0.668730       -18.1971 
  47   2.0000      -0.656837       -17.8734 
  48   2.0000      -0.628800       -17.1105 
  49   2.0000      -0.621496       -16.9118 
  50   2.0000      -0.619271       -16.8512 
  51   2.0000      -0.606725       -16.5098 
  52   2.0000      -0.596623       -16.2349 
  53   2.0000      -0.593052       -16.1378 
  54   2.0000      -0.557756       -15.1773 
  55   2.0000      -0.551043       -14.9946 
  56   2.0000      -0.539111       -14.6699 
  57   2.0000      -0.529606       -14.4113 
  58   2.0000      -0.514990       -14.0136 
  59   2.0000      -0.508063       -13.8251 
  60   2.0000      -0.496085       -13.4992 
  61   2.0000      -0.488795       -13.3008 
  62   2.0000      -0.486687       -13.2434 
  63   2.0000      -0.479827       -13.0568 
  64   2.0000      -0.475763       -12.9462 
  65   2.0000      -0.468336       -12.7441 
  66   2.0000      -0.459974       -12.5165 
  67   2.0000      -0.457366       -12.4456 
  68   2.0000      -0.456573       -12.4240 
  69   2.0000      -0.449099       -12.2206 
  70   2.0000      -0.444395       -12.0926 
  71   2.0000      -0.438457       -11.9310 
  72   2.0000      -0.435449       -11.8492 
  73   2.0000      -0.433678       -11.8010 
  74   2.0000      -0.430434       -11.7127 
  75   2.0000      -0.421829       -11.4786 
  76   2.0000      -0.415514       -11.3067 
  77   2.0000      -0.414077       -11.2676 
  78   2.0000      -0.407264       -11.0822 
  79   2.0000      -0.403103       -10.9690 
  80   2.0000      -0.401865       -10.9353 
  81   2.0000      -0.396459       -10.7882 
  82   2.0000      -0.394047       -10.7226 
  83   2.0000      -0.391434       -10.6514 
  84   2.0000      -0.390207       -10.6181 
  85   2.0000      -0.384938       -10.4747 
  86   2.0000      -0.377922       -10.2838 
  87   2.0000      -0.370096       -10.0708 
  88   2.0000      -0.368437       -10.0257 
  89   2.0000      -0.367183        -9.9916 
  90   2.0000      -0.363064        -9.8795 
  91   2.0000      -0.358237        -9.7481 
  92   2.0000      -0.352388        -9.5890 
  93   2.0000      -0.342625        -9.3233 
  94   2.0000      -0.341502        -9.2927 
  95   2.0000      -0.339606        -9.2412 
  96   2.0000      -0.338268        -9.2047 
  97   2.0000      -0.333644        -9.0789 
  98   2.0000      -0.330829        -9.0023 
  99   2.0000      -0.329004        -8.9526 
 100   2.0000      -0.326166        -8.8754 
 101   2.0000      -0.318542        -8.6680 
 102   2.0000      -0.316232        -8.6051 
 103   2.0000      -0.315891        -8.5958 
 104   2.0000      -0.311234        -8.4691 
 105   2.0000      -0.299605        -8.1527 
 106   2.0000      -0.279848        -7.6151 
 107   2.0000      -0.274654        -7.4737 
 108   2.0000      -0.256512        -6.9801 
 109   2.0000      -0.217379        -5.9152 
 110   0.0000      -0.029880        -0.8131 
 111   0.0000       0.021409         0.5826 
 112   0.0000       0.028644         0.7794 
 113   0.0000       0.080038         2.1779 
 114   0.0000       0.089547         2.4367 
 115   0.0000       0.101413         2.7596 
 116   0.0000       0.102749         2.7960 
 117   0.0000       0.107943         2.9373 
 118   0.0000       0.113489         3.0882 
 119   0.0000       0.116576         3.1722 
 120   0.0000       0.118764         3.2317 
 121   0.0000       0.123920         3.3720 
 122   0.0000       0.126340         3.4379 
 123   0.0000       0.130030         3.5383 
 124   0.0000       0.133567         3.6346 
 125   0.0000       0.138230         3.7614 
 126   0.0000       0.141065         3.8386 
 127   0.0000       0.142167         3.8686 
 128   0.0000       0.149311         4.0630 
 129   0.0000       0.152337         4.1453 
 130   0.0000       0.154748         4.2109 
 131   0.0000       0.156846         4.2680 
 132   0.0000       0.159825         4.3491 
 133   0.0000       0.164457         4.4751 
 134   0.0000       0.166625         4.5341 
 135   0.0000       0.170266         4.6332 
 136   0.0000       0.171368         4.6632 
 137   0.0000       0.176500         4.8028 
 138   0.0000       0.177373         4.8266 
 139   0.0000       0.181691         4.9441 
 140   0.0000       0.182591         4.9686 
 141   0.0000       0.184487         5.0202 
 142   0.0000       0.186554         5.0764 
 143   0.0000       0.189021         5.1435 
 144   0.0000       0.190342         5.1795 
 145   0.0000       0.194976         5.3056 
 146   0.0000       0.196726         5.3532 
 147   0.0000       0.198818         5.4101 
 148   0.0000       0.201837         5.4923 
 149   0.0000       0.203281         5.5316 
 150   0.0000       0.207810         5.6548 
 151   0.0000       0.217013         5.9052 
 152   0.0000       0.220696         6.0054 
 153   0.0000       0.227382         6.1874 
 154   0.0000       0.235236         6.4011 
 155   0.0000       0.237852         6.4723 
 156   0.0000       0.242381         6.5955 
 157   0.0000       0.245106         6.6697 
 158   0.0000       0.249551         6.7906 
 159   0.0000       0.253523         6.8987 
 160   0.0000       0.259923         7.0729 
 161   0.0000       0.260754         7.0955 
 162   0.0000       0.264505         7.1976 
 163   0.0000       0.266201         7.2437 
 164   0.0000       0.270593         7.3632 
 165   0.0000       0.278511         7.5787 
 166   0.0000       0.282626         7.6906 
 167   0.0000       0.285692         7.7741 
 168   0.0000       0.291602         7.9349 
 169   0.0000       0.294360         8.0099 
 170   0.0000       0.295895         8.0517 
 171   0.0000       0.300059         8.1650 
 172   0.0000       0.305254         8.3064 
 173   0.0000       0.308209         8.3868 
 174   0.0000       0.318439         8.6652 
 175   0.0000       0.325025         8.8444 
 176   0.0000       0.327056         8.8997 
 177   0.0000       0.338375         9.2077 
 178   0.0000       0.356107         9.6902 
 179   0.0000       0.357921         9.7395 
 180   0.0000       0.367284         9.9943 
 181   0.0000       0.375828        10.2268 
 182   0.0000       0.379330        10.3221 
 183   0.0000       0.405460        11.0331 
 184   0.0000       0.419500        11.4152 
 185   0.0000       0.463641        12.6163 
 186   0.0000       0.481035        13.0896 
 187   0.0000       0.491836        13.3835 
 188   0.0000       0.511802        13.9268 
 189   0.0000       0.521259        14.1842 
 190   0.0000       0.526252        14.3200 
 191   0.0000       0.543228        14.7820 
 192   0.0000       0.547189        14.8898 
 193   0.0000       0.552096        15.0233 
 194   0.0000       0.558157        15.1882 
 195   0.0000       0.560908        15.2631 
 196   0.0000       0.573287        15.5999 
 197   0.0000       0.581734        15.8298 
 198   0.0000       0.583476        15.8772 
 199   0.0000       0.592790        16.1306 
 200   0.0000       0.607495        16.5308 
 201   0.0000       0.612866        16.6769 
 202   0.0000       0.622790        16.9470 
 203   0.0000       0.626491        17.0477 
 204   0.0000       0.631498        17.1839 
 205   0.0000       0.640328        17.4242 
 206   0.0000       0.644652        17.5419 
 207   0.0000       0.648604        17.6494 
 208   0.0000       0.659957        17.9583 
 209   0.0000       0.666704        18.1419 
 210   0.0000       0.672217        18.2920 
 211   0.0000       0.688501        18.7351 
 212   0.0000       0.696084        18.9414 
 213   0.0000       0.701968        19.1015 
 214   0.0000       0.704643        19.1743 
 215   0.0000       0.711825        19.3697 
 216   0.0000       0.712857        19.3978 
 217   0.0000       0.717547        19.5254 
 218   0.0000       0.725981        19.7550 
 219   0.0000       0.726596        19.7717 
 220   0.0000       0.730791        19.8858 
 221   0.0000       0.732184        19.9238 
 222   0.0000       0.734526        19.9875 
 223   0.0000       0.741194        20.1689 
 224   0.0000       0.747588        20.3429 
 225   0.0000       0.748582        20.3700 
 226   0.0000       0.752704        20.4821 
 227   0.0000       0.756572        20.5874 
 228   0.0000       0.765058        20.8183 
 229   0.0000       0.766328        20.8528 
 230   0.0000       0.770384        20.9632 
 231   0.0000       0.774069        21.0635 
 232   0.0000       0.777720        21.1628 
 233   0.0000       0.781840        21.2749 
 234   0.0000       0.787443        21.4274 
 235   0.0000       0.795794        21.6546 
 236   0.0000       0.799985        21.7687 
 237   0.0000       0.803063        21.8525 
 238   0.0000       0.816311        22.2129 
 239   0.0000       0.819529        22.3005 
 240   0.0000       0.825093        22.4519 
 241   0.0000       0.830841        22.6083 
 242   0.0000       0.839152        22.8345 
 243   0.0000       0.846783        23.0421 
 244   0.0000       0.847954        23.0740 
 245   0.0000       0.855267        23.2730 
 246   0.0000       0.856291        23.3009 
 247   0.0000       0.861827        23.4515 
 248   0.0000       0.864525        23.5249 
 249   0.0000       0.870601        23.6903 
 250   0.0000       0.872901        23.7529 
 251   0.0000       0.876544        23.8520 
 252   0.0000       0.877620        23.8813 
 253   0.0000       0.879347        23.9283 
 254   0.0000       0.882404        24.0114 
 255   0.0000       0.886166        24.1138 
 256   0.0000       0.887918        24.1615 
 257   0.0000       0.892803        24.2944 
 258   0.0000       0.896449        24.3936 
 259   0.0000       0.899001        24.4631 
 260   0.0000       0.903050        24.5732 
 261   0.0000       0.905194        24.6316 
 262   0.0000       0.913360        24.8538 
 263   0.0000       0.917352        24.9624 
 264   0.0000       0.923454        25.1285 
 265   0.0000       0.927889        25.2491 
 266   0.0000       0.930138        25.3103 
 267   0.0000       0.932257        25.3680 
 268   0.0000       0.934385        25.4259 
 269   0.0000       0.941144        25.6098 
 270   0.0000       0.944840        25.7104 
 271   0.0000       0.945320        25.7235 
 272   0.0000       0.949021        25.8242 
 273   0.0000       0.956621        26.0310 
 274   0.0000       0.961228        26.1563 
 275   0.0000       0.967930        26.3387 
 276   0.0000       0.969912        26.3926 
 277   0.0000       0.973987        26.5035 
 278   0.0000       0.977515        26.5995 
 279   0.0000       0.984590        26.7921 
 280   0.0000       0.985739        26.8233 
 281   0.0000       0.993906        27.0455 
 282   0.0000       1.008900        27.4536 
 283   0.0000       1.012094        27.5405 
 284   0.0000       1.018030        27.7020 
 285   0.0000       1.027222        27.9521 
 286   0.0000       1.030733        28.0477 
 287   0.0000       1.046050        28.4645 
 288   0.0000       1.052701        28.6454 
 289   0.0000       1.060458        28.8565 
 290   0.0000       1.078105        29.3367 
 291   0.0000       1.080937        29.4138 
 292   0.0000       1.087303        29.5870 
 293   0.0000       1.091983        29.7144 
 294   0.0000       1.111799        30.2536 
 295   0.0000       1.128564        30.7098 
 296   0.0000       1.133466        30.8432 
 297   0.0000       1.135528        30.8993 
 298   0.0000       1.150742        31.3133 
 299   0.0000       1.155748        31.4495 
 300   0.0000       1.167861        31.7791 
 301   0.0000       1.186250        32.2795 
 302   0.0000       1.196201        32.5503 
 303   0.0000       1.204826        32.7850 
 304   0.0000       1.234051        33.5802 
 305   0.0000       1.242979        33.8232 
 306   0.0000       1.244425        33.8625 
 307   0.0000       1.256961        34.2037 
 308   0.0000       1.271942        34.6113 
 309   0.0000       1.301162        35.4064 
 310   0.0000       1.327878        36.1334 
 311   0.0000       1.334376        36.3102 
 312   0.0000       1.371945        37.3325 
 313   0.0000       1.382895        37.6305 
 314   0.0000       1.406350        38.2687 
 315   0.0000       1.508934        41.0602 
 316   0.0000       1.525695        41.5163 
 317   0.0000       1.573262        42.8106 
 318   0.0000       1.605955        43.7003 
 319   0.0000       1.657465        45.1019 
 320   0.0000       6.207929       168.9263 
 321   0.0000       6.240012       169.7993 
 322   0.0000       6.264426       170.4637 
 323   0.0000       6.276666       170.7968 
 324   0.0000       6.284720       171.0159 
 325   0.0000       6.289908       171.1571 
 326   0.0000       6.300964       171.4579 
 327   0.0000       6.312714       171.7777 
 328   0.0000       6.323494       172.0710 
 329   0.0000       6.329366       172.2308 
 330   0.0000       6.340646       172.5377 
 331   0.0000       6.351113       172.8226 
 332   0.0000       6.358000       173.0100 
 333   0.0000       6.382112       173.6661 
 334   0.0000       6.384164       173.7219 
 335   0.0000       6.392695       173.9541 
 336   0.0000       6.393489       173.9757 
 337   0.0000       6.409930       174.4231 
 338   0.0000       6.417258       174.6225 
 339   0.0000       6.422135       174.7552 
 340   0.0000       6.428201       174.9202 
 341   0.0000       6.438927       175.2121 
 342   0.0000       6.452840       175.5907 
 343   0.0000       6.460704       175.8047 
 344   0.0000       6.467942       176.0017 
 345   0.0000       6.473446       176.1514 
 346   0.0000       6.479817       176.3248 
 347   0.0000       6.498837       176.8424 
 348   0.0000       6.509504       177.1326 
 349   0.0000       6.518595       177.3800 
 350   0.0000       6.524664       177.5451 
 351   0.0000       6.532779       177.7659 
 352   0.0000       6.537822       177.9032 
 353   0.0000       6.544463       178.0839 
 354   0.0000       6.545887       178.1226 
 355   0.0000       6.548773       178.2012 
 356   0.0000       6.555608       178.3872 
 357   0.0000       6.560684       178.5253 
 358   0.0000       6.562821       178.5834 
 359   0.0000       6.575687       178.9335 
 360   0.0000       6.580863       179.0744 
 361   0.0000       6.585272       179.1944 
 362   0.0000       6.591459       179.3627 
 363   0.0000       6.595465       179.4717 
 364   0.0000       6.604622       179.7209 
 365   0.0000       6.606773       179.7794 
 366   0.0000       6.608543       179.8276 
 367   0.0000       6.616252       180.0374 
 368   0.0000       6.619357       180.1219 
 369   0.0000       6.620146       180.1433 
 370   0.0000       6.625009       180.2757 
 371   0.0000       6.628272       180.3645 
 372   0.0000       6.634015       180.5207 
 373   0.0000       6.640320       180.6923 
 374   0.0000       6.643083       180.7675 
[...]
     69 H        0.000      0.000      0.000      0.000      0.000      0.000
     70 H        0.000      0.000      0.000      0.000      0.003      0.036
     71 H        0.000      0.000      0.000     -0.000      0.001      0.021
     72 H        0.000      0.000      0.000      0.000      0.001      0.010
                 25 H       27 H       28 H       30 H       31 H       33 H  
      3 H        2.500     -0.106      0.068      0.000      0.000      2.434
      4 H        0.113     -0.004      0.004      0.000      0.000      0.101
      8 H       -0.337      0.012      0.000      0.000      0.000     -0.309
      9 H        0.000      0.000      0.000      0.000      0.000      0.138
     10 H        0.000      0.000      0.000      0.000      0.000      0.000
     11 H        0.000      0.000      0.000      0.000      0.000      0.000
     13 H       -0.101      0.004     -0.004      0.000      0.000     -0.105
     16 H       -0.372      0.012     -0.006     -0.022     -0.001     -0.345
     17 H       -0.364      0.011      0.000      0.000      0.000     -0.320
     19 H        0.940     -0.048      0.022      0.085      0.006      1.152
     21 H       -2.842      0.198      0.637     -0.214     -0.026     -2.619
     24 H      -14.040      4.310      2.305      0.725     -0.499     -0.127
     25 H        0.000     13.024      5.218     -0.624     -0.351     -2.370
     27 H       13.024      0.000    -13.559      3.960     12.993      0.069
     28 H        5.218    -13.559      0.000      2.669      4.083      0.282
     30 H       -0.624      3.960      2.669      0.000    -12.942      0.015
     31 H       -0.351     12.993      4.083    -12.942      0.000     -0.322
     33 H       -2.370      0.069      0.282      0.015     -0.322      0.000
     35 H        0.000      0.000      0.000      0.000      0.000      0.000
     37 H        0.268      0.006     -0.035      0.523     -0.037      6.403
     38 H        0.195      0.001     -0.029     -0.017      0.124     12.171
     40 H       -0.013      0.020      0.143     -0.003     -0.033     -0.239
     41 H        0.013      0.021     -0.027      0.013      0.080     -0.409
     42 H       -0.018      0.012     -0.010     -0.261     -0.373     -0.208
     45 H       -0.018     -0.219      0.016     -0.207     -0.487     -0.184
     46 H        0.012      0.047      0.069     -0.343      0.033      0.916
     47 H       -0.059     -0.124     -0.146     -0.155      1.811     -0.476
     48 H       -0.015      0.031      0.021      0.028      0.012      0.000
     52 H        0.001      0.001      0.002     -0.003      0.001      0.003
     53 H        0.000     -0.000      0.000      0.000     -0.002     -0.003
     57 H        0.000      0.000      0.000     -0.000      0.002      0.004
     58 H        0.000      0.000      0.000     -0.000      0.000      0.000
     61 H        0.000      0.000      0.000     -0.000      0.000      0.000
     62 H        0.000      0.000      0.000      0.000     -0.000      0.000
     63 H        0.000      0.000      0.000      0.000      0.000      0.000
     64 H        0.000      0.000      0.000      0.000      0.000      0.000
     65 H        0.000      0.000      0.000     -0.000      0.000      0.000
     66 H        0.000      0.000      0.000      0.000     -0.000      0.000
     67 H        0.000      0.000      0.000      0.000      0.000      0.000
     68 H        0.000      0.000      0.000      0.000      0.000      0.000
     69 H        0.000      0.000      0.000      0.000      0.000      0.000
     70 H        0.000     -0.010     -0.011      0.079     -0.047      0.004
     71 H        0.004     -0.009     -0.009     -0.453     -0.084      0.004
     72 H        0.000     -0.002     -0.004      0.070      0.011     -0.001
                 35 H       37 H       38 H       40 H       41 H       42 H  
      3 H       -0.076     -0.044     -0.039      0.000      0.000      0.000
      4 H       -0.166     -0.002     -0.002      0.000      0.000      0.000
      8 H        0.019      0.006      0.004      0.000      0.001      0.000
      9 H       -0.092     -0.002     -0.001      0.000     -0.000      0.000
     10 H       -0.180      0.000     -0.001      0.000      0.000      0.000
     11 H       -0.103     -0.000     -0.000      0.000      0.000      0.000
     13 H       13.753      0.002      0.001      0.000      0.000      0.000
     16 H        0.005      0.007      0.002     -0.001      0.001     -0.001
     17 H        0.007      0.005      0.005      0.000      0.002      0.000
     19 H       -0.005     -0.010      0.114      0.004     -0.010      0.006
     21 H       -0.004      0.039     -0.519     -0.010      0.059     -0.025
     24 H       -0.001     -0.052     -0.079     -0.020      0.070     -0.025
     25 H        0.000      0.268      0.195     -0.013      0.013     -0.018
     27 H        0.000      0.006      0.001      0.020      0.021      0.012
     28 H        0.000     -0.035     -0.029      0.143     -0.027     -0.010
     30 H        0.000      0.523     -0.017     -0.003      0.013     -0.261
     31 H        0.000     -0.037      0.124     -0.033      0.080     -0.373
     33 H        0.000      6.403     12.171     -0.239     -0.409     -0.208
     35 H        0.000      0.000      0.000      0.000      0.000      0.000
     37 H        0.000      0.000    -12.166      9.407      2.513     -0.261
     38 H        0.000    -12.166      0.000      6.808     11.511     -0.463
     40 H        0.000      9.407      6.808      0.000    -13.842      9.558
     41 H        0.000      2.513     11.511    -13.842      0.000      8.521
     42 H        0.000     -0.261     -0.463      9.558      8.521      0.000
     45 H        0.000      0.063      0.040     -0.078      0.008      1.135
     46 H        0.000     -0.172      0.008      0.048      0.041     -0.405
     47 H        0.000      0.072     -0.066     -0.109     -0.059     -0.069
     48 H        0.000      0.103     -0.009     -0.201     -0.431     10.356
     52 H        0.000     -0.000      0.002      0.079     -0.016     -0.293
     53 H        0.000      0.002      0.006     -0.118      0.019      0.070
     57 H        0.000     -0.004     -0.002      0.081     -0.011     -0.038
     58 H        0.000      0.001      0.001     -0.001      0.001     -0.002
     61 H        0.000      0.000     -0.000      0.001      0.000     -0.001
     62 H        0.000      0.000      0.000     -0.006      0.001      0.002
     63 H        0.000      0.000      0.000      0.032     -0.003     -0.011
     64 H        0.000     -0.002     -0.002     -0.017      0.003      0.001
     65 H        0.000     -0.002     -0.006     -0.171      0.001     -0.000
     66 H        0.000     -0.001     -0.002     -0.016      0.001     -0.000
     67 H        0.000      0.000      0.000      0.001     -0.000     -0.001
     68 H        0.000      0.000      0.000     -0.002     -0.001     -0.000
     69 H        0.000      0.000      0.000     -0.001      0.001     -0.001
     70 H        0.000      0.069      0.008     -0.022      0.006     -0.445
     71 H        0.000     -0.005      0.004      0.087      0.025     -0.192
     72 H        0.000     -0.020      0.036      0.028     -0.052     -0.336
                 45 H       46 H       47 H       48 H       52 H       53 H  
      3 H       -0.021      0.000      0.000      0.000      0.000      0.000
      4 H       -0.001     -0.001      0.001      0.000      0.000      0.000
      8 H        0.002      0.002     -0.003      0.000      0.000      0.000
      9 H       -0.001      0.000      0.001      0.000      0.000      0.000
     10 H       -0.001      0.000      0.000      0.000      0.000      0.000
     11 H       -0.000      0.000      0.000      0.000      0.000      0.000
     13 H        0.001      0.001     -0.001      0.000      0.000      0.000
     16 H        0.002      0.002     -0.004      0.000      0.000      0.000
     17 H        0.003      0.000     -0.004      0.000      0.000      0.000
     19 H       -0.010     -0.007      0.011      0.006      0.000      0.000
     21 H        0.032      0.013     -0.018     -0.016      0.002     -0.001
     24 H       -0.023     -0.016     -0.023      0.002      0.000      0.000
     25 H       -0.018      0.012     -0.059     -0.015      0.001      0.000
     27 H       -0.219      0.047     -0.124      0.031      0.001     -0.000
     28 H        0.016      0.069     -0.146      0.021      0.002      0.000
     30 H       -0.207     -0.343     -0.155      0.028     -0.003      0.000
     31 H       -0.487      0.033      1.811      0.012      0.001     -0.002
     33 H       -0.184      0.916     -0.476      0.000      0.003     -0.003
     35 H        0.000      0.000      0.000      0.000      0.000      0.000
     37 H        0.063     -0.172      0.072      0.103     -0.000      0.002
     38 H        0.040      0.008     -0.066     -0.009      0.002      0.006
     40 H       -0.078      0.048     -0.109     -0.201      0.079     -0.118
     41 H        0.008      0.041     -0.059     -0.431     -0.016      0.019
     42 H        1.135     -0.405     -0.069     10.356     -0.293      0.070
     45 H        0.000    -12.853    -13.547     -0.094      0.240     -0.001
     46 H      -12.853      0.000    -13.001     -0.031      0.072     -0.002
     47 H      -13.547    -13.001      0.000     -0.172      0.073     -0.002
     48 H       -0.094     -0.031     -0.172      0.000      9.645     -0.654
     52 H        0.240      0.072      0.073      9.645      0.000     16.795
     53 H       -0.001     -0.002     -0.002     -0.654     16.795      0.000
     57 H        0.000      0.001      0.003      0.090     -2.089      5.414
     58 H        0.000      0.000      0.001      0.060     -0.449     -0.576
     61 H        0.000     -0.000     -0.000      0.006     -0.036     -0.192
     62 H        0.000     -0.000     -0.000     -0.005      0.145     -0.240
     63 H        0.000      0.000      0.000      0.037     -0.397      0.038
     64 H        0.000      0.000      0.000     -0.001      0.012      0.078
     65 H        0.000      0.000     -0.000      0.001     -0.132      0.070
     66 H        0.000      0.000     -0.000     -0.000      0.005      0.017
     67 H        0.000      0.000      0.000      0.011      0.062      0.076
     68 H        0.000      0.000      0.000     -0.001      0.006      0.030
     69 H        0.000      0.000      0.000     -0.005      0.040      0.812
     70 H       -0.028     -0.015     -0.012      2.374     -0.155      0.107
     71 H       -0.051     -0.216     -0.022      4.405     -0.072     -0.403
     72 H       -0.032     -0.039      0.030     12.657     -0.266      0.098
                 57 H       58 H       61 H       62 H       63 H       64 H  
      3 H        0.000      0.000      0.000      0.000      0.000      0.000
      4 H        0.000      0.000      0.000      0.000      0.000      0.000
      8 H        0.000      0.000      0.000      0.000      0.000      0.000
      9 H        0.000      0.000      0.000      0.000      0.000      0.000
     10 H        0.000      0.000      0.000      0.000      0.000      0.000
     11 H        0.000      0.000      0.000      0.000      0.000      0.000
     13 H        0.000      0.000      0.000      0.000      0.000      0.000
     16 H        0.000      0.000      0.000      0.000      0.000      0.000
     17 H        0.000      0.000      0.000      0.000      0.000      0.000
     19 H        0.000      0.000      0.000      0.000      0.000      0.000
     21 H        0.000      0.000      0.000      0.000      0.000      0.000
     24 H        0.000      0.000      0.000      0.000      0.000      0.000
     25 H        0.000      0.000      0.000      0.000      0.000      0.000
     27 H        0.000      0.000      0.000      0.000      0.000      0.000
     28 H        0.000      0.000      0.000      0.000      0.000      0.000
     30 H       -0.000     -0.000     -0.000      0.000      0.000      0.000
     31 H        0.002      0.000      0.000     -0.000      0.000      0.000
     33 H        0.004      0.000      0.000      0.000      0.000      0.000
     35 H        0.000      0.000      0.000      0.000      0.000      0.000
     37 H       -0.004      0.001      0.000      0.000      0.000     -0.002
     38 H       -0.002      0.001     -0.000      0.000      0.000     -0.002
     40 H        0.081     -0.001      0.001     -0.006      0.032     -0.017
     41 H       -0.011      0.001      0.000      0.001     -0.003      0.003
     42 H       -0.038     -0.002     -0.001      0.002     -0.011      0.001
     45 H        0.000      0.000      0.000      0.000      0.000      0.000
     46 H        0.001      0.000     -0.000     -0.000      0.000      0.000
     47 H        0.003      0.001     -0.000     -0.000      0.000      0.000
     48 H        0.090      0.060      0.006     -0.005      0.037     -0.001
     52 H       -2.089     -0.449     -0.036      0.145     -0.397      0.012
     53 H        5.414     -0.576     -0.192     -0.240      0.038      0.078
     57 H        0.000     10.252      2.117     12.687      5.393     -0.223
     58 H       10.252      0.000     -0.494     -0.296     -0.150      3.579
     61 H        2.117     -0.494      0.000    -12.954    -13.072      0.638
     62 H       12.687     -0.296    -12.954      0.000    -11.403     -0.093
     63 H        5.393     -0.150    -13.072    -11.403      0.000      0.013
     64 H       -0.223      3.579      0.638     -0.093      0.013      0.000
     65 H       -0.263      2.839      0.035      0.018      0.010    -12.494
     66 H       -0.380     12.498     -0.060      0.054      0.028    -12.580
     67 H       -0.250     12.425     -0.024      0.100     -0.059     -0.211
     68 H       -0.177      4.286      0.105     -0.058     -0.089     -0.047
     69 H       -0.483      2.440     -0.003     -0.022      0.101     -0.239
     70 H       -0.058     -0.000     -0.001     -0.002      0.001     -0.000
     71 H        0.186     -0.007      0.014     -0.030      0.194     -0.003
     72 H       -0.067      0.000     -0.002      0.004     -0.028      0.000
                 65 H       66 H       67 H       68 H       69 H       70 H  
      3 H        0.000      0.000      0.000      0.000      0.000      0.000
      4 H        0.000      0.000      0.000      0.000      0.000      0.000
      8 H        0.000      0.000      0.000      0.000      0.000      0.000
      9 H        0.000      0.000      0.000      0.000      0.000      0.000
     10 H        0.000      0.000      0.000      0.000      0.000      0.000
     11 H        0.000      0.000      0.000      0.000      0.000      0.000
     13 H        0.000      0.000      0.000      0.000      0.000      0.000
     16 H        0.000      0.000      0.000      0.000      0.000      0.000
     17 H        0.000      0.000      0.000      0.000      0.000      0.000
     19 H        0.000      0.000      0.000      0.000      0.000      0.000
     21 H       -0.000      0.000      0.000      0.000      0.000      0.003
     24 H        0.000      0.000      0.000      0.000      0.000      0.036
     25 H        0.000      0.000      0.000      0.000      0.000      0.000
     27 H        0.000      0.000      0.000      0.000      0.000     -0.010
     28 H        0.000      0.000      0.000      0.000      0.000     -0.011
     30 H       -0.000      0.000      0.000      0.000      0.000      0.079
     31 H        0.000     -0.000      0.000      0.000      0.000     -0.047
     33 H        0.000      0.000      0.000      0.000      0.000      0.004
     35 H        0.000      0.000      0.000      0.000      0.000      0.000
     37 H       -0.002     -0.001      0.000      0.000      0.000      0.069
     38 H       -0.006     -0.002      0.000      0.000      0.000      0.008
     40 H       -0.171     -0.016      0.001     -0.002     -0.001     -0.022
     41 H        0.001      0.001     -0.000     -0.001      0.001      0.006
     42 H       -0.000     -0.000     -0.001     -0.000     -0.001     -0.445
     45 H        0.000      0.000      0.000      0.000      0.000     -0.028
     46 H        0.000      0.000      0.000      0.000      0.000     -0.015
     47 H       -0.000     -0.000      0.000      0.000      0.000     -0.012
     48 H        0.001     -0.000      0.011     -0.001     -0.005      2.374
     52 H       -0.132      0.005      0.062      0.006      0.040     -0.155
     53 H        0.070      0.017      0.076      0.030      0.812      0.107
     57 H       -0.263     -0.380     -0.250     -0.177     -0.483     -0.058
     58 H        2.839     12.498     12.425      4.286      2.440     -0.000
     61 H        0.035     -0.060     -0.024      0.105     -0.003     -0.001
     62 H        0.018      0.054      0.100     -0.058     -0.022     -0.002
     63 H        0.010      0.028     -0.059     -0.089      0.101      0.001
     64 H      -12.494    -12.580     -0.211     -0.047     -0.239     -0.000
     65 H        0.000    -12.710     -0.368      2.987      0.260     -0.001
     66 H      -12.710      0.000     -0.302     -0.174     -0.194     -0.001
     67 H       -0.368     -0.302      0.000    -11.978    -12.731      0.000
     68 H        2.987     -0.174    -11.978      0.000    -12.893      0.000
     69 H        0.260     -0.194    -12.731    -12.893      0.000     -0.001
     70 H       -0.001     -0.001      0.000      0.000     -0.001      0.000
     71 H        0.001     -0.003      0.000      0.000      0.000    -13.186
     72 H       -0.001      0.000     -0.001      0.000      0.001    -12.510
                 71 H       72 H  
      3 H        0.000      0.000
      4 H        0.000      0.000
      8 H        0.000      0.000
      9 H        0.000      0.000
     10 H        0.000      0.000
     11 H        0.000      0.000
     13 H        0.000      0.000
     16 H        0.000      0.000
     17 H        0.000      0.000
     19 H       -0.000      0.000
     21 H        0.001      0.001
     24 H        0.021      0.010
     25 H        0.004      0.000
     27 H       -0.009     -0.002
     28 H       -0.009     -0.004
     30 H       -0.453      0.070
     31 H       -0.084      0.011
     33 H        0.004     -0.001
     35 H        0.000      0.000
     37 H       -0.005     -0.020
     38 H        0.004      0.036
     40 H        0.087      0.028
     41 H        0.025     -0.052
     42 H       -0.192     -0.336
     45 H       -0.051     -0.032
     46 H       -0.216     -0.039
     47 H       -0.022      0.030
     48 H        4.405     12.657
     52 H       -0.072     -0.266
     53 H       -0.403      0.098
     57 H        0.186     -0.067
     58 H       -0.007      0.000
     61 H        0.014     -0.002
     62 H       -0.030      0.004
     63 H        0.194     -0.028
     64 H       -0.003      0.000
     65 H        0.001     -0.001
     66 H       -0.003      0.000
     67 H        0.000     -0.001
     68 H        0.000      0.000
     69 H        0.000      0.001
     70 H      -13.186    -12.510
     71 H        0.000    -12.415
     72 H      -12.415      0.000

Maximum memory used throughout the entire EPRNMR-calculation: 967.3 MB

Timings for individual modules:

Sum of individual times         ...      400.803 sec (=   6.680 min)
GTO integral calculation        ...        0.533 sec (=   0.009 min)   0.1 %
SCF iterations                  ...      100.724 sec (=   1.679 min)  25.1 %
EPR/NMR calculation             ...      299.546 sec (=   4.992 min)  74.7 %
                             ****ORCA TERMINATED NORMALLY****
TOTAL RUN TIME: 0 days 0 hours 6 minutes 41 seconds 210 msec
