
                                 *****************
                                 * O   R   C   A *
                                 *****************

                                            #,                                       
                                            ###                                      
                                            ####                                     
                                            #####                                    
                                            ######                                   
                                           ########,                                 
                                     ,,################,,,,,                         
                               ,,#################################,,                 
                          ,,##########################################,,             
                       ,#########################################, ''#####,          
                    ,#############################################,,   '####,        
                  ,##################################################,,,,####,       
                ,###########''''           ''''###############################       
              ,#####''   ,,,,##########,,,,          '''####'''          '####       
            ,##' ,,,,###########################,,,                        '##       
           ' ,,###''''                  '''############,,,                           
         ,,##''                                '''############,,,,        ,,,,,,###''
      ,#''                                            '''#######################'''  
     '                                                          ''''####''''         
             ,#######,   #######,   ,#######,      ##                                
            ,#'     '#,  ##    ##  ,#'     '#,    #''#        ######   ,####,        
            ##       ##  ##   ,#'  ##            #'  '#       #        #'  '#        
            ##       ##  #######   ##           ,######,      #####,   #    #        
            '#,     ,#'  ##    ##  '#,     ,#' ,#      #,         ##   #,  ,#        
             '#######'   ##     ##  '#######'  #'      '#     #####' # '####'        



                  #######################################################
                  #                        -***-                        #
                  #          Department of theory and spectroscopy      #
                  #    Directorship and core code : Frank Neese         #
                  #        Max Planck Institute fuer Kohlenforschung    #
                  #                Kaiser Wilhelm Platz 1               #
                  #                 D-45470 Muelheim/Ruhr               #
                  #                      Germany                        #
                  #                                                     #
                  #                  All rights reserved                #
                  #                        -***-                        #
                  #######################################################


                         Program Version 5.0.2 -  RELEASE  -


 With contributions from (in alphabetic order):
   Daniel Aravena         : Magnetic Suceptibility
   Michael Atanasov       : Ab Initio Ligand Field Theory (pilot matlab implementation)
   Alexander A. Auer      : GIAO ZORA, VPT2 properties, NMR spectrum
   Ute Becker             : Parallelization
   Giovanni Bistoni       : ED, misc. LED, open-shell LED, HFLD
   Martin Brehm           : Molecular dynamics
   Dmytro Bykov           : SCF Hessian
   Vijay G. Chilkuri      : MRCI spin determinant printing, contributions to CSF-ICE
   Dipayan Datta          : RHF DLPNO-CCSD density
   Achintya Kumar Dutta   : EOM-CC, STEOM-CC
   Dmitry Ganyushin       : Spin-Orbit,Spin-Spin,Magnetic field MRCI
   Miquel Garcia          : C-PCM and meta-GGA Hessian, CC/C-PCM, Gaussian charge scheme
   Yang Guo               : DLPNO-NEVPT2, F12-NEVPT2, CIM, IAO-localization
   Andreas Hansen         : Spin unrestricted coupled pair/coupled cluster methods
   Benjamin Helmich-Paris : MC-RPA, TRAH-SCF, COSX integrals
   Lee Huntington         : MR-EOM, pCC
   Robert Izsak           : Overlap fitted RIJCOSX, COSX-SCS-MP3, EOM
   Marcus Kettner         : VPT2
   Christian Kollmar      : KDIIS, OOCD, Brueckner-CCSD(T), CCSD density, CASPT2, CASPT2-K
   Simone Kossmann        : Meta GGA functionals, TD-DFT gradient, OOMP2, MP2 Hessian
   Martin Krupicka        : Initial AUTO-CI
   Lucas Lang             : DCDCAS
   Marvin Lechner         : AUTO-CI (C++ implementation), FIC-MRCC
   Dagmar Lenk            : GEPOL surface, SMD
   Dimitrios Liakos       : Extrapolation schemes; Compound Job, initial MDCI parallelization
   Dimitrios Manganas     : Further ROCIS development; embedding schemes
   Dimitrios Pantazis     : SARC Basis sets
   Anastasios Papadopoulos: AUTO-CI, single reference methods and gradients
   Taras Petrenko         : DFT Hessian,TD-DFT gradient, ASA, ECA, R-Raman, ABS, FL, XAS/XES, NRVS
   Peter Pinski           : DLPNO-MP2, DLPNO-MP2 Gradient
   Christoph Reimann      : Effective Core Potentials
   Marius Retegan         : Local ZFS, SOC
   Christoph Riplinger    : Optimizer, TS searches, QM/MM, DLPNO-CCSD(T), (RO)-DLPNO pert. Triples
   Tobias Risthaus        : Range-separated hybrids, TD-DFT gradient, RPA, STAB
   Michael Roemelt        : Original ROCIS implementation
   Masaaki Saitow         : Open-shell DLPNO-CCSD energy and density
   Barbara Sandhoefer     : DKH picture change effects
   Avijit Sen             : IP-ROCIS
   Kantharuban Sivalingam : CASSCF convergence, NEVPT2, FIC-MRCI
   Bernardo de Souza      : ESD, SOC TD-DFT
   Georgi Stoychev        : AutoAux, RI-MP2 NMR, DLPNO-MP2 response
   Willem Van den Heuvel  : Paramagnetic NMR
   Boris Wezisla          : Elementary symmetry handling
   Frank Wennmohs         : Technical directorship


 We gratefully acknowledge several colleagues who have allowed us to
 interface, adapt or use parts of their codes:
   Stefan Grimme, W. Hujo, H. Kruse, P. Pracht,  : VdW corrections, initial TS optimization,
                  C. Bannwarth, S. Ehlert          DFT functionals, gCP, sTDA/sTD-DF
   Ed Valeev, F. Pavosevic, A. Kumar             : LibInt (2-el integral package), F12 methods
   Garnet Chan, S. Sharma, J. Yang, R. Olivares  : DMRG
   Ulf Ekstrom                                   : XCFun DFT Library
   Mihaly Kallay                                 : mrcc  (arbitrary order and MRCC methods)
   Jiri Pittner, Ondrej Demel                    : Mk-CCSD
   Frank Weinhold                                : gennbo (NPA and NBO analysis)
   Christopher J. Cramer and Donald G. Truhlar   : smd solvation model
   Lars Goerigk                                  : TD-DFT with DH, B97 family of functionals
   V. Asgeirsson, H. Jonsson                     : NEB implementation
   FAccTs GmbH                                   : IRC, NEB, NEB-TS, DLPNO-Multilevel, CI-OPT
                                                   MM, QMMM, 2- and 3-layer-ONIOM, Crystal-QMMM,
                                                   LR-CPCM, SF, NACMEs, symmetry and pop. for TD-DFT,
                                                   nearIR, NL-DFT gradient (VV10), updates on ESD,
                                                   ML-optimized integration grids
   S Lehtola, MJT Oliveira, MAL Marques          : LibXC Library
   Liviu Ungur et al                             : ANISO software


 Your calculation uses the libint2 library for the computation of 2-el integrals
 For citations please refer to: http://libint.valeyev.net

 Your ORCA version has been built with support for libXC version: 5.1.0
 For citations please refer to: https://tddft.org/programs/libxc/

 This ORCA versions uses:
   CBLAS   interface :  Fast vector & matrix operations
   LAPACKE interface :  Fast linear algebra routines
   SCALAPACK package :  Parallel linear algebra routines
   Shared memory     :  Shared parallel matrices
   BLAS/LAPACK       :  OpenBLAS 0.3.15  USE64BITINT DYNAMIC_ARCH NO_AFFINITY Zen SINGLE_THREADED
        Core in use  :  Zen
   Copyright (c) 2011-2014, The OpenBLAS Project


Your calculation utilizes the atom-pairwise dispersion correction
based on tight binding partial charges (D4)
Cite in your paper:
E.Caldeweyher, C.Bannwarth, S.Grimme, J.Chem.Phys., (2017), 147, 034112.
E.Caldeweyher, S.Ehlert, A.Hansen, H.Neugebauer, S.Grimme, J.Chem.Phys., (2018), in progress.
   

================================================================================

----- Orbital basis set information -----
Your calculation utilizes the basis: pcSseg-1
   F. Jensen, J. Chem. Theory Comput. 11, 132 (2015).

----- AuxJ basis set information -----
Your calculation utilizes the auxiliary basis: def2/J
   F. Weigend, Phys. Chem. Chem. Phys. 8, 1057 (2006).

================================================================================
                                        WARNINGS
                       Please study these warnings very carefully!
================================================================================



WARNING: Found flag for RIJCOSX approximation but no HF exchange needed!
  ===> : RIJCOSX  will be disabled and Split-RI-J is turned on

INFO   : the flag for use of the SHARK integral package has been found!

================================================================================
                                       INPUT FILE
================================================================================
NAME = inpS
|  1> ! revTPSS
|  2> ! D4
|  3> ! pcSseg-1
|  4> ! def2/J RIJCOSX
|  5> ! DEFGRID2
|  6> ! scfconv7
|  7> ! smallprint printgap noloewdin
|  8> ! NOSOSCF
|  9> %MaxCore 4000
| 10> %output
| 11>        print[P_BondOrder_M] 1
| 12>        print[P_Mayer] 1
| 13>        print[P_basis] 2
| 14> end
| 15> %pal
| 16>     nprocs 4
| 17> end
| 18> ! CPCM(chloroform)
| 19> *xyz 0 1
| 20> C   -5.0507508800   0.2641967600   0.3215146500
| 21> C   -6.4574780800  -0.1556776200  -0.0345912800
| 22> C   -7.0122567200   0.6533996600  -1.2133751400
| 23> H   -7.1219674100   0.0264256400   0.8271947800
| 24> H   -6.4950596900  -1.2260101000  -0.2653043200
| 25> C   -4.8787914000   1.7224169100   0.4945906300
| 26> C   -5.4747088600   2.5575705200  -0.6161056200
| 27> C   -6.9219875700   2.1468349700  -0.9198613200
| 28> H   -4.8732985000   2.4058725500  -1.5252678300
| 29> H   -5.4201864800   3.6211499200  -0.3611102900
| 30> H   -7.3071129400   2.7153106500  -1.7745746800
| 31> H   -7.5600318400   2.3742281400  -0.0524886600
| 32> O   -8.3510522500   0.2525928200  -1.5332664300
| 33> H   -6.4254486200   0.4228409000  -2.1135445600
| 34> C   -4.0559625000  -0.6493796500   0.4184033300
| 35> C   -4.2896870300   2.2729140300   1.5622629400
| 36> H   -3.8905953400   1.6615718100   2.3669015600
| 37> H   -4.2036623100   3.3526616500   1.6587362800
| 38> C   -2.6586476800  -0.3741089200   0.6610896200
| 39> H   -4.3404058800  -1.6884395300   0.2579656100
| 40> C   -1.6804308100  -1.2880700400   0.8381323700
| 41> H   -2.3796533400   0.6766351200   0.6939071900
| 42> C   -1.8685117000  -2.7837790600   0.8721175900
| 43> C   -0.9162256700  -3.5023418800  -0.1022303800
| 44> H   -2.9017415600  -3.0774088300   0.6678289500
| 45> H   -1.6369140500  -3.1273711000   1.8930981900
| 46> C    0.5456553500  -3.0686277500   0.0723530200
| 47> H   -1.2414512800  -3.3047764600  -1.1315338000
| 48> H   -0.9982349400  -4.5858437500   0.0479430300
| 49> C    0.7030921000  -1.5447496000  -0.0210328300
| 50> H    1.1601819100  -3.5798523700  -0.6758769700
| 51> H    0.9042012000  -3.3954408100   1.0602237800
| 52> C   -0.2453298000  -0.9102848600   1.0445590000
| 53> H    0.0624871000  -1.3756554100   1.9994584100
| 54> C    0.1838109500   0.5527333700   1.1011693900
| 55> H   -8.9049781900   0.4472804600  -0.7654123100
| 56> C    1.7187187800   0.4859955600   0.9076530100
| 57> H   -0.1068556500   1.0319793400   2.0420042300
| 58> H   -0.2811100000   1.1244591000   0.2901689700
| 59> C    2.0628532700  -0.9673101400   0.4614818800
| 60> H    2.2544987800   0.7432523300   1.8267273800
| 61> H    2.0508212900   1.2016107000   0.1463221800
| 62> H    2.3477538100  -1.5487223100   1.3539142700
| 63> C    3.2680025600  -0.9935737600  -0.4999002600
| 64> C    0.3634264100  -1.0396801600  -1.4301592300
| 65> H   -0.6985463600  -1.1730200400  -1.6586263300
| 66> H    0.9420020000  -1.5833522100  -2.1851514200
| 67> H    0.5900528900   0.0253093800  -1.5425601700
| 68> H    3.0221804800  -0.3826300800  -1.3813402000
| 69> C    3.6429383000  -2.4068740200  -0.9719600900
| 70> C    4.4626228800  -0.3722673900   0.1758739200
| 71> C    5.1175438400   0.6991743900  -0.2688983900
| 72> H    4.7902270200  -0.8801392000   1.0861217100
| 73> H    4.7569299600   1.1691878300  -1.1881417000
| 74> C    6.3742835500   1.3215500700   0.2949958800
| 75> C    7.5282710900   1.0084856200  -0.6768566300
| 76> C    6.6912917300   0.9289217700   1.7512468700
| 77> H    6.2292979600   2.4156258200   0.2824762400
| 78> H    6.6989967100  -0.1701024100   1.8126653100
| 79> C    5.6261162700   1.4709394200   2.7108537300
| 80> C    8.0703269900   1.4286180600   2.1958045200
| 81> H    7.2236726200   1.2076294800  -1.7099838900
| 82> H    7.8046636300  -0.0507604800  -0.6076135500
| 83> H    8.4146578400   1.6143300400  -0.4670101700
| 84> H    5.8162931400   1.1323995100   3.7354173100
| 85> H    4.6187009700   1.1557421200   2.4270806600
| 86> H    5.6478462800   2.5683568500   2.7122147400
| 87> H    8.1549011400   2.5130287100   2.0465806700
| 88> H    8.8848336900   0.9459658900   1.6483627800
| 89> H    8.2197778100   1.2260698600   3.2620502900
| 90> H    4.5750186100  -2.3778800700  -1.5464762700
| 91> H    2.8682408500  -2.8393488400  -1.6101118300
| 92> H    3.7926363500  -3.0756172400  -0.1154035600
| 93> *
| 94> %eprnmr
| 95>  Nuclei = all H { shift }
| 96>  origin giao
| 97>  giao_2el giao_2el_same_as_scf
| 98>  giao_1el giao_1el_analytic
| 99> end
|100> 
|101>                          ****END OF INPUT****
================================================================================

                       ****************************
                       * Single Point Calculation *
                       ****************************

---------------------------------
CARTESIAN COORDINATES (ANGSTROEM)
---------------------------------
  C     -5.050751    0.264197    0.321515
  C     -6.457478   -0.155678   -0.034591
  C     -7.012257    0.653400   -1.213375
  H     -7.121967    0.026426    0.827195
  H     -6.495060   -1.226010   -0.265304
  C     -4.878791    1.722417    0.494591
  C     -5.474709    2.557571   -0.616106
  C     -6.921988    2.146835   -0.919861
  H     -4.873298    2.405873   -1.525268
  H     -5.420186    3.621150   -0.361110
  H     -7.307113    2.715311   -1.774575
  H     -7.560032    2.374228   -0.052489
  O     -8.351052    0.252593   -1.533266
  H     -6.425449    0.422841   -2.113545
  C     -4.055962   -0.649380    0.418403
  C     -4.289687    2.272914    1.562263
  H     -3.890595    1.661572    2.366902
  H     -4.203662    3.352662    1.658736
  C     -2.658648   -0.374109    0.661090
  H     -4.340406   -1.688440    0.257966
  C     -1.680431   -1.288070    0.838132
  H     -2.379653    0.676635    0.693907
  C     -1.868512   -2.783779    0.872118
  C     -0.916226   -3.502342   -0.102230
  H     -2.901742   -3.077409    0.667829
  H     -1.636914   -3.127371    1.893098
  C      0.545655   -3.068628    0.072353
  H     -1.241451   -3.304776   -1.131534
  H     -0.998235   -4.585844    0.047943
  C      0.703092   -1.544750   -0.021033
  H      1.160182   -3.579852   -0.675877
  H      0.904201   -3.395441    1.060224
  C     -0.245330   -0.910285    1.044559
  H      0.062487   -1.375655    1.999458
  C      0.183811    0.552733    1.101169
  H     -8.904978    0.447280   -0.765412
  C      1.718719    0.485996    0.907653
  H     -0.106856    1.031979    2.042004
  H     -0.281110    1.124459    0.290169
  C      2.062853   -0.967310    0.461482
  H      2.254499    0.743252    1.826727
  H      2.050821    1.201611    0.146322
  H      2.347754   -1.548722    1.353914
  C      3.268003   -0.993574   -0.499900
  C      0.363426   -1.039680   -1.430159
  H     -0.698546   -1.173020   -1.658626
  H      0.942002   -1.583352   -2.185151
  H      0.590053    0.025309   -1.542560
  H      3.022180   -0.382630   -1.381340
  C      3.642938   -2.406874   -0.971960
  C      4.462623   -0.372267    0.175874
  C      5.117544    0.699174   -0.268898
  H      4.790227   -0.880139    1.086122
  H      4.756930    1.169188   -1.188142
  C      6.374284    1.321550    0.294996
  C      7.528271    1.008486   -0.676857
  C      6.691292    0.928922    1.751247
  H      6.229298    2.415626    0.282476
  H      6.698997   -0.170102    1.812665
  C      5.626116    1.470939    2.710854
  C      8.070327    1.428618    2.195805
  H      7.223673    1.207629   -1.709984
  H      7.804664   -0.050760   -0.607614
  H      8.414658    1.614330   -0.467010
  H      5.816293    1.132400    3.735417
  H      4.618701    1.155742    2.427081
  H      5.647846    2.568357    2.712215
  H      8.154901    2.513029    2.046581
  H      8.884834    0.945966    1.648363
  H      8.219778    1.226070    3.262050
  H      4.575019   -2.377880   -1.546476
  H      2.868241   -2.839349   -1.610112
  H      3.792636   -3.075617   -0.115404

----------------------------
CARTESIAN COORDINATES (A.U.)
----------------------------
  NO LB      ZA    FRAG     MASS         X           Y           Z
   0 C     6.0000    0    12.011   -9.544536    0.499260    0.607575
   1 C     6.0000    0    12.011  -12.202865   -0.294188   -0.065368
   2 C     6.0000    0    12.011  -13.251245    1.234746   -2.292947
   3 H     1.0000    0     1.008  -13.458568    0.049937    1.563172
   4 H     1.0000    0     1.008  -12.273884   -2.316823   -0.501353
   5 C     6.0000    0    12.011   -9.219580    3.254896    0.934641
   6 C     6.0000    0    12.011  -10.345700    4.833108   -1.164271
   7 C     6.0000    0    12.011  -13.080661    4.056930   -1.738286
   8 H     1.0000    0     1.008   -9.209200    4.546440   -2.882338
   9 H     1.0000    0     1.008  -10.242668    6.842982   -0.682400
  10 H     1.0000    0     1.008  -13.808442    5.131193   -3.353460
  11 H     1.0000    0     1.008  -14.286390    4.486641   -0.099189
  12 O     8.0000    0    15.999  -15.781202    0.477331   -2.897454
  13 H     1.0000    0     1.008  -12.142338    0.799053   -3.994020
  14 C     6.0000    0    12.011   -7.664658   -1.227150    0.790668
  15 C     6.0000    0    12.011   -8.106334    4.295185    2.952249
  16 H     1.0000    0     1.008   -7.352160    3.139916    4.472796
  17 H     1.0000    0     1.008   -7.943771    6.335612    3.134557
  18 C     6.0000    0    12.011   -5.024116   -0.706963    1.249278
  19 H     1.0000    0     1.008   -8.202178   -3.190688    0.487484
  20 C     6.0000    0    12.011   -3.175554   -2.434100    1.583841
  21 H     1.0000    0     1.008   -4.496893    1.278655    1.311295
  22 C     6.0000    0    12.011   -3.530975   -5.260580    1.648063
  23 C     6.0000    0    12.011   -1.731416   -6.618467   -0.193187
  24 H     1.0000    0     1.008   -5.483497   -5.815460    1.262014
  25 H     1.0000    0     1.008   -3.093319   -5.909875    3.577437
  26 C     6.0000    0    12.011    1.031139   -5.798866    0.136727
  27 H     1.0000    0     1.008   -2.346003   -6.245122   -2.138289
  28 H     1.0000    0     1.008   -1.886391   -8.665989    0.090599
  29 C     6.0000    0    12.011    1.328652   -2.919154   -0.039746
  30 H     1.0000    0     1.008    2.192426   -6.764941   -1.277222
  31 H     1.0000    0     1.008    1.708693   -6.416453    2.003533
  32 C     6.0000    0    12.011   -0.463606   -1.720189    1.973930
  33 H     1.0000    0     1.008    0.118084   -2.599612    3.778429
  34 C     6.0000    0    12.011    0.347352    1.044515    2.080909
  35 H     1.0000    0     1.008  -16.827970    0.845238   -1.446420
  36 C     6.0000    0    12.011    3.247908    0.918399    1.715216
  37 H     1.0000    0     1.008   -0.201928    1.950158    3.858829
  38 H     1.0000    0     1.008   -0.531221    2.124920    0.548340
  39 C     6.0000    0    12.011    3.898228   -1.827951    0.872074
  40 H     1.0000    0     1.008    4.260385    1.404543    3.452014
  41 H     1.0000    0     1.008    3.875491    2.270715    0.276509
  42 H     1.0000    0     1.008    4.436612   -2.926661    2.558527
  43 C     6.0000    0    12.011    6.175630   -1.877582   -0.944675
  44 C     6.0000    0    12.011    0.686776   -1.964711   -2.702609
  45 H     1.0000    0     1.008   -1.320061   -2.216687   -3.134350
  46 H     1.0000    0     1.008    1.780126   -2.992102   -4.129338
  47 H     1.0000    0     1.008    1.115038    0.047828   -2.915016
  48 H     1.0000    0     1.008    5.711093   -0.723066   -2.610355
  49 C     6.0000    0    12.011    6.884156   -4.548333   -1.836738
  50 C     6.0000    0    12.011    8.433135   -0.703483    0.332354
  51 C     6.0000    0    12.011    9.670756    1.321248   -0.508144
  52 H     1.0000    0     1.008    9.052217   -1.663222    2.052473
  53 H     1.0000    0     1.008    8.989295    2.209445   -2.245262
  54 C     6.0000    0    12.011   12.045650    2.497368    0.557461
  55 C     6.0000    0    12.011   14.226371    1.905762   -1.279074
  56 C     6.0000    0    12.011   12.644709    1.755408    3.309377
  57 H     1.0000    0     1.008   11.771667    4.564871    0.533803
  58 H     1.0000    0     1.008   12.659269   -0.321447    3.425441
  59 C     6.0000    0    12.011   10.631819    2.779673    5.122771
  60 C     6.0000    0    12.011   15.250708    2.699697    4.149469
  61 H     1.0000    0     1.008   13.650763    2.282089   -3.231401
  62 H     1.0000    0     1.008   14.748677   -0.095923   -1.148223
  63 H     1.0000    0     1.008   15.901399    3.050642   -0.882521
  64 H     1.0000    0     1.008   10.991201    2.139925    7.058916
  65 H     1.0000    0     1.008    8.728080    2.184036    4.586518
  66 H     1.0000    0     1.008   10.672883    4.853491    5.125343
  67 H     1.0000    0     1.008   15.410530    4.748936    3.867477
  68 H     1.0000    0     1.008   16.789902    1.787616    3.114954
  69 H     1.0000    0     1.008   15.533129    2.316936    6.164382
  70 H     1.0000    0     1.008    8.645532   -4.493542   -2.922417
  71 H     1.0000    0     1.008    5.420190   -5.365592   -3.042670
  72 H     1.0000    0     1.008    7.167044   -5.812074   -0.218081

--------------------------------
INTERNAL COORDINATES (ANGSTROEM)
--------------------------------
 C      0   0   0     0.000000000000     0.00000000     0.00000000
 C      1   0   0     1.510624818935     0.00000000     0.00000000
 C      2   1   0     1.533596026667   111.80372424     0.00000000
 H      2   1   3     1.103350751211   109.31905206   241.48347658
 H      2   1   3     1.095560359806   110.67914691   122.93793640
 C      1   2   3     1.478489554742   114.20739729    50.32969043
 C      6   1   2     1.512033508621   114.38941107   312.01333785
 C      3   2   1     1.524679608025   110.32654976   305.19365822
 H      7   6   1     1.100582854359   108.37981658   290.26039237
 H      7   6   1     1.095078284118   110.22934944   172.98620608
 H      8   3   2     1.096367218195   109.69472657   179.15934040
 H      8   3   2     1.100519638879   108.65018052   296.62316725
 O      3   2   1     1.433649201010   111.21264470   180.48452348
 H      3   2   1     1.099002307887   109.01063674    65.29964947
 C      1   2   3     1.354109742304   120.89464513   232.41291917
 C      6   1   2     1.337914496305   123.39773175   129.74049009
 H     16   6   1     1.086488286074   121.41387717     0.68023339
 H     16   6   1     1.087456794856   120.94194805   181.34494873
 C     15   1   2     1.444700424427   126.44258591   175.55308290
 H     15   1   2     1.089171121840   116.18254965   358.08349813
 C     19  15   1     1.350398944369   126.41978293   175.69309093
 H     19  15   1     1.087647862246   115.92791820   355.16177036
 C     21  19  15     1.507870978854   125.72877242   357.36027793
 C     23  21  19     1.540303598601   111.80025203   127.97566475
 H     23  21  19     1.093396649830   112.33617298     3.84298487
 H     23  21  19     1.101859495132   107.69686911   246.58918015
 C     24  23  21     1.534823581638   112.64890684    50.97413485
 H     24  23  21     1.097392055285   109.03281866   288.86902603
 H     24  23  21     1.096929293861   109.14586925   172.90100798
 C     27  24  23     1.534832845387   111.79862023   306.04988509
 H     27  24  23     1.094916262997   108.96006875   182.51766137
 H     27  24  23     1.100568281027   109.17699353    66.01392153
 C     21  19  15     1.498281850889   122.76897606   178.10883695
 H     33  21  19     1.105962872773   106.22716353   123.73336634
 C     33  21  19     1.525709297631   121.08499376     1.59291203
 H     13   3   2     0.966611180245   107.55285812    62.80985641
 C     35  33  21     1.548497520569   103.46433329   195.86910080
 H     35  33  21     1.095141072317   112.13883134    73.89198005
 H     35  33  21     1.095784413712   110.70224266   314.28195356
 C     30  27  24     1.554093695622   116.08898625   166.36173693
 H     37  35  33     1.094503975188   111.72502921   250.06401443
 H     37  35  33     1.096367519792   111.03285829   131.52433912
 H     40  30  27     1.102562469812   106.34737960   321.03557388
 C     40  30  27     1.541859334711   118.94453579    81.83434985
 C     30  27  24     1.534960954344   111.09117245   294.25270894
 H     45  30  27     1.094423548542   111.48623117    66.97247129
 H     45  30  27     1.095601304424   110.63898919   306.83344895
 H     45  30  27     1.094621511327   111.62861817   187.01144354
 H     44  40  30     1.100280438331   108.38616116    61.94621850
 C     44  40  30     1.536500867929   113.45090585   301.23121873
 C     44  40  30     1.506588881120   109.45512714   179.40282423
 C     51  44  40     1.332190436657   124.87135399   239.87137265
 H     51  44  40     1.092615800333   114.81805615    60.84171966
 H     52  51  44     1.093601054868   117.65785867     0.57307591
 C     52  51  44     1.511529997547   127.97746385   184.64199951
 C     55  52  51     1.540841943070   107.68178125   107.70954917
 C     55  52  51     1.541206707104   114.74741714   340.99299553
 H     55  52  51     1.103711606096   107.13995257   222.52716839
 H     57  55  52     1.100765978632   107.96951399    53.51908063
 C     57  55  52     1.532718897664   111.01033370   294.28903593
 C     57  55  52     1.532666348145   112.09104179   171.90780245
 H     56  55  52     1.095349460335   110.46859764    46.49980569
 H     56  55  52     1.096900059559   110.18794181   287.53254399
 H     56  55  52     1.093967306913   111.92020328   166.61671339
 H     60  57  55     1.095676522523   110.82766699   176.09213081
 H     60  57  55     1.093051727897   112.08586449    54.99421153
 H     60  57  55     1.097633391142   109.91221607   295.04580125
 H     61  57  55     1.097892072150   110.60448818    55.07389298
 H     61  57  55     1.093648362247   112.39760160   294.16165606
 H     61  57  55     1.095555276088   110.16712511   174.05420547
 H     50  44  40     1.095300504203   110.14872489   187.09301693
 H     50  44  40     1.092899012826   111.74066367    67.16952618
 H     50  44  40     1.096957651669   110.74153058   306.53669619

---------------------------
INTERNAL COORDINATES (A.U.)
---------------------------
 C      0   0   0     0.000000000000     0.00000000     0.00000000
 C      1   0   0     2.854667198891     0.00000000     0.00000000
 C      2   1   0     2.898076490471   111.80372424     0.00000000
 H      2   1   3     2.085030749444   109.31905206   241.48347658
 H      2   1   3     2.070309043214   110.67914691   122.93793640
 C      1   2   3     2.793940350325   114.20739729    50.32969043
 C      6   1   2     2.857329236606   114.38941107   312.01333785
 C      3   2   1     2.881226901142   110.32654976   305.19365822
 H      7   6   1     2.079800182428   108.37981658   290.26039237
 H      7   6   1     2.069398052188   110.22934944   172.98620608
 H      8   3   2     2.071833784597   109.69472657   179.15934040
 H      8   3   2     2.079680722483   108.65018052   296.62316725
 O      3   2   1     2.709204362024   111.21264470   180.48452348
 H      3   2   1     2.076813382454   109.01063674    65.29964947
 C      1   2   3     2.558896568230   120.89464513   232.41291917
 C      6   1   2     2.528291988619   123.39773175   129.74049009
 H     16   6   1     2.053165308394   121.41387717     0.68023339
 H     16   6   1     2.054995524749   120.94194805   181.34494873
 C     15   1   2     2.730088147727   126.44258591   175.55308290
 H     15   1   2     2.058235133253   116.18254965   358.08349813
 C     19  15   1     2.551884176393   126.41978293   175.69309093
 H     19  15   1     2.055356589790   115.92791820   355.16177036
 C     21  19  15     2.849463195322   125.72877242   357.36027793
 C     23  21  19     2.910751964449   111.80025203   127.97566475
 H     23  21  19     2.066220223925   112.33617298     3.84298487
 H     23  21  19     2.082212683861   107.69686911   246.58918015
 C     24  23  21     2.900396233181   112.64890684    50.97413485
 H     24  23  21     2.073770446030   109.03281866   288.86902603
 H     24  23  21     2.072895953673   109.14586925   172.90100798
 C     27  24  23     2.900413739128   111.79862023   306.04988509
 H     27  24  23     2.069091876641   108.96006875   182.51766137
 H     27  24  23     2.079772642821   109.17699353    66.01392153
 C     21  19  15     2.831342369605   122.76897606   178.10883695
 H     33  21  19     2.089966943825   106.22716353   123.73336634
 C     33  21  19     2.883172732501   121.08499376     1.59291203
 H     13   3   2     1.826630408649   107.55285812    62.80985641
 C     35  33  21     2.926236232931   103.46433329   195.86910080
 H     35  33  21     2.069516704687   112.13883134    73.89198005
 H     35  33  21     2.070732443734   110.70224266   314.28195356
 C     30  27  24     2.936811471179   116.08898625   166.36173693
 H     37  35  33     2.068312765593   111.72502921   250.06401443
 H     37  35  33     2.071834354533   111.03285829   131.52433912
 H     40  30  27     2.083541113484   106.34737960   321.03557388
 C     40  30  27     2.913691879633   118.94453579    81.83434985
 C     30  27  24     2.900655829973   111.09117245   294.25270894
 H     45  30  27     2.068160781258   111.48623117    66.97247129
 H     45  30  27     2.070386417329   110.63898919   306.83344895
 H     45  30  27     2.068534876707   111.62861817   187.01144354
 H     44  40  30     2.079228698957   108.38616116    61.94621850
 C     44  40  30     2.903565844917   113.45090585   301.23121873
 C     44  40  30     2.847040381727   109.45512714   179.40282423
 C     51  44  40     2.517475083510   124.87135399   239.87137265
 H     51  44  40     2.064744632225   114.81805615    60.84171966
 H     52  51  44     2.066606493468   117.65785867     0.57307591
 C     52  51  44     2.856377738571   127.97746385   184.64199951
 C     55  52  51     2.911769288061   107.68178125   107.70954917
 C     55  52  51     2.912458592190   114.74741714   340.99299553
 H     55  52  51     2.085712666352   107.13995257   222.52716839
 H     57  55  52     2.080146237152   107.96951399    53.51908063
 C     57  55  52     2.896418956871   111.01033370   294.28903593
 C     57  55  52     2.896319652672   112.09104179   171.90780245
 H     56  55  52     2.069910500972   110.46859764    46.49980569
 H     56  55  52     2.072840708849   110.18794181   287.53254399
 H     56  55  52     2.067298609530   111.92020328   166.61671339
 H     60  57  55     2.070528558936   110.82766699   176.09213081
 H     60  57  55     2.065568415935   112.08586449    54.99421153
 H     60  57  55     2.074226504706   109.91221607   295.04580125
 H     61  57  55     2.074715340967   110.60448818    55.07389298
 H     61  57  55     2.066695891458   112.39760160   294.16165606
 H     61  57  55     2.070299436379   110.16712511   174.05420547
 H     50  44  40     2.069817987290   110.14872489   187.09301693
 H     50  44  40     2.065279826274   111.74066367    67.16952618
 H     50  44  40     2.072949542164   110.74153058   306.53669619

---------------------
BASIS SET INFORMATION
---------------------
There are 3 groups of distinct atoms

 Group   1 Type C   : 8s5p1d contracted to 3s3p1d pattern {521/311/1}
 Group   2 Type H   : 4s2p contracted to 2s1p pattern {31/2}
 Group   3 Type O   : 8s5p1d contracted to 3s3p1d pattern {521/311/1}

Atom   0C    basis set group =>   1
Atom   1C    basis set group =>   1
Atom   2C    basis set group =>   1
Atom   3H    basis set group =>   2
Atom   4H    basis set group =>   2
Atom   5C    basis set group =>   1
Atom   6C    basis set group =>   1
Atom   7C    basis set group =>   1
Atom   8H    basis set group =>   2
Atom   9H    basis set group =>   2
Atom  10H    basis set group =>   2
Atom  11H    basis set group =>   2
Atom  12O    basis set group =>   3
Atom  13H    basis set group =>   2
Atom  14C    basis set group =>   1
Atom  15C    basis set group =>   1
Atom  16H    basis set group =>   2
Atom  17H    basis set group =>   2
Atom  18C    basis set group =>   1
Atom  19H    basis set group =>   2
Atom  20C    basis set group =>   1
Atom  21H    basis set group =>   2
Atom  22C    basis set group =>   1
Atom  23C    basis set group =>   1
Atom  24H    basis set group =>   2
Atom  25H    basis set group =>   2
Atom  26C    basis set group =>   1
Atom  27H    basis set group =>   2
Atom  28H    basis set group =>   2
Atom  29C    basis set group =>   1
Atom  30H    basis set group =>   2
Atom  31H    basis set group =>   2
Atom  32C    basis set group =>   1
Atom  33H    basis set group =>   2
Atom  34C    basis set group =>   1
Atom  35H    basis set group =>   2
Atom  36C    basis set group =>   1
Atom  37H    basis set group =>   2
Atom  38H    basis set group =>   2
Atom  39C    basis set group =>   1
Atom  40H    basis set group =>   2
Atom  41H    basis set group =>   2
Atom  42H    basis set group =>   2
Atom  43C    basis set group =>   1
Atom  44C    basis set group =>   1
Atom  45H    basis set group =>   2
Atom  46H    basis set group =>   2
Atom  47H    basis set group =>   2
Atom  48H    basis set group =>   2
Atom  49C    basis set group =>   1
Atom  50C    basis set group =>   1
Atom  51C    basis set group =>   1
Atom  52H    basis set group =>   2
Atom  53H    basis set group =>   2
Atom  54C    basis set group =>   1
Atom  55C    basis set group =>   1
Atom  56C    basis set group =>   1
Atom  57H    basis set group =>   2
Atom  58H    basis set group =>   2
Atom  59C    basis set group =>   1
Atom  60C    basis set group =>   1
Atom  61H    basis set group =>   2
Atom  62H    basis set group =>   2
Atom  63H    basis set group =>   2
Atom  64H    basis set group =>   2
Atom  65H    basis set group =>   2
Atom  66H    basis set group =>   2
Atom  67H    basis set group =>   2
Atom  68H    basis set group =>   2
Atom  69H    basis set group =>   2
Atom  70H    basis set group =>   2
Atom  71H    basis set group =>   2
Atom  72H    basis set group =>   2

-------------------------
BASIS SET IN INPUT FORMAT
-------------------------

 # Basis set for element : H 
 NewGTO H 
 S 3 
   1      12.2518000000      0.0372173893
   2       1.8687100000      0.2538082070
   3       0.4182080000      0.7973867639
 S 1 
   1       0.1061000000      1.0000000000
 P 2 
   1       9.0000000000      0.0402678705
   2       1.0000000000      0.9880231245
  end;

 # Basis set for element : C 
 NewGTO C 
 S 5 
   1    1243.2000000000      0.0056300977
   2     187.1450000000      0.0419506039
   3      42.5126000000      0.1846643605
   4      11.7393000000      0.4665574214
   5       3.5054800000      0.4482347783
 S 2 
   1       5.3908900000     -0.1481148174
   2       0.4933410000      1.0519817143
 S 1 
   1       0.1497410000      1.0000000000
 P 3 
   1      59.6736000000      0.0113906672
   2       9.1805600000      0.1672414929
   3       1.9365800000      0.9041087436
 P 1 
   1       0.5262960000      1.0000000000
 P 1 
   1       0.1363190000      1.0000000000
 D 1 
   1       0.8000000000      1.0000000000
  end;

 # Basis set for element : O 
 NewGTO O 
 S 5 
   1    2288.6400000000      0.0054511382
   2     344.4160000000      0.0407189228
   3      78.2538000000      0.1813694209
   4      21.7195000000      0.4655368202
   5       6.5590700000      0.4512113212
 S 2 
   1      10.4656000000     -0.1502112012
   2       0.9643510000      1.0528679834
 S 1 
   1       0.2851270000      1.0000000000
 P 3 
   1     110.8840000000      0.0113058003
   2      17.0590000000      0.1699226452
   3       3.6899900000      0.9008060328
 P 1 
   1       0.9929960000      1.0000000000
 P 1 
   1       0.2449240000      1.0000000000
 D 1 
   1       1.0000000000      1.0000000000
  end;

---------------------------------
AUXILIARY/J BASIS SET INFORMATION
---------------------------------
There are 3 groups of distinct atoms

 Group   1 Type C   : 12s5p4d2f1g contracted to 6s4p3d1f1g pattern {711111/2111/211/2/1}
 Group   2 Type H   : 5s2p1d contracted to 3s1p1d pattern {311/2/1}
 Group   3 Type O   : 12s5p4d2f1g contracted to 6s4p3d1f1g pattern {711111/2111/211/2/1}

Atom   0C    basis set group =>   1
Atom   1C    basis set group =>   1
Atom   2C    basis set group =>   1
Atom   3H    basis set group =>   2
Atom   4H    basis set group =>   2
Atom   5C    basis set group =>   1
Atom   6C    basis set group =>   1
Atom   7C    basis set group =>   1
Atom   8H    basis set group =>   2
Atom   9H    basis set group =>   2
Atom  10H    basis set group =>   2
Atom  11H    basis set group =>   2
Atom  12O    basis set group =>   3
Atom  13H    basis set group =>   2
Atom  14C    basis set group =>   1
Atom  15C    basis set group =>   1
Atom  16H    basis set group =>   2
Atom  17H    basis set group =>   2
Atom  18C    basis set group =>   1
Atom  19H    basis set group =>   2
Atom  20C    basis set group =>   1
Atom  21H    basis set group =>   2
Atom  22C    basis set group =>   1
Atom  23C    basis set group =>   1
Atom  24H    basis set group =>   2
Atom  25H    basis set group =>   2
Atom  26C    basis set group =>   1
Atom  27H    basis set group =>   2
Atom  28H    basis set group =>   2
Atom  29C    basis set group =>   1
Atom  30H    basis set group =>   2
Atom  31H    basis set group =>   2
Atom  32C    basis set group =>   1
Atom  33H    basis set group =>   2
Atom  34C    basis set group =>   1
Atom  35H    basis set group =>   2
Atom  36C    basis set group =>   1
Atom  37H    basis set group =>   2
Atom  38H    basis set group =>   2
Atom  39C    basis set group =>   1
Atom  40H    basis set group =>   2
Atom  41H    basis set group =>   2
Atom  42H    basis set group =>   2
Atom  43C    basis set group =>   1
Atom  44C    basis set group =>   1
Atom  45H    basis set group =>   2
Atom  46H    basis set group =>   2
Atom  47H    basis set group =>   2
Atom  48H    basis set group =>   2
Atom  49C    basis set group =>   1
Atom  50C    basis set group =>   1
Atom  51C    basis set group =>   1
Atom  52H    basis set group =>   2
Atom  53H    basis set group =>   2
Atom  54C    basis set group =>   1
Atom  55C    basis set group =>   1
Atom  56C    basis set group =>   1
Atom  57H    basis set group =>   2
Atom  58H    basis set group =>   2
Atom  59C    basis set group =>   1
Atom  60C    basis set group =>   1
Atom  61H    basis set group =>   2
Atom  62H    basis set group =>   2
Atom  63H    basis set group =>   2
Atom  64H    basis set group =>   2
Atom  65H    basis set group =>   2
Atom  66H    basis set group =>   2
Atom  67H    basis set group =>   2
Atom  68H    basis set group =>   2
Atom  69H    basis set group =>   2
Atom  70H    basis set group =>   2
Atom  71H    basis set group =>   2
Atom  72H    basis set group =>   2

-------------------------------------
AUXILIARY/J BASIS SET IN INPUT FORMAT
-------------------------------------

 # Auxiliary/J basis set for element : H 
 NewAuxJGTO H 
 S 3 
   1      15.6752927000      0.1007184237
   2       3.6063578000      0.3404257499
   3       1.2080016000      0.6491996172
 S 1 
   1       0.4726794000      1.0000000000
 S 1 
   1       0.2018100000      1.0000000000
 P 2 
   1       2.0281365000      0.5596620919
   2       0.5358730000      0.5596620919
 D 1 
   1       2.2165124000      1.0000000000
  end;

 # Auxiliary/J basis set for element : C 
 NewAuxJGTO C 
 S 7 
   1    1861.0916331000      0.0134602335
   2     642.9939764000      0.0299160374
   3     235.1105725000      0.1008649584
   4      90.7028894000      0.2370970548
   5      36.7794552000      0.3924037254
   6      15.6046273000      0.3195862154
   7       6.8907294000      0.0530104441
 S 1 
   1       3.1478850000     -1.0000000000
 S 1 
   1       1.4777287000      1.0000000000
 S 1 
   1       0.7076466000      1.0000000000
 S 1 
   1       0.3430122000      1.0000000000
 S 1 
   1       0.1669453000      1.0000000000
 P 2 
   1      13.5472892000     -0.6769313712
   2       5.4669419000     -0.3779500978
 P 1 
   1       2.1751721000      1.0000000000
 P 1 
   1       0.8582194000      1.0000000000
 P 1 
   1       0.3376720000      1.0000000000
 D 2 
   1       5.9287253000     -0.3533329857
   2       1.9809209000     -0.7456525731
 D 1 
   1       0.8055417000     -1.0000000000
 D 1 
   1       0.3531244000     -1.0000000000
 F 2 
   1       1.6755626000      0.6311076882
   2       0.5997536000      0.4968166032
 G 1 
   1       1.0024600000     -1.0000000000
  end;

 # Auxiliary/J basis set for element : O 
 NewAuxJGTO O 
 S 7 
   1    2876.8216605000      0.0168151159
   2    1004.7443032000      0.0340137548
   3     369.7579954000      0.1194951309
   4     142.9442404000      0.2664627624
   5      57.8366425000      0.4202764046
   6      24.3864983000      0.2765077335
   7      10.6622662000      0.0057008815
 S 1 
   1       4.8070437000     -1.0000000000
 S 1 
   1       2.2210770000      1.0000000000
 S 1 
   1       1.0447795000      1.0000000000
 S 1 
   1       0.4968425000      1.0000000000
 S 1 
   1       0.2371384000      1.0000000000
 P 2 
   1      64.2613382000     -0.2731534179
   2      16.3006076000     -0.8168011598
 P 1 
   1       4.3550542000      1.0000000000
 P 1 
   1       1.2019554000      1.0000000000
 P 1 
   1       0.3354196000      1.0000000000
 D 2 
   1       9.2146611000     -0.4661230638
   2       2.8435251000     -0.6600908911
 D 1 
   1       0.9955759000     -1.0000000000
 D 1 
   1       0.3649441000     -1.0000000000
 F 2 
   1       2.6420115000      0.5931563945
   2       0.7345613000      0.5931563945
 G 1 
   1       1.3931000000     -1.0000000000
  end;



           ************************************************************
           *        Program running with 4 parallel MPI-processes     *
           *              working on a common directory               *
           ************************************************************
------------------------------------------------------------------------------
                           ORCA GTO INTEGRAL CALCULATION
                           -- RI-GTO INTEGRALS CHOSEN --
------------------------------------------------------------------------------
------------------------------------------------------------------------------
                   ___                                                        
                  /   \      - P O W E R E D   B Y -                         
                 /     \                                                     
                 |  |  |   _    _      __       _____    __    __             
                 |  |  |  | |  | |    /  \     |  _  \  |  |  /  |          
                  \  \/   | |  | |   /    \    | | | |  |  | /  /          
                 / \  \   | |__| |  /  /\  \   | |_| |  |  |/  /          
                |  |  |   |  __  | /  /__\  \  |    /   |      \           
                |  |  |   | |  | | |   __   |  |    \   |  |\   \          
                \     /   | |  | | |  |  |  |  | |\  \  |  | \   \       
                 \___/    |_|  |_| |__|  |__|  |_| \__\ |__|  \__/        
                                                                              
                      - O R C A' S   B I G   F R I E N D -                    
                                      &                                       
                       - I N T E G R A L  F E E D E R -                       
                                                                              
 v1 FN, 2020, v2 2021                                                         
------------------------------------------------------------------------------


Reading SHARK input file inpS.SHARKINP.tmp ... ok
----------------------
SHARK INTEGRAL PACKAGE
----------------------

Number of atoms                             ...     73
Number of basis functions                   ...    713
Number of shells                            ...    335
Maximum angular momentum                    ...      2
Integral batch strategy                     ... SHARK/LIBINT Hybrid
RI-J (if used) integral strategy            ... SPLIT-RIJ (Revised 2003 algorithm where possible)
Printlevel                                  ...      1
Contraction scheme used                     ... SEGMENTED contraction
Coulomb Range Separation                    ... NOT USED
Exchange Range Separation                   ... NOT USED
Finite Nucleus Model                        ... NOT USED
Auxiliary Coulomb fitting basis             ... AVAILABLE
   # of basis functions in Aux-J            ...   1905
   # of shells in Aux-J                     ...    655
   Maximum angular momentum in Aux-J        ...      4
Auxiliary J/K fitting basis                 ... NOT available
Auxiliary Correlation fitting basis         ... NOT available
Auxiliary 'external' fitting basis          ... NOT available
Integral threshold                          ...     3.000000e-11
Primitive cut-off                           ...     1.000000e-12
Primitive pair pre-selection threshold      ...     1.000000e-12

Calculating pre-screening integrals         ... done (  0.0 sec) Dimension = 335
Organizing shell pair data                  ... done (  0.1 sec)
Shell pair information
Total number of shell pairs                 ...     56280
Shell pairs after pre-screening             ...     31428
Total number of primitive shell pairs       ...    225367
Primitive shell pairs kept                  ...     73965
          la=0 lb=0:   9601 shell pairs
          la=1 lb=0:  12917 shell pairs
          la=1 lb=1:   4222 shell pairs
          la=2 lb=0:   2751 shell pairs
          la=2 lb=1:   1741 shell pairs
          la=2 lb=2:    196 shell pairs

Calculating one electron integrals          ... done (  0.1 sec)
Calculating RI/J V-Matrix + Cholesky decomp.... done (  0.2 sec)
Calculating Nuclear repulsion               ... done (  0.0 sec) ENN=   2767.237381647059 Eh

SHARK setup successfully completed in   0.6 seconds

Maximum memory used throughout the entire GTOINT-calculation: 61.0 MB


           ************************************************************
           *        Program running with 4 parallel MPI-processes     *
           *              working on a common directory               *
           ************************************************************
-------------------------------------------------------------------------------
                                 ORCA SCF
-------------------------------------------------------------------------------

------------
SCF SETTINGS
------------
Hamiltonian:
 Density Functional     Method          .... DFT(GTOs)
 Exchange Functional    Exchange        .... revTPSS
 Correlation Functional Correlation     .... revTPSS
 LDA part of GGA corr.  LDAOpt          .... PW91-LDA
 Gradients option       PostSCFGGA      .... off
   Density functional embedding theory  .... OFF
 RI-approximation to the Coulomb term is turned on
   Number of AuxJ basis functions       .... 1905


General Settings:
 Integral files         IntName         .... inpS
 Hartree-Fock type      HFTyp           .... RHF
 Total Charge           Charge          ....    0
 Multiplicity           Mult            ....    1
 Number of Electrons    NEL             ....  220
 Basis Dimension        Dim             ....  713
 Nuclear Repulsion      ENuc            ....   2767.2373816471 Eh

Convergence Acceleration:
 DIIS                   CNVDIIS         .... on
   Start iteration      DIISMaxIt       ....    12
   Startup error        DIISStart       ....  0.200000
   # of expansion vecs  DIISMaxEq       ....     5
   Bias factor          DIISBfac        ....   1.050
   Max. coefficient     DIISMaxC        ....  10.000
 Trust-Rad. Augm. Hess. CNVTRAH         .... auto
   Auto Start mean grad. ratio tolernc. ....  1.125000
   Auto Start start iteration           ....    20
   Auto Start num. interpolation iter.  ....    10
   Max. Number of Micro iterations      ....    16
   Max. Number of Macro iterations      .... Maxiter - #DIIS iter
   Number of Davidson start vectors     ....     2
   Converg. threshold I  (grad. norm)   ....   1.000e-04
   Converg. threshold II (energy diff.) ....   1.000e-07
   Grad. Scal. Fac. for Micro threshold ....   0.100
   Minimum threshold for Micro iter.    ....   0.010
   NR start threshold (gradient norm)   ....   0.001
   Initial trust radius                 ....   0.400
   Minimum AH scaling param. (alpha)    ....   1.000
   Maximum AH scaling param. (alpha)    .... 1000.000
   Orbital update algorithm             .... Taylor
   White noise on init. David. guess    .... on
   Maximum white noise                  ....   0.010
   Quad. conv. algorithm                .... NR
 SOSCF                  CNVSOSCF        .... off
 Level Shifting         CNVShift        .... on
   Level shift para.    LevelShift      ....    0.2500
   Turn off err/grad.   ShiftErr        ....    0.0010
 Zerner damping         CNVZerner       .... off
 Static damping         CNVDamp         .... on
   Fraction old density DampFac         ....    0.7000
   Max. Damping (<1)    DampMax         ....    0.9800
   Min. Damping (>=0)   DampMin         ....    0.0000
   Turn off err/grad.   DampErr         ....    0.1000
 Fernandez-Rico         CNVRico         .... off

SCF Procedure:
 Maximum # iterations   MaxIter         ....   125
 SCF integral mode      SCFMode         .... Direct
   Integral package                     .... SHARK and LIBINT hybrid scheme
 Reset frequency        DirectResetFreq ....    20
 Integral Threshold     Thresh          ....  3.000e-11 Eh
 Primitive CutOff       TCut            ....  1.000e-12 Eh

Convergence Tolerance:
 Convergence Check Mode ConvCheckMode   .... Total+1el-Energy
 Convergence forced     ConvForced      .... 0
 Energy Change          TolE            ....  1.000e-07 Eh
 1-El. energy change                    ....  1.000e-04 Eh
 DIIS Error             TolErr          ....  1.000e-07


Diagonalization of the overlap matrix:
Smallest eigenvalue                        ... 5.038e-04
Time for diagonalization                   ...    0.077 sec
Threshold for overlap eigenvalues          ... 1.000e-08
Number of eigenvalues below threshold      ... 0
Time for construction of square roots      ...    0.072 sec
Total time needed                          ...    0.151 sec

Time for model grid setup =    0.881 sec

------------------------------
INITIAL GUESS: MODEL POTENTIAL
------------------------------
Loading Hartree-Fock densities                     ... done
Calculating cut-offs                               ... done
Initializing the effective Hamiltonian             ... done
Setting up the integral package (SHARK)            ... done
Starting the Coulomb interaction                   ... done (   1.1 sec)
Reading the grid                                   ... done
Mapping shells                                     ... done
Starting the XC term evaluation                    ... done (   0.3 sec)
  promolecular density results
     # of electrons  =    219.991342910
     EX              =   -164.432484338
     EC              =     -7.324915843
     EX+EC           =   -171.757400181
Transforming the Hamiltonian                       ... done (   0.0 sec)
Diagonalizing the Hamiltonian                      ... done (   0.1 sec)
Back transforming the eigenvectors                 ... done (   0.0 sec)
Now organizing SCF variables                       ... done
                      ------------------
                      INITIAL GUESS DONE (   2.4 sec)
                      ------------------
-------------------
DFT GRID GENERATION
-------------------

General Integration Accuracy     IntAcc      ... 4.388
Radial Grid Type                 RadialGrid  ... OptM3 with GC (2021)
Angular Grid (max. ang.)         AngularGrid ... 4 (Lebedev-302)
Angular grid pruning method      GridPruning ... 4 (adaptive)
Weight generation scheme         WeightScheme... Becke
Basis function cutoff            BFCut       ... 1.0000e-11
Integration weight cutoff        WCut        ... 1.0000e-14
Angular grids for H and He will be reduced by one unit
Partially contracted basis set               ... off
Rotationally invariant grid construction     ... off

Total number of grid points                  ...   309911
Total number of batches                      ...     4881
Average number of points per batch           ...       63
Average number of grid points per atom       ...     4245
Time for grid setup =    2.929 sec


--------------------
CPCM SOLVATION MODEL
--------------------
CPCM parameters:
  Epsilon                                         ...       4.9000
  Refrac                                          ...       1.4500
  Rsolv                                           ...       1.3000
  Surface type                                    ... GAUSSIAN VDW
  Epsilon function type                           ...         CPCM
Radii:
 Radius for C  used is    3.8550 Bohr (=   2.0400 Ang.)
 Radius for H  used is    2.4944 Bohr (=   1.3200 Ang.)
 Radius for O  used is    3.4469 Bohr (=   1.8240 Ang.)
Calculating surface                               ...        done! (  0.0s)
GEPOL surface points                              ...         3649
GEPOL Volume                                      ...    3592.2079
GEPOL Surface-area                                ...    1783.7068
Calculating surface distance matrix               ...        done! (  0.1s)
Performing Cholesky decomposition & store         ...        done! (  0.5s)
Overall time for CPCM initialization              ...                 0.6s
--------------
SCF ITERATIONS
--------------
ITER       Energy         Delta-E        Max-DP      RMS-DP      [F,P]     Damp
               ***  Starting incremental Fock matrix formation  ***

  HOMO= 109 E= -1.862 eV LUMO=  7.833 eV gap=   9.695 eV
  0  -1167.5252216051   0.000000000000 0.05368175  0.00082937  0.2613189 0.7000

  HOMO= 109 E= -3.344 eV LUMO=  6.720 eV gap=  10.064 eV
  1  -1167.8973445956  -0.372122990519 0.02890871  0.00061360  0.1019054 0.7000
                               ***Turning on DIIS***

  HOMO= 109 E= -4.320 eV LUMO=  5.829 eV gap=  10.149 eV
  2  -1168.0436609388  -0.146316343207 0.05172066  0.00101304  0.0309673 0.0000

  HOMO= 109 E= -4.949 eV LUMO=  5.237 eV gap=  10.186 eV
  3  -1168.2400598300  -0.196398891227 0.02312869  0.00047304  0.0533551 0.0000

  HOMO= 109 E= -4.986 eV LUMO=  5.200 eV gap=  10.186 eV
  4  -1168.3071998545  -0.067140024444 0.00743827  0.00015324  0.0104745 0.0000

  HOMO= 109 E= -4.937 eV LUMO=  5.256 eV gap=  10.193 eV
  5  -1168.3103033468  -0.003103492295 0.00312250  0.00005708  0.0093923 0.0000

  HOMO= 109 E= -4.918 eV LUMO=  5.272 eV gap=  10.190 eV
  6  -1168.3105791513  -0.000275804515 0.00122945  0.00001934  0.0027945 0.0000

  HOMO= 109 E= -4.919 eV LUMO= -1.532 eV gap=   3.387 eV
  7  -1168.3105988060  -0.000019654702 0.00071386  0.00001182  0.0006213 0.0000

  HOMO= 109 E= -4.918 eV LUMO= -1.530 eV gap=   3.387 eV
  8  -1168.3106020057  -0.000003199742 0.00026802  0.00000287  0.0003831 0.0000

  HOMO= 109 E= -4.916 eV LUMO= -1.528 eV gap=   3.387 eV
  9  -1168.3106025794  -0.000000573680 0.00017213  0.00000161  0.0002852 0.0000

  HOMO= 109 E= -4.916 eV LUMO= -1.529 eV gap=   3.387 eV
 10  -1168.3106028718  -0.000000292385 0.00006386  0.00000070  0.0001057 0.0000

  HOMO= 109 E= -4.916 eV LUMO= -1.529 eV gap=   3.387 eV
 11  -1168.3106029082  -0.000000036394 0.00002812  0.00000029  0.0000346 0.0000

  HOMO= 109 E= -4.916 eV LUMO= -1.529 eV gap=   3.387 eV
 12  -1168.3106028756   0.000000032584 0.00001300  0.00000013  0.0000183 0.0000

  HOMO= 109 E= -4.916 eV LUMO= -1.529 eV gap=   3.387 eV
 13  -1168.3106028980  -0.000000022353 0.00000590  0.00000005  0.0000081 0.0000
                 **** Energy Check signals convergence ****

               *****************************************************
               *                     SUCCESS                       *
               *           SCF CONVERGED AFTER  14 CYCLES          *
               *****************************************************


----------------
TOTAL SCF ENERGY
----------------

Total Energy       :        -1168.31060294 Eh          -31791.34775 eV

Components:
Nuclear Repulsion  :         2767.23738165 Eh           75300.35735 eV
Electronic Energy  :        -3935.54798458 Eh         -107091.70510 eV
One Electron Energy:        -7080.86976892 Eh         -192680.26209 eV
Two Electron Energy:         3145.32178434 Eh           85588.55699 eV
CPCM Dielectric    :           -0.01029061 Eh              -0.28002 eV

Virial components:
Potential Energy   :        -2330.41349415 Eh          -63413.77507 eV
Kinetic Energy     :         1162.10289122 Eh           31622.42732 eV
Virial Ratio       :            2.00534179


DFT components:
N(Alpha)           :      110.000070441283 electrons
N(Beta)            :      110.000070441283 electrons
N(Total)           :      220.000140882565 electrons
E(X)               :     -169.582446319067 Eh       
E(C)               :       -7.442017241756 Eh       
E(XC)              :     -177.024463560823 Eh       
DFET-embed. en.    :        0.000000000000 Eh       
CPCM Solvation Model Properties:
Surface-charge          :           -0.04558588
Charge-correction       :           -0.00002790 Eh              -0.00076 eV
Free-energy (cav+disp)  :  This term is not implemented in the current solvation scheme

---------------
SCF CONVERGENCE
---------------

  Last Energy change         ...   -3.8629e-08  Tolerance :   1.0000e-07
  Last MAX-Density change    ...    2.6278e-06  Tolerance :   1.0000e-05
  Last RMS-Density change    ...    2.6365e-08  Tolerance :   1.0000e-06
  Last DIIS Error            ...    2.9550e-06  Tolerance :   1.0000e-07

             **** THE GBW FILE WAS UPDATED (inpS.gbw) ****
             **** DENSITY inpS.scfp WAS UPDATED ****
             **** ENERGY FILE WAS UPDATED (inpS.en.tmp) ****
             **** THE GBW FILE WAS UPDATED (inpS.gbw) ****
             **** DENSITY inpS.scfp WAS UPDATED ****
----------------
ORBITAL ENERGIES
----------------

  NO   OCC          E(Eh)            E(eV) 
   0   2.0000     -18.905588      -514.4472 
   1   2.0000     -10.057060      -273.6665 
   2   2.0000     -10.015838      -272.5448 
   3   2.0000     -10.013404      -272.4786 
   4   2.0000     -10.013340      -272.4768 
   5   2.0000     -10.011218      -272.4191 
   6   2.0000     -10.011059      -272.4148 
   7   2.0000     -10.010228      -272.3921 
   8   2.0000     -10.009834      -272.3814 
   9   2.0000     -10.008273      -272.3390 
  10   2.0000     -10.007815      -272.3265 
  11   2.0000     -10.006765      -272.2979 
  12   2.0000     -10.006715      -272.2965 
  13   2.0000     -10.006545      -272.2919 
  14   2.0000     -10.005480      -272.2630 
  15   2.0000     -10.005093      -272.2524 
  16   2.0000     -10.004116      -272.2258 
  17   2.0000     -10.000958      -272.1399 
  18   2.0000     -10.000196      -272.1192 
  19   2.0000      -9.998982      -272.0861 
  20   2.0000      -9.998795      -272.0811 
  21   2.0000      -9.998389      -272.0700 
  22   2.0000      -9.998286      -272.0672 
  23   2.0000      -9.998098      -272.0621 
  24   2.0000      -9.997250      -272.0390 
  25   2.0000      -9.996514      -272.0190 
  26   2.0000      -9.995717      -271.9973 
  27   2.0000      -9.994827      -271.9731 
  28   2.0000      -9.993181      -271.9283 
  29   2.0000      -0.955826       -26.0094 
  30   2.0000      -0.806987       -21.9592 
  31   2.0000      -0.790980       -21.5236 
  32   2.0000      -0.770663       -20.9708 
  33   2.0000      -0.756464       -20.5844 
  34   2.0000      -0.733991       -19.9729 
  35   2.0000      -0.727354       -19.7923 
  36   2.0000      -0.708358       -19.2754 
  37   2.0000      -0.707943       -19.2641 
  38   2.0000      -0.693971       -18.8839 
  39   2.0000      -0.675349       -18.3772 
  40   2.0000      -0.659837       -17.9551 
  41   2.0000      -0.654575       -17.8119 
  42   2.0000      -0.634845       -17.2750 
  43   2.0000      -0.626016       -17.0348 
  44   2.0000      -0.622874       -16.9493 
  45   2.0000      -0.616057       -16.7638 
  46   2.0000      -0.589875       -16.0513 
  47   2.0000      -0.583646       -15.8818 
  48   2.0000      -0.555290       -15.1102 
  49   2.0000      -0.548949       -14.9377 
  50   2.0000      -0.547313       -14.8932 
  51   2.0000      -0.536140       -14.5891 
  52   2.0000      -0.527059       -14.3420 
  53   2.0000      -0.522159       -14.2087 
  54   2.0000      -0.489941       -13.3320 
  55   2.0000      -0.483191       -13.1483 
  56   2.0000      -0.472238       -12.8503 
  57   2.0000      -0.464020       -12.6266 
  58   2.0000      -0.451239       -12.2788 
  59   2.0000      -0.441984       -12.0270 
  60   2.0000      -0.432264       -11.7625 
  61   2.0000      -0.425135       -11.5685 
  62   2.0000      -0.421937       -11.4815 
  63   2.0000      -0.415006       -11.2929 
  64   2.0000      -0.413433       -11.2501 
  65   2.0000      -0.407728       -11.0948 
  66   2.0000      -0.398970       -10.8565 
  67   2.0000      -0.395507       -10.7623 
  68   2.0000      -0.395460       -10.7610 
  69   2.0000      -0.388243       -10.5646 
  70   2.0000      -0.385667       -10.4945 
  71   2.0000      -0.381492       -10.3809 
  72   2.0000      -0.377036       -10.2597 
  73   2.0000      -0.376208       -10.2371 
  74   2.0000      -0.371819       -10.1177 
  75   2.0000      -0.365636        -9.9495 
  76   2.0000      -0.357467        -9.7272 
  77   2.0000      -0.356941        -9.7128 
  78   2.0000      -0.352978        -9.6050 
  79   2.0000      -0.349133        -9.5004 
  80   2.0000      -0.344750        -9.3811 
  81   2.0000      -0.343565        -9.3489 
  82   2.0000      -0.341547        -9.2940 
  83   2.0000      -0.337132        -9.1738 
  84   2.0000      -0.336699        -9.1620 
  85   2.0000      -0.330588        -8.9957 
  86   2.0000      -0.323880        -8.8132 
  87   2.0000      -0.320270        -8.7150 
  88   2.0000      -0.318453        -8.6655 
  89   2.0000      -0.315001        -8.5716 
  90   2.0000      -0.310296        -8.4436 
  91   2.0000      -0.305216        -8.3054 
  92   2.0000      -0.302715        -8.2373 
  93   2.0000      -0.293385        -7.9834 
  94   2.0000      -0.289627        -7.8812 
  95   2.0000      -0.287627        -7.8267 
  96   2.0000      -0.286356        -7.7921 
  97   2.0000      -0.284222        -7.7341 
  98   2.0000      -0.280534        -7.6337 
  99   2.0000      -0.278583        -7.5806 
 100   2.0000      -0.275890        -7.5074 
 101   2.0000      -0.271482        -7.3874 
 102   2.0000      -0.268711        -7.3120 
 103   2.0000      -0.267458        -7.2779 
 104   2.0000      -0.260788        -7.0964 
 105   2.0000      -0.248274        -6.7559 
 106   2.0000      -0.233288        -6.3481 
 107   2.0000      -0.227307        -6.1853 
 108   2.0000      -0.212543        -5.7836 
 109   2.0000      -0.180669        -4.9163 
 110   0.0000      -0.056186        -1.5289 
 111   0.0000      -0.013141        -0.3576 
 112   0.0000      -0.005811        -0.1581 
 113   0.0000       0.032218         0.8767 
 114   0.0000       0.040325         1.0973 
 115   0.0000       0.043765         1.1909 
 116   0.0000       0.047945         1.3046 
 117   0.0000       0.048886         1.3302 
 118   0.0000       0.052635         1.4323 
 119   0.0000       0.056954         1.5498 
 120   0.0000       0.061977         1.6865 
 121   0.0000       0.065799         1.7905 
 122   0.0000       0.069496         1.8911 
 123   0.0000       0.073165         1.9909 
 124   0.0000       0.075128         2.0443 
 125   0.0000       0.077027         2.0960 
 126   0.0000       0.083293         2.2665 
 127   0.0000       0.086664         2.3583 
 128   0.0000       0.088867         2.4182 
 129   0.0000       0.093926         2.5559 
 130   0.0000       0.098162         2.6711 
 131   0.0000       0.101409         2.7595 
 132   0.0000       0.103353         2.8124 
 133   0.0000       0.104736         2.8500 
 134   0.0000       0.111125         3.0239 
 135   0.0000       0.113835         3.0976 
 136   0.0000       0.115033         3.1302 
 137   0.0000       0.122449         3.3320 
 138   0.0000       0.124491         3.3876 
 139   0.0000       0.125210         3.4071 
 140   0.0000       0.127377         3.4661 
 141   0.0000       0.127830         3.4784 
 142   0.0000       0.130834         3.5602 
 143   0.0000       0.131387         3.5752 
 144   0.0000       0.136317         3.7094 
 145   0.0000       0.138330         3.7642 
 146   0.0000       0.142294         3.8720 
 147   0.0000       0.142548         3.8789 
 148   0.0000       0.147086         4.0024 
 149   0.0000       0.148654         4.0451 
 150   0.0000       0.149572         4.0701 
 151   0.0000       0.156875         4.2688 
 152   0.0000       0.160282         4.3615 
 153   0.0000       0.165709         4.5092 
 154   0.0000       0.166186         4.5221 
 155   0.0000       0.172658         4.6983 
 156   0.0000       0.175622         4.7789 
 157   0.0000       0.177887         4.8406 
 158   0.0000       0.182005         4.9526 
 159   0.0000       0.185777         5.0553 
 160   0.0000       0.189813         5.1651 
 161   0.0000       0.193169         5.2564 
 162   0.0000       0.197639         5.3780 
 163   0.0000       0.200199         5.4477 
 164   0.0000       0.201170         5.4741 
 165   0.0000       0.201959         5.4956 
 166   0.0000       0.208260         5.6670 
 167   0.0000       0.212492         5.7822 
 168   0.0000       0.216265         5.8849 
 169   0.0000       0.218616         5.9488 
 170   0.0000       0.221856         6.0370 
 171   0.0000       0.227719         6.1965 
 172   0.0000       0.228829         6.2267 
 173   0.0000       0.229773         6.2524 
 174   0.0000       0.242649         6.6028 
 175   0.0000       0.244313         6.6481 
 176   0.0000       0.248689         6.7672 
 177   0.0000       0.258215         7.0264 
 178   0.0000       0.263771         7.1776 
 179   0.0000       0.271474         7.3872 
 180   0.0000       0.273956         7.4547 
 181   0.0000       0.278114         7.5679 
 182   0.0000       0.286096         7.7851 
 183   0.0000       0.294054         8.0016 
 184   0.0000       0.297814         8.1039 
 185   0.0000       0.331435         9.0188 
 186   0.0000       0.337477         9.1832 
 187   0.0000       0.340494         9.2653 
 188   0.0000       0.347022         9.4430 
 189   0.0000       0.351478         9.5642 
 190   0.0000       0.354257         9.6398 
 191   0.0000       0.361219         9.8293 
 192   0.0000       0.365322         9.9409 
 193   0.0000       0.371733        10.1154 
 194   0.0000       0.375356        10.2140 
 195   0.0000       0.376728        10.2513 
 196   0.0000       0.382879        10.4187 
 197   0.0000       0.388856        10.5813 
 198   0.0000       0.395694        10.7674 
 199   0.0000       0.398627        10.8472 
 200   0.0000       0.406499        11.0614 
 201   0.0000       0.408836        11.1250 
 202   0.0000       0.412402        11.2220 
 203   0.0000       0.417736        11.3672 
 204   0.0000       0.422861        11.5066 
 205   0.0000       0.433500        11.7961 
 206   0.0000       0.438504        11.9323 
 207   0.0000       0.442505        12.0412 
 208   0.0000       0.449061        12.2196 
 209   0.0000       0.452636        12.3169 
 210   0.0000       0.456645        12.4259 
 211   0.0000       0.465141        12.6571 
 212   0.0000       0.474608        12.9147 
 213   0.0000       0.479931        13.0596 
 214   0.0000       0.482742        13.1361 
 215   0.0000       0.485350        13.2070 
 216   0.0000       0.489823        13.3288 
 217   0.0000       0.493306        13.4235 
 218   0.0000       0.498077        13.5534 
 219   0.0000       0.504174        13.7193 
 220   0.0000       0.507375        13.8064 
 221   0.0000       0.509835        13.8733 
 222   0.0000       0.516235        14.0475 
 223   0.0000       0.517737        14.0883 
 224   0.0000       0.529063        14.3965 
 225   0.0000       0.537316        14.6211 
 226   0.0000       0.538472        14.6526 
 227   0.0000       0.541540        14.7361 
 228   0.0000       0.545530        14.8446 
 229   0.0000       0.546961        14.8836 
 230   0.0000       0.549291        14.9470 
 231   0.0000       0.551999        15.0206 
 232   0.0000       0.556846        15.1526 
 233   0.0000       0.560811        15.2605 
 234   0.0000       0.566021        15.4022 
 235   0.0000       0.571187        15.5428 
 236   0.0000       0.573217        15.5980 
 237   0.0000       0.574002        15.6194 
 238   0.0000       0.575818        15.6688 
 239   0.0000       0.580924        15.8077 
 240   0.0000       0.585301        15.9269 
 241   0.0000       0.585826        15.9411 
 242   0.0000       0.587475        15.9860 
 243   0.0000       0.590985        16.0815 
 244   0.0000       0.591935        16.1074 
 245   0.0000       0.596458        16.2304 
 246   0.0000       0.598085        16.2747 
 247   0.0000       0.600112        16.3299 
 248   0.0000       0.602319        16.3899 
 249   0.0000       0.605092        16.4654 
 250   0.0000       0.607660        16.5353 
 251   0.0000       0.608329        16.5535 
 252   0.0000       0.611833        16.6488 
 253   0.0000       0.614704        16.7269 
 254   0.0000       0.618280        16.8242 
 255   0.0000       0.624185        16.9849 
 256   0.0000       0.625095        17.0097 
 257   0.0000       0.627785        17.0829 
 258   0.0000       0.630884        17.1672 
 259   0.0000       0.631305        17.1787 
 260   0.0000       0.633066        17.2266 
 261   0.0000       0.636944        17.3321 
 262   0.0000       0.638380        17.3712 
 263   0.0000       0.642874        17.4935 
 264   0.0000       0.646390        17.5892 
 265   0.0000       0.648416        17.6443 
 266   0.0000       0.650457        17.6998 
 267   0.0000       0.652929        17.7671 
 268   0.0000       0.656611        17.8673 
 269   0.0000       0.659625        17.9493 
 270   0.0000       0.661299        17.9949 
 271   0.0000       0.663145        18.0451 
 272   0.0000       0.665375        18.1058 
 273   0.0000       0.668680        18.1957 
 274   0.0000       0.674904        18.3651 
 275   0.0000       0.678574        18.4649 
 276   0.0000       0.682246        18.5649 
 277   0.0000       0.683516        18.5994 
 278   0.0000       0.689052        18.7501 
 279   0.0000       0.690342        18.7852 
 280   0.0000       0.693937        18.8830 
 281   0.0000       0.697984        18.9931 
 282   0.0000       0.701817        19.0974 
 283   0.0000       0.703905        19.1542 
 284   0.0000       0.708453        19.2780 
 285   0.0000       0.717217        19.5165 
 286   0.0000       0.720212        19.5980 
 287   0.0000       0.725155        19.7325 
 288   0.0000       0.728285        19.8176 
 289   0.0000       0.732720        19.9383 
 290   0.0000       0.737268        20.0621 
 291   0.0000       0.742814        20.2130 
 292   0.0000       0.745344        20.2818 
 293   0.0000       0.752962        20.4891 
 294   0.0000       0.760066        20.6824 
 295   0.0000       0.761782        20.7291 
 296   0.0000       0.774900        21.0861 
 297   0.0000       0.779819        21.2199 
 298   0.0000       0.785485        21.3741 
 299   0.0000       0.792637        21.5687 
 300   0.0000       0.803155        21.8550 
 301   0.0000       0.817395        22.2424 
 302   0.0000       0.828396        22.5418 
 303   0.0000       0.836282        22.7564 
 304   0.0000       0.845890        23.0178 
 305   0.0000       0.859962        23.4008 
 306   0.0000       0.868673        23.6378 
 307   0.0000       0.887293        24.1445 
 308   0.0000       0.900864        24.5138 
 309   0.0000       0.903635        24.5892 
 310   0.0000       0.916654        24.9434 
 311   0.0000       0.927260        25.2320 
 312   0.0000       0.938736        25.5443 
 313   0.0000       0.952287        25.9131 
 314   0.0000       0.959612        26.1124 
 315   0.0000       0.972985        26.4763 
 316   0.0000       0.987377        26.8679 
 317   0.0000       1.018798        27.7229 
 318   0.0000       1.032004        28.0823 
 319   0.0000       1.044112        28.4117 
 320   0.0000       1.054691        28.6996 
 321   0.0000       1.063492        28.9391 
 322   0.0000       1.072633        29.1878 
 323   0.0000       1.111440        30.2438 
 324   0.0000       1.121660        30.5219 
 325   0.0000       1.126053        30.6414 
 326   0.0000       1.142244        31.0820 
 327   0.0000       1.147714        31.2309 
 328   0.0000       1.179872        32.1060 
 329   0.0000       1.185037        32.2465 
 330   0.0000       1.195580        32.5334 
 331   0.0000       1.216660        33.1070 
 332   0.0000       1.238158        33.6920 
 333   0.0000       1.254192        34.1283 
 334   0.0000       1.263254        34.3749 
 335   0.0000       1.275174        34.6993 
 336   0.0000       1.280883        34.8546 
 337   0.0000       1.288146        35.0522 
 338   0.0000       1.295738        35.2588 
 339   0.0000       1.302816        35.4514 
 340   0.0000       1.316869        35.8338 
 341   0.0000       1.331739        36.2384 
 342   0.0000       1.335411        36.3384 
 343   0.0000       1.348509        36.6948 
 344   0.0000       1.361265        37.0419 
 345   0.0000       1.371963        37.3330 
 346   0.0000       1.386854        37.7382 
 347   0.0000       1.388521        37.7836 
 348   0.0000       1.404235        38.2112 
 349   0.0000       1.411377        38.4055 
 350   0.0000       1.422628        38.7117 
 351   0.0000       1.439224        39.1633 
 352   0.0000       1.444704        39.3124 
 353   0.0000       1.451344        39.4931 
 354   0.0000       1.460956        39.7546 
 355   0.0000       1.466813        39.9140 
 356   0.0000       1.472047        40.0564 
 357   0.0000       1.484328        40.3906 
 358   0.0000       1.503199        40.9041 
 359   0.0000       1.514857        41.2213 
 360   0.0000       1.520208        41.3670 
 361   0.0000       1.522188        41.4208 
 362   0.0000       1.540554        41.9206 
 363   0.0000       1.545267        42.0488 
 364   0.0000       1.550129        42.1812 
 365   0.0000       1.564622        42.5755 
 366   0.0000       1.572863        42.7998 
 367   0.0000       1.576806        42.9071 
 368   0.0000       1.595985        43.4290 
 369   0.0000       1.606557        43.7167 
 370   0.0000       1.611681        43.8561 
 371   0.0000       1.620814        44.1046 
 372   0.0000       1.628665        44.3182 
 373   0.0000       1.632105        44.4118 
 374   0.0000       1.636348        44.5273 
 375   0.0000       1.647601        44.8335 
 376   0.0000       1.656317        45.0707 
 377   0.0000       1.667507        45.3752 
 378   0.0000       1.671526        45.4845 
 379   0.0000       1.679079        45.6901 
 380   0.0000       1.688991        45.9598 
 381   0.0000       1.696276        46.1580 
 382   0.0000       1.702646        46.3313 
 383   0.0000       1.704089        46.3706 
 384   0.0000       1.709031        46.5051 
 385   0.0000       1.721771        46.8518 
 386   0.0000       1.726025        46.9675 
 387   0.0000       1.728972        47.0477 
 388   0.0000       1.734367        47.1945 
 389   0.0000       1.739451        47.3329 
 390   0.0000       1.746112        47.5141 
 391   0.0000       1.748441        47.5775 
 392   0.0000       1.753514        47.7156 
 393   0.0000       1.765384        48.0385 
 394   0.0000       1.769310        48.1454 
 395   0.0000       1.774348        48.2825 
 396   0.0000       1.781699        48.4825 
 397   0.0000       1.784146        48.5491 
 398   0.0000       1.788119        48.6572 
 399   0.0000       1.794830        48.8398 
 400   0.0000       1.797943        48.9245 
 401   0.0000       1.800448        48.9927 
 402   0.0000       1.805876        49.1404 
 403   0.0000       1.812601        49.3234 
 404   0.0000       1.819106        49.5004 
 405   0.0000       1.821780        49.5731 
 406   0.0000       1.833983        49.9052 
 407   0.0000       1.836739        49.9802 
 408   0.0000       1.844505        50.1915 
 409   0.0000       1.846028        50.2330 
 410   0.0000       1.850675        50.3594 
 411   0.0000       1.862697        50.6866 
 412   0.0000       1.866936        50.8019 
 413   0.0000       1.873877        50.9908 
 414   0.0000       1.887684        51.3665 
 415   0.0000       1.890652        51.4473 
 416   0.0000       1.895853        51.5888 
 417   0.0000       1.904947        51.8363 
 418   0.0000       1.909348        51.9560 
 419   0.0000       1.913339        52.0646 
 420   0.0000       1.924308        52.3631 
 421   0.0000       1.926790        52.4306 
 422   0.0000       1.936352        52.6908 
 423   0.0000       1.945010        52.9264 
 424   0.0000       1.947462        52.9931 
 425   0.0000       1.952940        53.1422 
 426   0.0000       1.954023        53.1717 
 427   0.0000       1.965239        53.4769 
 428   0.0000       1.968893        53.5763 
 429   0.0000       1.977133        53.8005 
 430   0.0000       1.981043        53.9069 
 431   0.0000       1.984830        54.0100 
 432   0.0000       1.986501        54.0554 
 433   0.0000       1.996360        54.3237 
 434   0.0000       1.998868        54.3920 
 435   0.0000       2.003359        54.5142 
 436   0.0000       2.007129        54.6168 
 437   0.0000       2.013337        54.7857 
 438   0.0000       2.014176        54.8085 
 439   0.0000       2.022328        55.0304 
 440   0.0000       2.029315        55.2205 
 441   0.0000       2.030992        55.2661 
 442   0.0000       2.034953        55.3739 
 443   0.0000       2.047329        55.7107 
[...]

 --------------
 Nucleus  47H :
 --------------

Diamagnetic contribution to the shielding tensor (ppm) : 
            31.293          3.367        -0.517
             0.167         47.780        -2.187
            -0.580         -1.342        44.137

Paramagnetic contribution to the shielding tensor (ppm): 
            -2.547         -2.919         1.274
             0.577        -14.232        -1.107
             0.576         -2.068       -12.621

Total shielding tensor (ppm): 
            28.746          0.448         0.758
             0.745         33.548        -3.295
            -0.004         -3.410        31.515


 Diagonalized sT*s matrix:
 
 sDSO            35.516           39.394           48.300  iso=      41.070
 sPSO            -7.306           -9.838          -12.256  iso=      -9.800
        ---------------  ---------------  ---------------
 Total           28.210           29.556           36.044  iso=      31.270

 --------------
 Nucleus  48H :
 --------------

Diamagnetic contribution to the shielding tensor (ppm) : 
            36.930          0.342        -2.163
            -7.040         36.826         0.600
            -6.235         -0.879        47.739

Paramagnetic contribution to the shielding tensor (ppm): 
            -5.016          0.889         2.256
             8.597         -8.282        -2.061
             5.548         -1.128       -18.169

Total shielding tensor (ppm): 
            31.914          1.231         0.093
             1.557         28.544        -1.461
            -0.688         -2.007        29.570


 Diagonalized sT*s matrix:
 
 sDSO            41.946           41.795           37.754  iso=      40.498
 sPSO           -14.890          -11.524           -5.052  iso=     -10.489
        ---------------  ---------------  ---------------
 Total           27.055           30.271           32.702  iso=      30.009

 --------------
 Nucleus  52H :
 --------------

Diamagnetic contribution to the shielding tensor (ppm) : 
            39.013          0.608         1.600
             8.689         31.733        -7.982
             5.590         -8.724        50.714

Paramagnetic contribution to the shielding tensor (ppm): 
            -8.050          4.310        -0.923
            -5.069         -5.468        10.116
            -3.637         11.556       -28.102

Total shielding tensor (ppm): 
            30.963          4.917         0.678
             3.620         26.265         2.134
             1.953          2.832        22.612


 Diagonalized sT*s matrix:
 
 sDSO            52.992           27.586           40.882  iso=      40.487
 sPSO           -31.718           -3.016           -6.886  iso=     -13.873
        ---------------  ---------------  ---------------
 Total           21.274           24.571           33.996  iso=      26.614

 --------------
 Nucleus  53H :
 --------------

Diamagnetic contribution to the shielding tensor (ppm) : 
            35.969          1.253         2.639
             2.701         36.224        -9.308
            -8.262         -7.047        53.574

Paramagnetic contribution to the shielding tensor (ppm): 
            -6.672          2.336        -2.854
             0.071        -10.570         8.391
             8.293          6.791       -29.936

Total shielding tensor (ppm): 
            29.297          3.589        -0.215
             2.773         25.653        -0.917
             0.031         -0.256        23.638


 Diagonalized sT*s matrix:
 
 sDSO            39.967           47.263           38.537  iso=      41.922
 sPSO           -16.723          -23.078           -7.377  iso=     -15.726
        ---------------  ---------------  ---------------
 Total           23.244           24.185           31.159  iso=      26.196

 --------------
 Nucleus  57H :
 --------------

Diamagnetic contribution to the shielding tensor (ppm) : 
            34.112         -0.579         0.184
             5.448         42.574        -7.354
            -7.491         -6.989        34.420

Paramagnetic contribution to the shielding tensor (ppm): 
            -5.195         -0.203        -0.058
            -5.788         -8.966         6.470
             7.796          6.565        -6.129

Total shielding tensor (ppm): 
            28.917         -0.782         0.127
            -0.340         33.608        -0.884
             0.304         -0.424        28.291


 Diagonalized sT*s matrix:
 
 sDSO            34.479           33.180           43.446  iso=      37.035
 sPSO            -6.299           -4.302           -9.688  iso=      -6.763
        ---------------  ---------------  ---------------
 Total           28.180           28.878           33.758  iso=      30.272

 --------------
 Nucleus  58H :
 --------------

Diamagnetic contribution to the shielding tensor (ppm) : 
            32.425         -0.297         1.037
             3.753         39.461        -9.762
            14.318         -9.439        32.838

Paramagnetic contribution to the shielding tensor (ppm): 
            -2.352          1.637         0.535
            -2.315         -5.707         9.417
           -12.796          9.063        -5.748

Total shielding tensor (ppm): 
            30.072          1.340         1.573
             1.437         33.754        -0.346
             1.522         -0.376        27.090


 Diagonalized sT*s matrix:
 
 sDSO            24.812           40.439           39.472  iso=      34.908
 sPSO             1.514          -10.070           -5.250  iso=      -4.602
        ---------------  ---------------  ---------------
 Total           26.325           30.369           34.222  iso=      30.306

 --------------
 Nucleus  61H :
 --------------

Diamagnetic contribution to the shielding tensor (ppm) : 
            30.606          0.342        -0.750
             2.616         18.470        -8.078
           -25.333         -8.038        36.107

Paramagnetic contribution to the shielding tensor (ppm): 
            -1.070          0.505        -0.679
            -2.234          7.842         6.900
            24.607          6.101         0.322

Total shielding tensor (ppm): 
            29.536          0.847        -1.428
             0.383         26.312        -1.178
            -0.726         -1.937        36.429


 Diagonalized sT*s matrix:
 
 sDSO            16.916           26.309           41.958  iso=      28.394
 sPSO             9.103            3.103           -5.112  iso=       2.365
        ---------------  ---------------  ---------------
 Total           26.019           29.412           36.846  iso=      30.759

 --------------
 Nucleus  62H :
 --------------

Diamagnetic contribution to the shielding tensor (ppm) : 
            34.836         -5.317        -2.790
           -10.157         32.006        -2.308
           -15.510         -7.496        18.203

Paramagnetic contribution to the shielding tensor (ppm): 
            -3.463          2.426         1.012
             7.001          1.143         3.920
            13.526          9.608        11.244

Total shielding tensor (ppm): 
            31.373         -2.891        -1.778
            -3.156         33.149         1.612
            -1.984          2.112        29.447


 Diagonalized sT*s matrix:
 
 sDSO            14.572           31.447           39.025  iso=      28.348
 sPSO            13.725           -2.176           -2.625  iso=       2.975
        ---------------  ---------------  ---------------
 Total           28.297           29.271           36.400  iso=      31.323

 --------------
 Nucleus  63H :
 --------------

Diamagnetic contribution to the shielding tensor (ppm) : 
            42.018          6.138         0.436
            11.985         28.606        -6.001
           -17.336         -9.017         5.628

Paramagnetic contribution to the shielding tensor (ppm): 
            -7.201         -1.381        -1.477
            -7.812         -1.797         6.002
            15.029          8.657        24.022

Total shielding tensor (ppm): 
            34.817          4.757        -1.040
             4.173         26.809         0.002
            -2.307         -0.360        29.650


 Diagonalized sT*s matrix:
 
 sDSO            24.543            2.604           49.105  iso=      25.417
 sPSO             0.215           26.762          -11.953  iso=       5.008
        ---------------  ---------------  ---------------
 Total           24.758           29.366           37.152  iso=      30.425

 --------------
 Nucleus  64H :
 --------------

Diamagnetic contribution to the shielding tensor (ppm) : 
            22.254         -1.802        -2.547
             5.249         33.448        -2.511
            23.879         -2.590        49.537

Paramagnetic contribution to the shielding tensor (ppm): 
             6.620          2.003         1.158
            -4.815         -6.753         1.725
           -24.067          1.002       -12.350

Total shielding tensor (ppm): 
            28.873          0.201        -1.389
             0.433         26.695        -0.786
            -0.188         -1.588        37.187


 Diagonalized sT*s matrix:
 
 sDSO            32.441           24.889           47.908  iso=      35.079
 sPSO            -5.901            3.928          -10.511  iso=      -4.161
        ---------------  ---------------  ---------------
 Total           26.540           28.818           37.397  iso=      30.918

 --------------
 Nucleus  65H :
 --------------

Diamagnetic contribution to the shielding tensor (ppm) : 
            40.699          2.237        -4.755
            14.750         30.249         5.076
            17.483          6.192        50.216

Paramagnetic contribution to the shielding tensor (ppm): 
            -3.972          1.334         5.933
           -12.222         -5.285        -1.663
           -16.956         -3.439       -21.341

Total shielding tensor (ppm): 
            36.727          3.571         1.177
             2.528         24.965         3.412
             0.527          2.753        28.875


 Diagonalized sT*s matrix:
 
 sDSO            28.265           45.368           47.530  iso=      40.388
 sPSO            -5.383          -15.447           -9.769  iso=     -10.199
        ---------------  ---------------  ---------------
 Total           22.883           29.922           37.762  iso=      30.189

 --------------
 Nucleus  66H :
 --------------

Diamagnetic contribution to the shielding tensor (ppm) : 
            24.432         -2.551        -4.226
             8.255         44.389         1.462
            17.275          4.192        40.753

Paramagnetic contribution to the shielding tensor (ppm): 
             5.282          0.885         3.496
            -9.056         -9.274         1.414
           -17.957         -0.864       -11.509

Total shielding tensor (ppm): 
            29.714         -1.666        -0.729
            -0.801         35.114         2.875
            -0.682          3.327        29.243


 Diagonalized sT*s matrix:
 
 sDSO            40.129           26.309           43.136  iso=      36.524
 sPSO           -12.236            3.138           -6.403  iso=      -5.167
        ---------------  ---------------  ---------------
 Total           27.892           29.447           36.733  iso=      31.357

 --------------
 Nucleus  67H :
 --------------

Diamagnetic contribution to the shielding tensor (ppm) : 
            28.746          5.433         6.039
            14.443         36.406        -0.790
            10.809         -4.385         8.111

Paramagnetic contribution to the shielding tensor (ppm): 
             1.962         -1.144        -4.873
           -10.456         -1.942         1.318
            -9.858          5.169        20.319

Total shielding tensor (ppm): 
            30.708          4.289         1.166
             3.987         34.464         0.528
             0.951          0.784        28.429


 Diagonalized sT*s matrix:
 
 sDSO             8.466           21.533           43.264  iso=      24.421
 sPSO            19.154            7.175           -5.990  iso=       6.780
        ---------------  ---------------  ---------------
 Total           27.620           28.708           37.274  iso=      31.201

 --------------
 Nucleus  68H :
 --------------

Diamagnetic contribution to the shielding tensor (ppm) : 
            41.376         -2.357         2.858
            -5.252         24.092        -4.059
             4.702         -5.117         1.376

Paramagnetic contribution to the shielding tensor (ppm): 
            -4.928         -0.019        -3.895
             3.540          1.748         5.290
            -4.972          6.628        27.723

Total shielding tensor (ppm): 
            36.449         -2.376        -1.037
            -1.712         25.840         1.230
            -0.270          1.511        29.098


 Diagonalized sT*s matrix:
 
 sDSO            23.588            2.776           40.479  iso=      22.281
 sPSO             1.490           26.600           -3.548  iso=       8.181
        ---------------  ---------------  ---------------
 Total           25.079           29.377           36.932  iso=      30.462

 --------------
 Nucleus  69H :
 --------------

Diamagnetic contribution to the shielding tensor (ppm) : 
            26.121          2.307        10.213
             0.498         16.396        -4.777
            29.232         -2.150        22.778

Paramagnetic contribution to the shielding tensor (ppm): 
             5.135         -2.071        -5.642
            -0.265          9.887         4.077
           -25.380          1.035        12.262

Total shielding tensor (ppm): 
            31.255          0.236         4.571
             0.233         26.283        -0.700
             3.852         -1.115        35.039


 Diagonalized sT*s matrix:
 
 sDSO            13.703            9.855           41.736  iso=      21.765
 sPSO            12.354           18.868           -3.937  iso=       9.095
        ---------------  ---------------  ---------------
 Total           26.057           28.722           37.799  iso=      30.859

 --------------
 Nucleus  70H :
 --------------

Diamagnetic contribution to the shielding tensor (ppm) : 
            35.082         -6.701        -8.773
           -14.218         24.757         4.484
           -19.129          3.043        36.059

Paramagnetic contribution to the shielding tensor (ppm): 
            -1.064          5.600         3.871
            12.842          4.643        -1.559
            14.528         -0.199        -6.471

Total shielding tensor (ppm): 
            34.018         -1.101        -4.903
            -1.375         29.399         2.925
            -4.602          2.843        29.588


 Diagonalized sT*s matrix:
 
 sDSO            25.889           17.435           52.574  iso=      31.966
 sPSO            -0.298           12.113          -14.706  iso=      -0.964
        ---------------  ---------------  ---------------
 Total           25.591           29.547           37.867  iso=      31.002

 --------------
 Nucleus  71H :
 --------------

Diamagnetic contribution to the shielding tensor (ppm) : 
            31.948          1.626         4.488
            -6.982         36.652        11.230
            -4.748          8.250        40.622

Paramagnetic contribution to the shielding tensor (ppm): 
             0.407         -0.886        -4.180
             9.014         -6.794        -5.926
             5.566         -3.540       -12.187

Total shielding tensor (ppm): 
            32.355          0.740         0.307
             2.032         29.858         5.304
             0.818          4.710        28.435


 Diagonalized sT*s matrix:
 
 sDSO            29.379           37.559           42.282  iso=      36.407
 sPSO            -5.318           -5.947           -7.308  iso=      -6.191
        ---------------  ---------------  ---------------
 Total           24.061           31.613           34.974  iso=      30.216

 --------------
 Nucleus  72H :
 --------------

Diamagnetic contribution to the shielding tensor (ppm) : 
            28.103         -6.880         0.027
           -11.632         39.056        -0.404
            -5.449         -6.204        37.612

Paramagnetic contribution to the shielding tensor (ppm): 
             2.559          4.408         0.518
             9.719         -5.275        -2.591
             5.621          4.450        -9.154

Total shielding tensor (ppm): 
            30.662         -2.472         0.545
            -1.913         33.781        -2.996
             0.172         -1.754        28.458


 Diagonalized sT*s matrix:
 
 sDSO            32.987           27.145           44.639  iso=      34.924
 sPSO            -5.513            2.640           -8.997  iso=      -3.957
        ---------------  ---------------  ---------------
 Total           27.474           29.785           35.642  iso=      30.967



--------------------------------
CHEMICAL SHIELDING SUMMARY (ppm)
--------------------------------


  Nucleus  Element    Isotropic     Anisotropy
  -------  -------  ------------   ------------
      3       H           29.638          5.435 
      4       H           29.131          5.299 
      8       H           29.575          6.422 
      9       H           29.430          7.747 
     10       H           29.630          8.799 
     11       H           30.532          6.213 
     13       H           28.185          2.731 
     16       H           26.861          5.097 
     17       H           26.522          4.983 
     19       H           25.452         10.744 
     21       H           25.708         15.045 
     24       H           28.893          9.975 
     25       H           29.995          9.421 
     27       H           30.229          7.147 
     28       H           30.151         11.785 
     30       H           29.740          8.018 
     31       H           30.398          6.928 
     33       H           29.766          4.069 
     35       H           31.120         14.866 
     37       H           30.388         10.700 
     38       H           30.294          9.379 
     40       H           29.999         10.604 
     41       H           30.522          8.301 
     42       H           30.533          5.377 
     45       H           31.055          8.276 
     46       H           31.307          9.231 
     47       H           31.270          7.161 
     48       H           30.009          4.039 
     52       H           26.614         11.074 
     53       H           26.196          7.444 
     57       H           30.272          5.228 
     58       H           30.306          5.875 
     61       H           30.759          9.131 
     62       H           31.323          7.616 
     63       H           30.425         10.090 
     64       H           30.918          9.718 
     65       H           30.189         11.359 
     66       H           31.357          8.063 
     67       H           31.201          9.110 
     68       H           30.462          9.704 
     69       H           30.859         10.410 
     70       H           31.002         10.298 
     71       H           30.216          7.137 
     72       H           30.967          7.012 



Maximum memory used throughout the entire EPRNMR-calculation: 140.5 MB

Timings for individual modules:

Sum of individual times         ...      140.258 sec (=   2.338 min)
GTO integral calculation        ...        0.845 sec (=   0.014 min)   0.6 %
SCF iterations                  ...       93.573 sec (=   1.560 min)  66.7 %
EPR/NMR calculation             ...       45.840 sec (=   0.764 min)  32.7 %
                             ****ORCA TERMINATED NORMALLY****
TOTAL RUN TIME: 0 days 0 hours 2 minutes 20 seconds 735 msec
