
                                 *****************
                                 * O   R   C   A *
                                 *****************

                                            #,                                       
                                            ###                                      
                                            ####                                     
                                            #####                                    
                                            ######                                   
                                           ########,                                 
                                     ,,################,,,,,                         
                               ,,#################################,,                 
                          ,,##########################################,,             
                       ,#########################################, ''#####,          
                    ,#############################################,,   '####,        
                  ,##################################################,,,,####,       
                ,###########''''           ''''###############################       
              ,#####''   ,,,,##########,,,,          '''####'''          '####       
            ,##' ,,,,###########################,,,                        '##       
           ' ,,###''''                  '''############,,,                           
         ,,##''                                '''############,,,,        ,,,,,,###''
      ,#''                                            '''#######################'''  
     '                                                          ''''####''''         
             ,#######,   #######,   ,#######,      ##                                
            ,#'     '#,  ##    ##  ,#'     '#,    #''#        ######   ,####,        
            ##       ##  ##   ,#'  ##            #'  '#       #        #'  '#        
            ##       ##  #######   ##           ,######,      #####,   #    #        
            '#,     ,#'  ##    ##  '#,     ,#' ,#      #,         ##   #,  ,#        
             '#######'   ##     ##  '#######'  #'      '#     #####' # '####'        



                  #######################################################
                  #                        -***-                        #
                  #          Department of theory and spectroscopy      #
                  #    Directorship and core code : Frank Neese         #
                  #        Max Planck Institute fuer Kohlenforschung    #
                  #                Kaiser Wilhelm Platz 1               #
                  #                 D-45470 Muelheim/Ruhr               #
                  #                      Germany                        #
                  #                                                     #
                  #                  All rights reserved                #
                  #                        -***-                        #
                  #######################################################


                         Program Version 5.0.2 -  RELEASE  -


 With contributions from (in alphabetic order):
   Daniel Aravena         : Magnetic Suceptibility
   Michael Atanasov       : Ab Initio Ligand Field Theory (pilot matlab implementation)
   Alexander A. Auer      : GIAO ZORA, VPT2 properties, NMR spectrum
   Ute Becker             : Parallelization
   Giovanni Bistoni       : ED, misc. LED, open-shell LED, HFLD
   Martin Brehm           : Molecular dynamics
   Dmytro Bykov           : SCF Hessian
   Vijay G. Chilkuri      : MRCI spin determinant printing, contributions to CSF-ICE
   Dipayan Datta          : RHF DLPNO-CCSD density
   Achintya Kumar Dutta   : EOM-CC, STEOM-CC
   Dmitry Ganyushin       : Spin-Orbit,Spin-Spin,Magnetic field MRCI
   Miquel Garcia          : C-PCM and meta-GGA Hessian, CC/C-PCM, Gaussian charge scheme
   Yang Guo               : DLPNO-NEVPT2, F12-NEVPT2, CIM, IAO-localization
   Andreas Hansen         : Spin unrestricted coupled pair/coupled cluster methods
   Benjamin Helmich-Paris : MC-RPA, TRAH-SCF, COSX integrals
   Lee Huntington         : MR-EOM, pCC
   Robert Izsak           : Overlap fitted RIJCOSX, COSX-SCS-MP3, EOM
   Marcus Kettner         : VPT2
   Christian Kollmar      : KDIIS, OOCD, Brueckner-CCSD(T), CCSD density, CASPT2, CASPT2-K
   Simone Kossmann        : Meta GGA functionals, TD-DFT gradient, OOMP2, MP2 Hessian
   Martin Krupicka        : Initial AUTO-CI
   Lucas Lang             : DCDCAS
   Marvin Lechner         : AUTO-CI (C++ implementation), FIC-MRCC
   Dagmar Lenk            : GEPOL surface, SMD
   Dimitrios Liakos       : Extrapolation schemes; Compound Job, initial MDCI parallelization
   Dimitrios Manganas     : Further ROCIS development; embedding schemes
   Dimitrios Pantazis     : SARC Basis sets
   Anastasios Papadopoulos: AUTO-CI, single reference methods and gradients
   Taras Petrenko         : DFT Hessian,TD-DFT gradient, ASA, ECA, R-Raman, ABS, FL, XAS/XES, NRVS
   Peter Pinski           : DLPNO-MP2, DLPNO-MP2 Gradient
   Christoph Reimann      : Effective Core Potentials
   Marius Retegan         : Local ZFS, SOC
   Christoph Riplinger    : Optimizer, TS searches, QM/MM, DLPNO-CCSD(T), (RO)-DLPNO pert. Triples
   Tobias Risthaus        : Range-separated hybrids, TD-DFT gradient, RPA, STAB
   Michael Roemelt        : Original ROCIS implementation
   Masaaki Saitow         : Open-shell DLPNO-CCSD energy and density
   Barbara Sandhoefer     : DKH picture change effects
   Avijit Sen             : IP-ROCIS
   Kantharuban Sivalingam : CASSCF convergence, NEVPT2, FIC-MRCI
   Bernardo de Souza      : ESD, SOC TD-DFT
   Georgi Stoychev        : AutoAux, RI-MP2 NMR, DLPNO-MP2 response
   Willem Van den Heuvel  : Paramagnetic NMR
   Boris Wezisla          : Elementary symmetry handling
   Frank Wennmohs         : Technical directorship


 We gratefully acknowledge several colleagues who have allowed us to
 interface, adapt or use parts of their codes:
   Stefan Grimme, W. Hujo, H. Kruse, P. Pracht,  : VdW corrections, initial TS optimization,
                  C. Bannwarth, S. Ehlert          DFT functionals, gCP, sTDA/sTD-DF
   Ed Valeev, F. Pavosevic, A. Kumar             : LibInt (2-el integral package), F12 methods
   Garnet Chan, S. Sharma, J. Yang, R. Olivares  : DMRG
   Ulf Ekstrom                                   : XCFun DFT Library
   Mihaly Kallay                                 : mrcc  (arbitrary order and MRCC methods)
   Jiri Pittner, Ondrej Demel                    : Mk-CCSD
   Frank Weinhold                                : gennbo (NPA and NBO analysis)
   Christopher J. Cramer and Donald G. Truhlar   : smd solvation model
   Lars Goerigk                                  : TD-DFT with DH, B97 family of functionals
   V. Asgeirsson, H. Jonsson                     : NEB implementation
   FAccTs GmbH                                   : IRC, NEB, NEB-TS, DLPNO-Multilevel, CI-OPT
                                                   MM, QMMM, 2- and 3-layer-ONIOM, Crystal-QMMM,
                                                   LR-CPCM, SF, NACMEs, symmetry and pop. for TD-DFT,
                                                   nearIR, NL-DFT gradient (VV10), updates on ESD,
                                                   ML-optimized integration grids
   S Lehtola, MJT Oliveira, MAL Marques          : LibXC Library
   Liviu Ungur et al                             : ANISO software


 Your calculation uses the libint2 library for the computation of 2-el integrals
 For citations please refer to: http://libint.valeyev.net

 Your ORCA version has been built with support for libXC version: 5.1.0
 For citations please refer to: https://tddft.org/programs/libxc/

 This ORCA versions uses:
   CBLAS   interface :  Fast vector & matrix operations
   LAPACKE interface :  Fast linear algebra routines
   SCALAPACK package :  Parallel linear algebra routines
   Shared memory     :  Shared parallel matrices
   BLAS/LAPACK       :  OpenBLAS 0.3.15  USE64BITINT DYNAMIC_ARCH NO_AFFINITY Zen SINGLE_THREADED
        Core in use  :  Zen
   Copyright (c) 2011-2014, The OpenBLAS Project


Your calculation utilizes the atom-pairwise dispersion correction
based on tight binding partial charges (D4)
Cite in your paper:
E.Caldeweyher, C.Bannwarth, S.Grimme, J.Chem.Phys., (2017), 147, 034112.
E.Caldeweyher, S.Ehlert, A.Hansen, H.Neugebauer, S.Grimme, J.Chem.Phys., (2018), in progress.
   

================================================================================

----- Orbital basis set information -----
Your calculation utilizes the basis: pcSseg-1
   F. Jensen, J. Chem. Theory Comput. 11, 132 (2015).

----- AuxJ basis set information -----
Your calculation utilizes the auxiliary basis: def2/J
   F. Weigend, Phys. Chem. Chem. Phys. 8, 1057 (2006).

================================================================================
                                        WARNINGS
                       Please study these warnings very carefully!
================================================================================



WARNING: Found flag for RIJCOSX approximation but no HF exchange needed!
  ===> : RIJCOSX  will be disabled and Split-RI-J is turned on

INFO   : the flag for use of the SHARK integral package has been found!

================================================================================
                                       INPUT FILE
================================================================================
NAME = inpS
|  1> ! revTPSS
|  2> ! D4
|  3> ! pcSseg-1
|  4> ! def2/J RIJCOSX
|  5> ! DEFGRID2
|  6> ! scfconv7
|  7> ! smallprint printgap noloewdin
|  8> ! NOSOSCF
|  9> %MaxCore 4000
| 10> %output
| 11>        print[P_BondOrder_M] 1
| 12>        print[P_Mayer] 1
| 13>        print[P_basis] 2
| 14> end
| 15> %pal
| 16>     nprocs 4
| 17> end
| 18> ! CPCM(chloroform)
| 19> *xyz 0 1
| 20> C   -5.0420712100   0.1777732900  -0.4780462600
| 21> C   -6.4850292200  -0.2440945100  -0.6230889500
| 22> C   -7.3967425800   0.6716815800   0.2037095700
| 23> H   -6.6180309600  -1.2862664000  -0.3111779300
| 24> H   -6.7932571000  -0.1636708100  -1.6760722000
| 25> C   -4.7993454000   1.6027466000  -0.7946461600
| 26> C   -5.7347628900   2.5654246800  -0.0969187300
| 27> C   -7.2018716100   2.1292311700  -0.2170926200
| 28> H   -5.6004893100   3.5778010300  -0.4926190000
| 29> H   -5.4632836600   2.5987998600   0.9691939200
| 30> H   -7.5322108100   2.2345546200  -1.2594810200
| 31> H   -7.8383151400   2.7760397200   0.3978222200
| 32> O   -7.1599673300   0.4880747300   1.6095098100
| 33> H   -8.4436427100   0.3828614500   0.0485059200
| 34> C   -4.1001449000  -0.6848428100  -0.0274669700
| 35> C   -3.8610390100   2.0115590100  -1.6555813100
| 36> H   -3.2100307100   1.3030980400  -2.1609059900
| 37> H   -3.7309929800   3.0674777100  -1.8808853600
| 38> C   -2.7181585800  -0.3677233200   0.2490797500
| 39> H   -4.4338473700  -1.7027894800   0.1706291600
| 40> C   -1.7494480700  -1.2385407900   0.6038216100
| 41> H   -2.4485665800   0.6829240800   0.1686352500
| 42> C   -1.9140655000  -2.7304854700   0.7435318700
| 43> C   -0.8965516200  -3.4973689400  -0.1237940600
| 44> H   -2.9275794300  -3.0618804800   0.5016691700
| 45> H   -1.7317108100  -2.9935414500   1.7976621200
| 46> C    0.5455453600  -3.0174732400   0.0913220300
| 47> H   -1.1713832000  -3.3854989400  -1.1802421500
| 48> H   -0.9651818400  -4.5681528600   0.1040645100
| 49> C    0.6777477500  -1.5002758200  -0.0985632600
| 50> H    1.2065802100  -3.5635355200  -0.5898335600
| 51> H    0.8618327100  -3.2682938800   1.1150853800
| 52> C   -0.3376154700  -0.8167157800   0.8729570300
| 53> H   -0.0764466200  -1.2162700800   1.8700312500
| 54> C    0.0643566000   0.6551747300   0.8573355700
| 55> H   -6.2029021700   0.4267831700   1.7397632300
| 56> C    1.6075159900   0.6095207600   0.7384169000
| 57> H   -0.2792509900   1.1853332600   1.7517515800
| 58> H   -0.3698793300   1.1677949000  -0.0083175100
| 59> C    1.9995371500  -0.8628836100   0.4118736900
| 60> H    2.0994077800   0.9426291200   1.6576620800
| 61> H    1.9590525100   1.2763090000  -0.0576641200
| 62> H    2.2490988000  -1.3773225100   1.3543484400
| 63> C    3.2527582700  -0.9280728600  -0.4848965000
| 64> C    0.4035165600  -1.0990823900  -1.5539120400
| 65> H    0.6060154200  -0.0367469100  -1.7235387900
| 66> H   -0.6395337300  -1.2806644100  -1.8311648400
| 67> H    1.0389743400  -1.6714582400  -2.2386198800
| 68> H    3.0337241300  -0.3984482100  -1.4237445400
| 69> C    3.6941723400  -2.3612169400  -0.8181813300
| 70> C    4.3875200700  -0.2108697900   0.1968037100
| 71> C    5.0395695000   0.8440724300  -0.2898591900
| 72> H    4.6871588600  -0.6187898800   1.1676668600
| 73> H    4.7277687700   1.2526953600  -1.2546656600
| 74> C    6.1770146000   1.5460745100   0.3996048900
| 75> C    5.8338841100   3.0311918700   0.5895358600
| 76> C    7.5233406700   1.3139581900  -0.3403724600
| 77> H    6.2899111700   1.0914898900   1.3953741500
| 78> H    7.6029954800   0.2250424500  -0.4783380900
| 79> C    8.7169537000   1.7602156700   0.5087183800
| 80> C    7.5800962700   1.9677775400  -1.7231292400
| 81> H    5.6277758500   3.5156684600  -0.3713367600
| 82> H    6.6462722700   3.5778991000   1.0793143800
| 83> H    4.9368393100   3.1330594700   1.2093993300
| 84> H    8.6881237200   1.3065711100   1.5060520400
| 85> H    8.7360997200   2.8491964200   0.6312404100
| 86> H    9.6584892300   1.4679968500   0.0302567100
| 87> H    6.7417549200   1.6627037300  -2.3580041500
| 88> H    8.5067091300   1.6876987900  -2.2362622500
| 89> H    7.5663015000   3.0607895000  -1.6428177000
| 90> H    2.9716010500  -2.8706405500  -1.4608037400
| 91> H    3.8139652400  -2.9541909500   0.0968983400
| 92> H    4.6567880900  -2.3476920800  -1.3405469600
| 93> *
| 94> %eprnmr
| 95>  Nuclei = all H { shift }
| 96>  origin giao
| 97>  giao_2el giao_2el_same_as_scf
| 98>  giao_1el giao_1el_analytic
| 99> end
|100> 
|101>                          ****END OF INPUT****
================================================================================

                       ****************************
                       * Single Point Calculation *
                       ****************************

---------------------------------
CARTESIAN COORDINATES (ANGSTROEM)
---------------------------------
  C     -5.042071    0.177773   -0.478046
  C     -6.485029   -0.244095   -0.623089
  C     -7.396743    0.671682    0.203710
  H     -6.618031   -1.286266   -0.311178
  H     -6.793257   -0.163671   -1.676072
  C     -4.799345    1.602747   -0.794646
  C     -5.734763    2.565425   -0.096919
  C     -7.201872    2.129231   -0.217093
  H     -5.600489    3.577801   -0.492619
  H     -5.463284    2.598800    0.969194
  H     -7.532211    2.234555   -1.259481
  H     -7.838315    2.776040    0.397822
  O     -7.159967    0.488075    1.609510
  H     -8.443643    0.382861    0.048506
  C     -4.100145   -0.684843   -0.027467
  C     -3.861039    2.011559   -1.655581
  H     -3.210031    1.303098   -2.160906
  H     -3.730993    3.067478   -1.880885
  C     -2.718159   -0.367723    0.249080
  H     -4.433847   -1.702789    0.170629
  C     -1.749448   -1.238541    0.603822
  H     -2.448567    0.682924    0.168635
  C     -1.914065   -2.730485    0.743532
  C     -0.896552   -3.497369   -0.123794
  H     -2.927579   -3.061880    0.501669
  H     -1.731711   -2.993541    1.797662
  C      0.545545   -3.017473    0.091322
  H     -1.171383   -3.385499   -1.180242
  H     -0.965182   -4.568153    0.104065
  C      0.677748   -1.500276   -0.098563
  H      1.206580   -3.563536   -0.589834
  H      0.861833   -3.268294    1.115085
  C     -0.337615   -0.816716    0.872957
  H     -0.076447   -1.216270    1.870031
  C      0.064357    0.655175    0.857336
  H     -6.202902    0.426783    1.739763
  C      1.607516    0.609521    0.738417
  H     -0.279251    1.185333    1.751752
  H     -0.369879    1.167795   -0.008318
  C      1.999537   -0.862884    0.411874
  H      2.099408    0.942629    1.657662
  H      1.959053    1.276309   -0.057664
  H      2.249099   -1.377323    1.354348
  C      3.252758   -0.928073   -0.484896
  C      0.403517   -1.099082   -1.553912
  H      0.606015   -0.036747   -1.723539
  H     -0.639534   -1.280664   -1.831165
  H      1.038974   -1.671458   -2.238620
  H      3.033724   -0.398448   -1.423745
  C      3.694172   -2.361217   -0.818181
  C      4.387520   -0.210870    0.196804
  C      5.039569    0.844072   -0.289859
  H      4.687159   -0.618790    1.167667
  H      4.727769    1.252695   -1.254666
  C      6.177015    1.546075    0.399605
  C      5.833884    3.031192    0.589536
  C      7.523341    1.313958   -0.340372
  H      6.289911    1.091490    1.395374
  H      7.602995    0.225042   -0.478338
  C      8.716954    1.760216    0.508718
  C      7.580096    1.967778   -1.723129
  H      5.627776    3.515668   -0.371337
  H      6.646272    3.577899    1.079314
  H      4.936839    3.133059    1.209399
  H      8.688124    1.306571    1.506052
  H      8.736100    2.849196    0.631240
  H      9.658489    1.467997    0.030257
  H      6.741755    1.662704   -2.358004
  H      8.506709    1.687699   -2.236262
  H      7.566301    3.060789   -1.642818
  H      2.971601   -2.870641   -1.460804
  H      3.813965   -2.954191    0.096898
  H      4.656788   -2.347692   -1.340547

----------------------------
CARTESIAN COORDINATES (A.U.)
----------------------------
  NO LB      ZA    FRAG     MASS         X           Y           Z
   0 C     6.0000    0    12.011   -9.528134    0.335943   -0.903377
   1 C     6.0000    0    12.011  -12.254929   -0.461272   -1.177467
   2 C     6.0000    0    12.011  -13.977818    1.269294    0.384955
   3 H     1.0000    0     1.008  -12.506266   -2.430691   -0.588041
   4 H     1.0000    0     1.008  -12.837395   -0.309293   -3.167317
   5 C     6.0000    0    12.011   -9.069448    3.028752   -1.501664
   6 C     6.0000    0    12.011  -10.837131    4.847950   -0.183150
   7 C     6.0000    0    12.011  -13.609565    4.023664   -0.410246
   8 H     1.0000    0     1.008  -10.583391    6.761064   -0.930915
   9 H     1.0000    0     1.008  -10.324110    4.911020    1.831511
  10 H     1.0000    0     1.008  -14.233816    4.222696   -2.380074
  11 H     1.0000    0     1.008  -14.812269    5.245955    0.751775
  12 O     8.0000    0    15.999  -13.530377    0.922328    3.041533
  13 H     1.0000    0     1.008  -15.956172    0.723503    0.091663
  14 C     6.0000    0    12.011   -7.748151   -1.294165   -0.051905
  15 C     6.0000    0    12.011   -7.296306    3.801296   -3.128595
  16 H     1.0000    0     1.008   -6.066079    2.462498   -4.083521
  17 H     1.0000    0     1.008   -7.050555    5.796693   -3.554358
  18 C     6.0000    0    12.011   -5.136575   -0.694896    0.470693
  19 H     1.0000    0     1.008   -8.378757   -3.217806    0.322442
  20 C     6.0000    0    12.011   -3.305978   -2.340503    1.141057
  21 H     1.0000    0     1.008   -4.627120    1.290539    0.318674
  22 C     6.0000    0    12.011   -3.617060   -5.159870    1.405072
  23 C     6.0000    0    12.011   -1.694237   -6.609069   -0.233937
  24 H     1.0000    0     1.008   -5.532323   -5.786116    0.948017
  25 H     1.0000    0     1.008   -3.272459   -5.656974    3.397089
  26 C     6.0000    0    12.011    1.030931   -5.702198    0.172574
  27 H     1.0000    0     1.008   -2.213593   -6.397666   -2.230334
  28 H     1.0000    0     1.008   -1.823929   -8.632558    0.196653
  29 C     6.0000    0    12.011    1.280758   -2.835110   -0.186258
  30 H     1.0000    0     1.008    2.280106   -6.734106   -1.114624
  31 H     1.0000    0     1.008    1.628628   -6.176180    2.107206
  32 C     6.0000    0    12.011   -0.638001   -1.543369    1.649650
  33 H     1.0000    0     1.008   -0.144463   -2.298417    3.533847
  34 C     6.0000    0    12.011    0.121616    1.238101    1.620129
  35 H     1.0000    0     1.008  -11.721786    0.806503    3.287676
  36 C     6.0000    0    12.011    3.037765    1.151827    1.395406
  37 H     1.0000    0     1.008   -0.527708    2.239955    3.310331
  38 H     1.0000    0     1.008   -0.698971    2.206813   -0.015718
  39 C     6.0000    0    12.011    3.778578   -1.630614    0.778328
  40 H     1.0000    0     1.008    3.967306    1.781311    3.132527
  41 H     1.0000    0     1.008    3.702073    2.411874   -0.108969
  42 H     1.0000    0     1.008    4.250181   -2.602762    2.559348
  43 C     6.0000    0    12.011    6.146822   -1.753804   -0.916322
  44 C     6.0000    0    12.011    0.762536   -2.076965   -2.936468
  45 H     1.0000    0     1.008    1.145203   -0.069442   -3.257016
  46 H     1.0000    0     1.008   -1.208544   -2.420105   -3.460400
  47 H     1.0000    0     1.008    1.963377   -3.158598   -4.230378
  48 H     1.0000    0     1.008    5.732908   -0.752958   -2.690487
  49 C     6.0000    0    12.011    6.980974   -4.462053   -1.546139
  50 C     6.0000    0    12.011    8.291211   -0.398486    0.371905
  51 C     6.0000    0    12.011    9.523406    1.595066   -0.547754
  52 H     1.0000    0     1.008    8.857447   -1.169343    2.206571
  53 H     1.0000    0     1.008    8.934188    2.367251   -2.370974
  54 C     6.0000    0    12.011   11.672866    2.921657    0.755144
  55 C     6.0000    0    12.011   11.024443    5.728122    1.114061
  56 C     6.0000    0    12.011   14.217053    2.483021   -0.643211
  57 H     1.0000    0     1.008   11.886210    2.062617    2.636875
  58 H     1.0000    0     1.008   14.367579    0.425269   -0.903928
  59 C     6.0000    0    12.011   16.472655    3.326326    0.961338
  60 C     6.0000    0    12.011   14.324306    3.718561   -3.256242
  61 H     1.0000    0     1.008   10.634955    6.643651   -0.701725
  62 H     1.0000    0     1.008   12.559634    6.761249    2.039609
  63 H     1.0000    0     1.008    9.329274    5.920624    2.285434
  64 H     1.0000    0     1.008   16.418174    2.469062    2.846026
  65 H     1.0000    0     1.008   16.508836    5.384201    1.192871
  66 H     1.0000    0     1.008   18.251900    2.774112    0.057177
  67 H     1.0000    0     1.008   12.740070    3.142055   -4.455982
  68 H     1.0000    0     1.008   16.075351    3.189289   -4.225923
  69 H     1.0000    0     1.008   14.298238    5.784054   -3.104476
  70 H     1.0000    0     1.008    5.615512   -5.424724   -2.760519
  71 H     1.0000    0     1.008    7.207350   -5.582612    0.183111
  72 H     1.0000    0     1.008    8.800054   -4.436495   -2.533267

--------------------------------
INTERNAL COORDINATES (ANGSTROEM)
--------------------------------
 C      0   0   0     0.000000000000     0.00000000     0.00000000
 C      1   0   0     1.510343550727     0.00000000     0.00000000
 C      2   1   0     1.534100026234   110.44377111     0.00000000
 H      2   1   3     1.095947168228   110.74598934   237.88219311
 H      2   1   3     1.100111868090   109.82676830   118.76495733
 C      1   2   3     1.479763578999   113.90003528   306.00208538
 C      6   1   2     1.512804856181   114.37378841    49.94499699
 C      3   2   1     1.529542410450   110.17324892    56.77449379
 H      7   6   1     1.095223252129   110.22908579   188.70421658
 H      7   6   1     1.100641202868   108.27188992    72.02179133
 H      8   3   2     1.098540209838   108.30681631    64.49076495
 H      8   3   2     1.096148679552   109.51127909   181.47492678
 O      3   2   1     1.437375493448   110.66834094   292.74100054
 H      3   2   1     1.097043810730   109.49521613   177.23977721
 C      1   2   3     1.354383035196   121.23064814   122.72196425
 C      6   1   2     1.337443756047   123.17188502   231.90392276
 H     16   6   1     1.086775866911   121.35295448   359.01300238
 H     16   6   1     1.087491694623   120.93412506   178.39963694
 C     15   1   2     1.444620728062   126.09925047   185.09636256
 H     15   1   2     1.089410316717   116.26924522     3.09605126
 C     19  15   1     1.350024038852   126.52293759   185.22071691
 H     19  15   1     1.087663147841   115.78562369     5.84936875
 C     21  19  15     1.507486909790   125.75950505     1.86885803
 C     23  21  19     1.541330276548   111.60324890   124.89449347
 H     23  21  19     1.093403267147   112.37591952     1.21233157
 H     23  21  19     1.101654331242   107.87400044   243.47800774
 C     24  23  21     1.534997887549   112.69274995    50.89368964
 H     24  23  21     1.097328511035   109.00717778   288.75802213
 H     24  23  21     1.096908308999   109.11721511   172.83726646
 C     27  24  23     1.534738383743   111.87917985   306.49076142
 H     27  24  23     1.095045215661   108.90813074   182.97350686
 H     27  24  23     1.100472661188   109.21609419    66.50402257
 C     21  19  15     1.497879001716   122.81249160   180.04473947
 H     33  21  19     1.105445524233   106.43697651   127.10861967
 C     33  21  19     1.525872618701   121.20600522     4.48594996
 H     13   3   2     0.967830733773   107.61449663    42.28221791
 C     35  33  21     1.548407839685   103.58510686   196.88077798
 H     35  33  21     1.095040748914   112.08564830    74.82483154
 H     35  33  21     1.095762536550   110.79105903   315.22554106
 C     30  27  24     1.553686560168   115.98855877   166.25843849
 H     37  35  33     1.094500074703   111.98856318   249.51484594
 H     37  35  33     1.096325440871   110.94048725   130.92119890
 H     40  30  27     1.102355230119   106.38159628   321.10556939
 C     40  30  27     1.542403834151   118.87419185    81.85984017
 C     30  27  24     1.534339918431   111.12766630   294.09740768
 H     45  30  27     1.094685203464   111.57166167   186.45949903
 H     45  30  27     1.094438236066   111.54560163    66.41462349
 H     45  30  27     1.095557177870   110.64232657   306.25886837
 H     44  40  30     1.099960847751   108.30684271    60.92787727
 C     44  40  30     1.536172878663   113.51844091   300.06373212
 C     44  40  30     1.505582864764   109.20850297   178.17961816
 C     51  44  40     1.332258355177   125.49935695   239.90226024
 H     51  44  40     1.094877828950   115.48566081    60.55771625
 H     52  51  44     1.093180643217   118.60597049     1.33716288
 C     52  51  44     1.503977723721   124.91060991   180.35146832
 C     55  52  51     1.536029257373   109.81785401   237.27467912
 C     55  52  51     1.553717590582   111.54780896   110.69841356
 H     55  52  51     1.100431384239   107.43344050   354.59905599
 H     57  55  52     1.100507561372   105.67891362   309.02260649
 C     57  55  52     1.531278243303   111.58105104   192.42423017
 C     57  55  52     1.530593758383   113.48919672    67.01473014
 H     56  55  52     1.095661614260   111.16803275   301.64920612
 H     56  55  52     1.094872739863   111.86030186   180.66500533
 H     56  55  52     1.095124240704   110.05413669    60.67230846
 H     60  57  55     1.096037856980   111.31150867    52.44710035
 H     60  57  55     1.096018837333   111.41741031   291.75461210
 H     60  57  55     1.095813196979   110.48252568   172.47355996
 H     61  57  55     1.094966848820   112.11110757   305.68902181
 H     61  57  55     1.095609868735   110.19874581   185.69081624
 H     61  57  55     1.096045338405   111.05854416    66.73931237
 H     50  44  40     1.092970834648   111.86532278    67.60379793
 H     50  44  40     1.096968239227   110.77493798   306.91863465
 H     50  44  40     1.095298066917   110.15059527   187.53085151

---------------------------
INTERNAL COORDINATES (A.U.)
---------------------------
 C      0   0   0     0.000000000000     0.00000000     0.00000000
 C      1   0   0     2.854135679008     0.00000000     0.00000000
 C      2   1   0     2.899028911624   110.44377111     0.00000000
 H      2   1   3     2.071040005197   110.74598934   237.88219311
 H      2   1   3     2.078910147366   109.82676830   118.76495733
 C      1   2   3     2.796347907260   113.90003528   306.00208538
 C      6   1   2     2.858786872248   114.37378841    49.94499699
 C      3   2   1     2.890416265969   110.17324892    56.77449379
 H      7   6   1     2.069672002026   110.22908579   188.70421658
 H      7   6   1     2.079910445131   108.27188992    72.02179133
 H      8   3   2     2.075940143694   108.30681631    64.49076495
 H      8   3   2     2.071420806413   109.51127909   181.47492678
 O      3   2   1     2.716246034226   110.66834094   292.74100054
 H      3   2   1     2.073112359193   109.49521613   177.23977721
 C      1   2   3     2.559413016949   121.23064814   122.72196425
 C      6   1   2     2.527402418453   123.17188502   231.90392276
 H     16   6   1     2.053708757416   121.35295448   359.01300238
 H     16   6   1     2.055061475752   120.93412506   178.39963694
 C     15   1   2     2.729937543424   126.09925047   185.09636256
 H     15   1   2     2.058687146063   116.26924522     3.09605126
 C     19  15   1     2.551175707640   126.52293759   185.22071691
 H     19  15   1     2.055385475378   115.78562369     5.84936875
 C     21  19  15     2.848737409975   125.75950505     1.86885803
 C     23  21  19     2.912692104596   111.60324890   124.89449347
 H     23  21  19     2.066232728843   112.37591952     1.21233157
 H     23  21  19     2.081824980295   107.87400044   243.47800774
 C     24  23  21     2.900725623616   112.69274995    50.89368964
 H     24  23  21     2.073650364799   109.00717778   288.75802213
 H     24  23  21     2.072856298030   109.11721511   172.83726646
 C     27  24  23     2.900235232492   111.87917985   306.49076142
 H     27  24  23     2.069335561860   108.90813074   182.97350686
 H     27  24  23     2.079591947514   109.21609419    66.50402257
 C     21  19  15     2.830581094995   122.81249160   180.04473947
 H     33  21  19     2.088989296770   106.43697651   127.10861967
 C     33  21  19     2.883481364594   121.20600522     4.48594996
 H     13   3   2     1.828935030822   107.61449663    42.28221791
 C     35  33  21     2.926066760620   103.58510686   196.88077798
 H     35  33  21     2.069327120931   112.08564830    74.82483154
 H     35  33  21     2.070691101891   110.79105903   315.22554106
 C     30  27  24     2.936042096671   115.98855877   166.25843849
 H     37  35  33     2.068305394745   111.98856318   249.51484594
 H     37  35  33     2.071754836896   110.94048725   130.92119890
 H     40  30  27     2.083149487221   106.38159628   321.10556939
 C     40  30  27     2.914720834455   118.87419185    81.85984017
 C     30  27  24     2.899482242178   111.12766630   294.09740768
 H     45  30  27     2.068655237403   111.57166167   186.45949903
 H     45  30  27     2.068188536657   111.54560163    66.41462349
 H     45  30  27     2.070303030227   110.64232657   306.25886837
 H     44  40  30     2.078624760285   108.30684271    60.92787727
 C     44  40  30     2.902946035031   113.51844091   300.06373212
 C     44  40  30     2.845139286328   109.20850297   178.17961816
 C     51  44  40     2.517603430912   125.49935695   239.90226024
 H     51  44  40     2.069019246818   115.48566081    60.55771625
 H     52  51  44     2.065812030584   118.60597049     1.33716288
 C     52  51  44     2.842106009351   124.91060991   180.35146832
 C     55  52  51     2.902674630126   109.81785401   237.27467912
 C     55  52  51     2.936100735657   111.54780896   110.69841356
 H     55  52  51     2.079513945385   107.43344050   354.59905599
 H     57  55  52     2.079657899303   105.67891362   309.02260649
 C     57  55  52     2.893696514675   111.58105104   192.42423017
 C     57  55  52     2.892403025634   113.48919672    67.01473014
 H     56  55  52     2.070500386402   111.16803275   301.64920612
 H     56  55  52     2.069009629838   111.86030186   180.66500533
 H     56  55  52     2.069484897549   110.05413669    60.67230846
 H     60  57  55     2.071211382102   111.31150867    52.44710035
 H     60  57  55     2.071175440177   111.41741031   291.75461210
 H     60  57  55     2.070786836227   110.48252568   172.47355996
 H     61  57  55     2.069187469993   112.11110757   305.68902181
 H     61  57  55     2.070402601531   110.19874581   185.69081624
 H     61  57  55     2.071225519947   111.05854416    66.73931237
 H     50  44  40     2.065415549849   111.86532278    67.60379793
 H     50  44  40     2.072969549749   110.77493798   306.91863465
 H     50  44  40     2.069813381486   110.15059527   187.53085151

---------------------
BASIS SET INFORMATION
---------------------
There are 3 groups of distinct atoms

 Group   1 Type C   : 8s5p1d contracted to 3s3p1d pattern {521/311/1}
 Group   2 Type H   : 4s2p contracted to 2s1p pattern {31/2}
 Group   3 Type O   : 8s5p1d contracted to 3s3p1d pattern {521/311/1}

Atom   0C    basis set group =>   1
Atom   1C    basis set group =>   1
Atom   2C    basis set group =>   1
Atom   3H    basis set group =>   2
Atom   4H    basis set group =>   2
Atom   5C    basis set group =>   1
Atom   6C    basis set group =>   1
Atom   7C    basis set group =>   1
Atom   8H    basis set group =>   2
Atom   9H    basis set group =>   2
Atom  10H    basis set group =>   2
Atom  11H    basis set group =>   2
Atom  12O    basis set group =>   3
Atom  13H    basis set group =>   2
Atom  14C    basis set group =>   1
Atom  15C    basis set group =>   1
Atom  16H    basis set group =>   2
Atom  17H    basis set group =>   2
Atom  18C    basis set group =>   1
Atom  19H    basis set group =>   2
Atom  20C    basis set group =>   1
Atom  21H    basis set group =>   2
Atom  22C    basis set group =>   1
Atom  23C    basis set group =>   1
Atom  24H    basis set group =>   2
Atom  25H    basis set group =>   2
Atom  26C    basis set group =>   1
Atom  27H    basis set group =>   2
Atom  28H    basis set group =>   2
Atom  29C    basis set group =>   1
Atom  30H    basis set group =>   2
Atom  31H    basis set group =>   2
Atom  32C    basis set group =>   1
Atom  33H    basis set group =>   2
Atom  34C    basis set group =>   1
Atom  35H    basis set group =>   2
Atom  36C    basis set group =>   1
Atom  37H    basis set group =>   2
Atom  38H    basis set group =>   2
Atom  39C    basis set group =>   1
Atom  40H    basis set group =>   2
Atom  41H    basis set group =>   2
Atom  42H    basis set group =>   2
Atom  43C    basis set group =>   1
Atom  44C    basis set group =>   1
Atom  45H    basis set group =>   2
Atom  46H    basis set group =>   2
Atom  47H    basis set group =>   2
Atom  48H    basis set group =>   2
Atom  49C    basis set group =>   1
Atom  50C    basis set group =>   1
Atom  51C    basis set group =>   1
Atom  52H    basis set group =>   2
Atom  53H    basis set group =>   2
Atom  54C    basis set group =>   1
Atom  55C    basis set group =>   1
Atom  56C    basis set group =>   1
Atom  57H    basis set group =>   2
Atom  58H    basis set group =>   2
Atom  59C    basis set group =>   1
Atom  60C    basis set group =>   1
Atom  61H    basis set group =>   2
Atom  62H    basis set group =>   2
Atom  63H    basis set group =>   2
Atom  64H    basis set group =>   2
Atom  65H    basis set group =>   2
Atom  66H    basis set group =>   2
Atom  67H    basis set group =>   2
Atom  68H    basis set group =>   2
Atom  69H    basis set group =>   2
Atom  70H    basis set group =>   2
Atom  71H    basis set group =>   2
Atom  72H    basis set group =>   2

-------------------------
BASIS SET IN INPUT FORMAT
-------------------------

 # Basis set for element : H 
 NewGTO H 
 S 3 
   1      12.2518000000      0.0372173893
   2       1.8687100000      0.2538082070
   3       0.4182080000      0.7973867639
 S 1 
   1       0.1061000000      1.0000000000
 P 2 
   1       9.0000000000      0.0402678705
   2       1.0000000000      0.9880231245
  end;

 # Basis set for element : C 
 NewGTO C 
 S 5 
   1    1243.2000000000      0.0056300977
   2     187.1450000000      0.0419506039
   3      42.5126000000      0.1846643605
   4      11.7393000000      0.4665574214
   5       3.5054800000      0.4482347783
 S 2 
   1       5.3908900000     -0.1481148174
   2       0.4933410000      1.0519817143
 S 1 
   1       0.1497410000      1.0000000000
 P 3 
   1      59.6736000000      0.0113906672
   2       9.1805600000      0.1672414929
   3       1.9365800000      0.9041087436
 P 1 
   1       0.5262960000      1.0000000000
 P 1 
   1       0.1363190000      1.0000000000
 D 1 
   1       0.8000000000      1.0000000000
  end;

 # Basis set for element : O 
 NewGTO O 
 S 5 
   1    2288.6400000000      0.0054511382
   2     344.4160000000      0.0407189228
   3      78.2538000000      0.1813694209
   4      21.7195000000      0.4655368202
   5       6.5590700000      0.4512113212
 S 2 
   1      10.4656000000     -0.1502112012
   2       0.9643510000      1.0528679834
 S 1 
   1       0.2851270000      1.0000000000
 P 3 
   1     110.8840000000      0.0113058003
   2      17.0590000000      0.1699226452
   3       3.6899900000      0.9008060328
 P 1 
   1       0.9929960000      1.0000000000
 P 1 
   1       0.2449240000      1.0000000000
 D 1 
   1       1.0000000000      1.0000000000
  end;

---------------------------------
AUXILIARY/J BASIS SET INFORMATION
---------------------------------
There are 3 groups of distinct atoms

 Group   1 Type C   : 12s5p4d2f1g contracted to 6s4p3d1f1g pattern {711111/2111/211/2/1}
 Group   2 Type H   : 5s2p1d contracted to 3s1p1d pattern {311/2/1}
 Group   3 Type O   : 12s5p4d2f1g contracted to 6s4p3d1f1g pattern {711111/2111/211/2/1}

Atom   0C    basis set group =>   1
Atom   1C    basis set group =>   1
Atom   2C    basis set group =>   1
Atom   3H    basis set group =>   2
Atom   4H    basis set group =>   2
Atom   5C    basis set group =>   1
Atom   6C    basis set group =>   1
Atom   7C    basis set group =>   1
Atom   8H    basis set group =>   2
Atom   9H    basis set group =>   2
Atom  10H    basis set group =>   2
Atom  11H    basis set group =>   2
Atom  12O    basis set group =>   3
Atom  13H    basis set group =>   2
Atom  14C    basis set group =>   1
Atom  15C    basis set group =>   1
Atom  16H    basis set group =>   2
Atom  17H    basis set group =>   2
Atom  18C    basis set group =>   1
Atom  19H    basis set group =>   2
Atom  20C    basis set group =>   1
Atom  21H    basis set group =>   2
Atom  22C    basis set group =>   1
Atom  23C    basis set group =>   1
Atom  24H    basis set group =>   2
Atom  25H    basis set group =>   2
Atom  26C    basis set group =>   1
Atom  27H    basis set group =>   2
Atom  28H    basis set group =>   2
Atom  29C    basis set group =>   1
Atom  30H    basis set group =>   2
Atom  31H    basis set group =>   2
Atom  32C    basis set group =>   1
Atom  33H    basis set group =>   2
Atom  34C    basis set group =>   1
Atom  35H    basis set group =>   2
Atom  36C    basis set group =>   1
Atom  37H    basis set group =>   2
Atom  38H    basis set group =>   2
Atom  39C    basis set group =>   1
Atom  40H    basis set group =>   2
Atom  41H    basis set group =>   2
Atom  42H    basis set group =>   2
Atom  43C    basis set group =>   1
Atom  44C    basis set group =>   1
Atom  45H    basis set group =>   2
Atom  46H    basis set group =>   2
Atom  47H    basis set group =>   2
Atom  48H    basis set group =>   2
Atom  49C    basis set group =>   1
Atom  50C    basis set group =>   1
Atom  51C    basis set group =>   1
Atom  52H    basis set group =>   2
Atom  53H    basis set group =>   2
Atom  54C    basis set group =>   1
Atom  55C    basis set group =>   1
Atom  56C    basis set group =>   1
Atom  57H    basis set group =>   2
Atom  58H    basis set group =>   2
Atom  59C    basis set group =>   1
Atom  60C    basis set group =>   1
Atom  61H    basis set group =>   2
Atom  62H    basis set group =>   2
Atom  63H    basis set group =>   2
Atom  64H    basis set group =>   2
Atom  65H    basis set group =>   2
Atom  66H    basis set group =>   2
Atom  67H    basis set group =>   2
Atom  68H    basis set group =>   2
Atom  69H    basis set group =>   2
Atom  70H    basis set group =>   2
Atom  71H    basis set group =>   2
Atom  72H    basis set group =>   2

-------------------------------------
AUXILIARY/J BASIS SET IN INPUT FORMAT
-------------------------------------

 # Auxiliary/J basis set for element : H 
 NewAuxJGTO H 
 S 3 
   1      15.6752927000      0.1007184237
   2       3.6063578000      0.3404257499
   3       1.2080016000      0.6491996172
 S 1 
   1       0.4726794000      1.0000000000
 S 1 
   1       0.2018100000      1.0000000000
 P 2 
   1       2.0281365000      0.5596620919
   2       0.5358730000      0.5596620919
 D 1 
   1       2.2165124000      1.0000000000
  end;

 # Auxiliary/J basis set for element : C 
 NewAuxJGTO C 
 S 7 
   1    1861.0916331000      0.0134602335
   2     642.9939764000      0.0299160374
   3     235.1105725000      0.1008649584
   4      90.7028894000      0.2370970548
   5      36.7794552000      0.3924037254
   6      15.6046273000      0.3195862154
   7       6.8907294000      0.0530104441
 S 1 
   1       3.1478850000     -1.0000000000
 S 1 
   1       1.4777287000      1.0000000000
 S 1 
   1       0.7076466000      1.0000000000
 S 1 
   1       0.3430122000      1.0000000000
 S 1 
   1       0.1669453000      1.0000000000
 P 2 
   1      13.5472892000     -0.6769313712
   2       5.4669419000     -0.3779500978
 P 1 
   1       2.1751721000      1.0000000000
 P 1 
   1       0.8582194000      1.0000000000
 P 1 
   1       0.3376720000      1.0000000000
 D 2 
   1       5.9287253000     -0.3533329857
   2       1.9809209000     -0.7456525731
 D 1 
   1       0.8055417000     -1.0000000000
 D 1 
   1       0.3531244000     -1.0000000000
 F 2 
   1       1.6755626000      0.6311076882
   2       0.5997536000      0.4968166032
 G 1 
   1       1.0024600000     -1.0000000000
  end;

 # Auxiliary/J basis set for element : O 
 NewAuxJGTO O 
 S 7 
   1    2876.8216605000      0.0168151159
   2    1004.7443032000      0.0340137548
   3     369.7579954000      0.1194951309
   4     142.9442404000      0.2664627624
   5      57.8366425000      0.4202764046
   6      24.3864983000      0.2765077335
   7      10.6622662000      0.0057008815
 S 1 
   1       4.8070437000     -1.0000000000
 S 1 
   1       2.2210770000      1.0000000000
 S 1 
   1       1.0447795000      1.0000000000
 S 1 
   1       0.4968425000      1.0000000000
 S 1 
   1       0.2371384000      1.0000000000
 P 2 
   1      64.2613382000     -0.2731534179
   2      16.3006076000     -0.8168011598
 P 1 
   1       4.3550542000      1.0000000000
 P 1 
   1       1.2019554000      1.0000000000
 P 1 
   1       0.3354196000      1.0000000000
 D 2 
   1       9.2146611000     -0.4661230638
   2       2.8435251000     -0.6600908911
 D 1 
   1       0.9955759000     -1.0000000000
 D 1 
   1       0.3649441000     -1.0000000000
 F 2 
   1       2.6420115000      0.5931563945
   2       0.7345613000      0.5931563945
 G 1 
   1       1.3931000000     -1.0000000000
  end;



           ************************************************************
           *        Program running with 4 parallel MPI-processes     *
           *              working on a common directory               *
           ************************************************************
------------------------------------------------------------------------------
                           ORCA GTO INTEGRAL CALCULATION
                           -- RI-GTO INTEGRALS CHOSEN --
------------------------------------------------------------------------------
------------------------------------------------------------------------------
                   ___                                                        
                  /   \      - P O W E R E D   B Y -                         
                 /     \                                                     
                 |  |  |   _    _      __       _____    __    __             
                 |  |  |  | |  | |    /  \     |  _  \  |  |  /  |          
                  \  \/   | |  | |   /    \    | | | |  |  | /  /          
                 / \  \   | |__| |  /  /\  \   | |_| |  |  |/  /          
                |  |  |   |  __  | /  /__\  \  |    /   |      \           
                |  |  |   | |  | | |   __   |  |    \   |  |\   \          
                \     /   | |  | | |  |  |  |  | |\  \  |  | \   \       
                 \___/    |_|  |_| |__|  |__|  |_| \__\ |__|  \__/        
                                                                              
                      - O R C A' S   B I G   F R I E N D -                    
                                      &                                       
                       - I N T E G R A L  F E E D E R -                       
                                                                              
 v1 FN, 2020, v2 2021                                                         
------------------------------------------------------------------------------


Reading SHARK input file inpS.SHARKINP.tmp ... ok
----------------------
SHARK INTEGRAL PACKAGE
----------------------

Number of atoms                             ...     73
Number of basis functions                   ...    713
Number of shells                            ...    335
Maximum angular momentum                    ...      2
Integral batch strategy                     ... SHARK/LIBINT Hybrid
RI-J (if used) integral strategy            ... SPLIT-RIJ (Revised 2003 algorithm where possible)
Printlevel                                  ...      1
Contraction scheme used                     ... SEGMENTED contraction
Coulomb Range Separation                    ... NOT USED
Exchange Range Separation                   ... NOT USED
Finite Nucleus Model                        ... NOT USED
Auxiliary Coulomb fitting basis             ... AVAILABLE
   # of basis functions in Aux-J            ...   1905
   # of shells in Aux-J                     ...    655
   Maximum angular momentum in Aux-J        ...      4
Auxiliary J/K fitting basis                 ... NOT available
Auxiliary Correlation fitting basis         ... NOT available
Auxiliary 'external' fitting basis          ... NOT available
Integral threshold                          ...     3.000000e-11
Primitive cut-off                           ...     1.000000e-12
Primitive pair pre-selection threshold      ...     1.000000e-12

Calculating pre-screening integrals         ... done (  0.0 sec) Dimension = 335
Organizing shell pair data                  ... done (  0.1 sec)
Shell pair information
Total number of shell pairs                 ...     56280
Shell pairs after pre-screening             ...     31189
Total number of primitive shell pairs       ...    225367
Primitive shell pairs kept                  ...     73517
          la=0 lb=0:   9530 shell pairs
          la=1 lb=0:  12810 shell pairs
          la=1 lb=1:   4195 shell pairs
          la=2 lb=0:   2723 shell pairs
          la=2 lb=1:   1736 shell pairs
          la=2 lb=2:    195 shell pairs

Calculating one electron integrals          ... done (  0.1 sec)
Calculating RI/J V-Matrix + Cholesky decomp.... done (  0.1 sec)
Calculating Nuclear repulsion               ... done (  0.0 sec) ENN=   2767.552559492728 Eh

SHARK setup successfully completed in   0.6 seconds

Maximum memory used throughout the entire GTOINT-calculation: 60.8 MB


           ************************************************************
           *        Program running with 4 parallel MPI-processes     *
           *              working on a common directory               *
           ************************************************************
-------------------------------------------------------------------------------
                                 ORCA SCF
-------------------------------------------------------------------------------

------------
SCF SETTINGS
------------
Hamiltonian:
 Density Functional     Method          .... DFT(GTOs)
 Exchange Functional    Exchange        .... revTPSS
 Correlation Functional Correlation     .... revTPSS
 LDA part of GGA corr.  LDAOpt          .... PW91-LDA
 Gradients option       PostSCFGGA      .... off
   Density functional embedding theory  .... OFF
 RI-approximation to the Coulomb term is turned on
   Number of AuxJ basis functions       .... 1905


General Settings:
 Integral files         IntName         .... inpS
 Hartree-Fock type      HFTyp           .... RHF
 Total Charge           Charge          ....    0
 Multiplicity           Mult            ....    1
 Number of Electrons    NEL             ....  220
 Basis Dimension        Dim             ....  713
 Nuclear Repulsion      ENuc            ....   2767.5525594927 Eh

Convergence Acceleration:
 DIIS                   CNVDIIS         .... on
   Start iteration      DIISMaxIt       ....    12
   Startup error        DIISStart       ....  0.200000
   # of expansion vecs  DIISMaxEq       ....     5
   Bias factor          DIISBfac        ....   1.050
   Max. coefficient     DIISMaxC        ....  10.000
 Trust-Rad. Augm. Hess. CNVTRAH         .... auto
   Auto Start mean grad. ratio tolernc. ....  1.125000
   Auto Start start iteration           ....    20
   Auto Start num. interpolation iter.  ....    10
   Max. Number of Micro iterations      ....    16
   Max. Number of Macro iterations      .... Maxiter - #DIIS iter
   Number of Davidson start vectors     ....     2
   Converg. threshold I  (grad. norm)   ....   1.000e-04
   Converg. threshold II (energy diff.) ....   1.000e-07
   Grad. Scal. Fac. for Micro threshold ....   0.100
   Minimum threshold for Micro iter.    ....   0.010
   NR start threshold (gradient norm)   ....   0.001
   Initial trust radius                 ....   0.400
   Minimum AH scaling param. (alpha)    ....   1.000
   Maximum AH scaling param. (alpha)    .... 1000.000
   Orbital update algorithm             .... Taylor
   White noise on init. David. guess    .... on
   Maximum white noise                  ....   0.010
   Quad. conv. algorithm                .... NR
 SOSCF                  CNVSOSCF        .... off
 Level Shifting         CNVShift        .... on
   Level shift para.    LevelShift      ....    0.2500
   Turn off err/grad.   ShiftErr        ....    0.0010
 Zerner damping         CNVZerner       .... off
 Static damping         CNVDamp         .... on
   Fraction old density DampFac         ....    0.7000
   Max. Damping (<1)    DampMax         ....    0.9800
   Min. Damping (>=0)   DampMin         ....    0.0000
   Turn off err/grad.   DampErr         ....    0.1000
 Fernandez-Rico         CNVRico         .... off

SCF Procedure:
 Maximum # iterations   MaxIter         ....   125
 SCF integral mode      SCFMode         .... Direct
   Integral package                     .... SHARK and LIBINT hybrid scheme
 Reset frequency        DirectResetFreq ....    20
 Integral Threshold     Thresh          ....  3.000e-11 Eh
 Primitive CutOff       TCut            ....  1.000e-12 Eh

Convergence Tolerance:
 Convergence Check Mode ConvCheckMode   .... Total+1el-Energy
 Convergence forced     ConvForced      .... 0
 Energy Change          TolE            ....  1.000e-07 Eh
 1-El. energy change                    ....  1.000e-04 Eh
 DIIS Error             TolErr          ....  1.000e-07


Diagonalization of the overlap matrix:
Smallest eigenvalue                        ... 5.142e-04
Time for diagonalization                   ...    0.081 sec
Threshold for overlap eigenvalues          ... 1.000e-08
Number of eigenvalues below threshold      ... 0
Time for construction of square roots      ...    0.056 sec
Total time needed                          ...    0.139 sec

Time for model grid setup =    0.768 sec

------------------------------
INITIAL GUESS: MODEL POTENTIAL
------------------------------
Loading Hartree-Fock densities                     ... done
Calculating cut-offs                               ... done
Initializing the effective Hamiltonian             ... done
Setting up the integral package (SHARK)            ... done
Starting the Coulomb interaction                   ... done (   0.9 sec)
Reading the grid                                   ... done
Mapping shells                                     ... done
Starting the XC term evaluation                    ... done (   0.4 sec)
  promolecular density results
     # of electrons  =    219.976325324
     EX              =   -164.426538586
     EC              =     -7.322768513
     EX+EC           =   -171.749307100
Transforming the Hamiltonian                       ... done (   0.1 sec)
Diagonalizing the Hamiltonian                      ... done (   0.1 sec)
Back transforming the eigenvectors                 ... done (   0.0 sec)
Now organizing SCF variables                       ... done
                      ------------------
                      INITIAL GUESS DONE (   2.3 sec)
                      ------------------
-------------------
DFT GRID GENERATION
-------------------

General Integration Accuracy     IntAcc      ... 4.388
Radial Grid Type                 RadialGrid  ... OptM3 with GC (2021)
Angular Grid (max. ang.)         AngularGrid ... 4 (Lebedev-302)
Angular grid pruning method      GridPruning ... 4 (adaptive)
Weight generation scheme         WeightScheme... Becke
Basis function cutoff            BFCut       ... 1.0000e-11
Integration weight cutoff        WCut        ... 1.0000e-14
Angular grids for H and He will be reduced by one unit
Partially contracted basis set               ... off
Rotationally invariant grid construction     ... off

Total number of grid points                  ...   310040
Total number of batches                      ...     4883
Average number of points per batch           ...       63
Average number of grid points per atom       ...     4247
Time for grid setup =    2.989 sec


--------------------
CPCM SOLVATION MODEL
--------------------
CPCM parameters:
  Epsilon                                         ...       4.9000
  Refrac                                          ...       1.4500
  Rsolv                                           ...       1.3000
  Surface type                                    ... GAUSSIAN VDW
  Epsilon function type                           ...         CPCM
Radii:
 Radius for C  used is    3.8550 Bohr (=   2.0400 Ang.)
 Radius for H  used is    2.4944 Bohr (=   1.3200 Ang.)
 Radius for O  used is    3.4469 Bohr (=   1.8240 Ang.)
Calculating surface                               ...        done! (  0.0s)
GEPOL surface points                              ...         3640
GEPOL Volume                                      ...    3609.6265
GEPOL Surface-area                                ...    1801.7937
Calculating surface distance matrix               ...        done! (  0.1s)
Performing Cholesky decomposition & store         ...        done! (  0.5s)
Overall time for CPCM initialization              ...                 0.6s
--------------
SCF ITERATIONS
--------------
ITER       Energy         Delta-E        Max-DP      RMS-DP      [F,P]     Damp
               ***  Starting incremental Fock matrix formation  ***

  HOMO= 109 E= -1.921 eV LUMO=  7.772 eV gap=   9.692 eV
  0  -1167.5244893762   0.000000000000 0.05544966  0.00082757  0.2628304 0.7000

  HOMO= 109 E= -3.437 eV LUMO=  6.671 eV gap=  10.108 eV
  1  -1167.8982553091  -0.373765932910 0.02897715  0.00061198  0.1014031 0.7000
                               ***Turning on DIIS***

  HOMO= 109 E= -4.411 eV LUMO=  5.788 eV gap=  10.199 eV
  2  -1168.0448141012  -0.146558792056 0.04797147  0.00101166  0.0317963 0.0000

  HOMO= 109 E= -5.033 eV LUMO=  5.204 eV gap=  10.237 eV
  3  -1168.2427367060  -0.197922604839 0.02324897  0.00047197  0.0537922 0.0000

  HOMO= 109 E= -5.055 eV LUMO=  5.181 eV gap=  10.237 eV
  4  -1168.3096277098  -0.066891003815 0.00755175  0.00015295  0.0103213 0.0000

  HOMO= 109 E= -5.011 eV LUMO=  5.233 eV gap=  10.244 eV
  5  -1168.3127253205  -0.003097610715 0.00342290  0.00005716  0.0102392 0.0000

  HOMO= 109 E= -4.992 eV LUMO=  5.249 eV gap=  10.241 eV
  6  -1168.3129971789  -0.000271858394 0.00126977  0.00001927  0.0030233 0.0000

  HOMO= 109 E= -4.993 eV LUMO= -1.555 eV gap=   3.438 eV
  7  -1168.3130173465  -0.000020167623 0.00068892  0.00001171  0.0005342 0.0000

  HOMO= 109 E= -4.991 eV LUMO= -1.553 eV gap=   3.438 eV
  8  -1168.3130204127  -0.000003066129 0.00025949  0.00000287  0.0003730 0.0000

  HOMO= 109 E= -4.989 eV LUMO= -1.551 eV gap=   3.438 eV
  9  -1168.3130210582  -0.000000645488 0.00015643  0.00000152  0.0002491 0.0000

  HOMO= 109 E= -4.990 eV LUMO= -1.552 eV gap=   3.438 eV
 10  -1168.3130213000  -0.000000241844 0.00006673  0.00000069  0.0000997 0.0000

  HOMO= 109 E= -4.990 eV LUMO= -1.552 eV gap=   3.438 eV
 11  -1168.3130213177  -0.000000017732 0.00002819  0.00000027  0.0000288 0.0000

  HOMO= 109 E= -4.990 eV LUMO= -1.552 eV gap=   3.438 eV
 12  -1168.3130213078   0.000000009889 0.00001397  0.00000013  0.0000164 0.0000

  HOMO= 109 E= -4.990 eV LUMO= -1.552 eV gap=   3.438 eV
 13  -1168.3130213434  -0.000000035561 0.00000654  0.00000006  0.0000074 0.0000
                 **** Energy Check signals convergence ****

               *****************************************************
               *                     SUCCESS                       *
               *           SCF CONVERGED AFTER  14 CYCLES          *
               *****************************************************


----------------
TOTAL SCF ENERGY
----------------

Total Energy       :        -1168.31302136 Eh          -31791.41356 eV

Components:
Nuclear Repulsion  :         2767.55255949 Eh           75308.93378 eV
Electronic Energy  :        -3935.86558085 Eh         -107100.34733 eV
One Electron Energy:        -7081.27194834 Eh         -192691.20595 eV
Two Electron Energy:         3145.40636748 Eh           85590.85861 eV
CPCM Dielectric    :           -0.00906123 Eh              -0.24657 eV

Virial components:
Potential Energy   :        -2330.41826407 Eh          -63413.90487 eV
Kinetic Energy     :         1162.10524271 Eh           31622.49131 eV
Virial Ratio       :            2.00534184


DFT components:
N(Alpha)           :      109.999994604671 electrons
N(Beta)            :      109.999994604671 electrons
N(Total)           :      219.999989209341 electrons
E(X)               :     -169.583340652108 Eh       
E(C)               :       -7.441844942648 Eh       
E(XC)              :     -177.025185594755 Eh       
DFET-embed. en.    :        0.000000000000 Eh       
CPCM Solvation Model Properties:
Surface-charge          :           -0.04581928
Charge-correction       :           -0.00006936 Eh              -0.00189 eV
Free-energy (cav+disp)  :  This term is not implemented in the current solvation scheme

---------------
SCF CONVERGENCE
---------------

  Last Energy change         ...   -1.7857e-08  Tolerance :   1.0000e-07
  Last MAX-Density change    ...    2.8690e-06  Tolerance :   1.0000e-05
  Last RMS-Density change    ...    2.8748e-08  Tolerance :   1.0000e-06
  Last DIIS Error            ...    3.6397e-06  Tolerance :   1.0000e-07

             **** THE GBW FILE WAS UPDATED (inpS.gbw) ****
             **** DENSITY inpS.scfp WAS UPDATED ****
             **** ENERGY FILE WAS UPDATED (inpS.en.tmp) ****
             **** THE GBW FILE WAS UPDATED (inpS.gbw) ****
             **** DENSITY inpS.scfp WAS UPDATED ****
----------------
ORBITAL ENERGIES
----------------

  NO   OCC          E(Eh)            E(eV) 
   0   2.0000     -18.903698      -514.3958 
   1   2.0000     -10.057217      -273.6708 
   2   2.0000     -10.016436      -272.5611 
   3   2.0000     -10.014708      -272.5141 
   4   2.0000     -10.012210      -272.4461 
   5   2.0000     -10.012067      -272.4422 
   6   2.0000     -10.012022      -272.4410 
   7   2.0000     -10.010302      -272.3942 
   8   2.0000     -10.009862      -272.3822 
   9   2.0000     -10.009701      -272.3778 
  10   2.0000     -10.008908      -272.3562 
  11   2.0000     -10.007659      -272.3223 
  12   2.0000     -10.007439      -272.3163 
  13   2.0000     -10.006410      -272.2883 
  14   2.0000     -10.006281      -272.2847 
  15   2.0000     -10.005773      -272.2709 
  16   2.0000     -10.005122      -272.2532 
  17   2.0000     -10.000978      -272.1404 
  18   2.0000     -10.000833      -272.1365 
  19   2.0000      -9.999637      -272.1040 
  20   2.0000      -9.999505      -272.1004 
  21   2.0000      -9.998733      -272.0794 
  22   2.0000      -9.998162      -272.0638 
  23   2.0000      -9.997741      -272.0524 
  24   2.0000      -9.997272      -272.0396 
  25   2.0000      -9.996782      -272.0263 
  26   2.0000      -9.995775      -271.9989 
  27   2.0000      -9.995422      -271.9893 
  28   2.0000      -9.995391      -271.9884 
  29   2.0000      -0.954350       -25.9692 
  30   2.0000      -0.807873       -21.9833 
  31   2.0000      -0.789516       -21.4838 
  32   2.0000      -0.769912       -20.9504 
  33   2.0000      -0.757067       -20.6008 
  34   2.0000      -0.734889       -19.9974 
  35   2.0000      -0.728056       -19.8114 
  36   2.0000      -0.709079       -19.2950 
  37   2.0000      -0.708828       -19.2882 
  38   2.0000      -0.694273       -18.8921 
  39   2.0000      -0.676128       -18.3984 
  40   2.0000      -0.658757       -17.9257 
  41   2.0000      -0.654195       -17.8015 
  42   2.0000      -0.636143       -17.3103 
  43   2.0000      -0.629630       -17.1331 
  44   2.0000      -0.625363       -17.0170 
  45   2.0000      -0.619346       -16.8532 
  46   2.0000      -0.591601       -16.0983 
  47   2.0000      -0.588324       -16.0091 
  48   2.0000      -0.556566       -15.1449 
  49   2.0000      -0.547694       -14.9035 
  50   2.0000      -0.541031       -14.7222 
  51   2.0000      -0.534016       -14.5313 
  52   2.0000      -0.526068       -14.3150 
  53   2.0000      -0.509714       -13.8700 
  54   2.0000      -0.495348       -13.4791 
  55   2.0000      -0.482499       -13.1295 
  56   2.0000      -0.472699       -12.8628 
  57   2.0000      -0.463451       -12.6111 
  58   2.0000      -0.451275       -12.2798 
  59   2.0000      -0.444444       -12.0939 
  60   2.0000      -0.435161       -11.8413 
  61   2.0000      -0.430156       -11.7051 
  62   2.0000      -0.421225       -11.4621 
  63   2.0000      -0.416927       -11.3452 
  64   2.0000      -0.410132       -11.1603 
  65   2.0000      -0.407285       -11.0828 
  66   2.0000      -0.404488       -11.0067 
  67   2.0000      -0.397777       -10.8241 
  68   2.0000      -0.397603       -10.8193 
  69   2.0000      -0.395972       -10.7749 
  70   2.0000      -0.389042       -10.5864 
  71   2.0000      -0.381606       -10.3840 
  72   2.0000      -0.376532       -10.2460 
  73   2.0000      -0.371641       -10.1129 
  74   2.0000      -0.368483       -10.0269 
  75   2.0000      -0.362971        -9.8769 
  76   2.0000      -0.360020        -9.7966 
  77   2.0000      -0.356657        -9.7051 
  78   2.0000      -0.356241        -9.6938 
  79   2.0000      -0.350404        -9.5350 
  80   2.0000      -0.346884        -9.4392 
  81   2.0000      -0.344760        -9.3814 
  82   2.0000      -0.343396        -9.3443 
  83   2.0000      -0.338740        -9.2176 
  84   2.0000      -0.331573        -9.0226 
  85   2.0000      -0.325920        -8.8687 
  86   2.0000      -0.323204        -8.7948 
  87   2.0000      -0.322966        -8.7883 
  88   2.0000      -0.317719        -8.6456 
  89   2.0000      -0.311504        -8.4765 
  90   2.0000      -0.309203        -8.4138 
  91   2.0000      -0.307598        -8.3702 
  92   2.0000      -0.303047        -8.2463 
  93   2.0000      -0.296392        -8.0652 
  94   2.0000      -0.290522        -7.9055 
  95   2.0000      -0.286795        -7.8041 
  96   2.0000      -0.286080        -7.7846 
  97   2.0000      -0.282137        -7.6773 
  98   2.0000      -0.281140        -7.6502 
  99   2.0000      -0.280687        -7.6379 
 100   2.0000      -0.276155        -7.5146 
 101   2.0000      -0.274443        -7.4680 
 102   2.0000      -0.271793        -7.3959 
 103   2.0000      -0.269086        -7.3222 
 104   2.0000      -0.260090        -7.0774 
 105   2.0000      -0.248552        -6.7634 
 106   2.0000      -0.229999        -6.2586 
 107   2.0000      -0.228675        -6.2226 
 108   2.0000      -0.213339        -5.8052 
 109   2.0000      -0.183377        -4.9899 
 110   0.0000      -0.057032        -1.5519 
 111   0.0000      -0.014275        -0.3885 
 112   0.0000      -0.007295        -0.1985 
 113   0.0000       0.030559         0.8316 
 114   0.0000       0.038793         1.0556 
 115   0.0000       0.040009         1.0887 
 116   0.0000       0.044252         1.2041 
 117   0.0000       0.048217         1.3120 
 118   0.0000       0.052935         1.4404 
 119   0.0000       0.059993         1.6325 
 120   0.0000       0.060989         1.6596 
 121   0.0000       0.063351         1.7239 
 122   0.0000       0.068977         1.8769 
 123   0.0000       0.072725         1.9790 
 124   0.0000       0.078804         2.1444 
 125   0.0000       0.080563         2.1922 
 126   0.0000       0.083869         2.2822 
 127   0.0000       0.085299         2.3211 
 128   0.0000       0.089929         2.4471 
 129   0.0000       0.092575         2.5191 
 130   0.0000       0.096836         2.6350 
 131   0.0000       0.100000         2.7211 
 132   0.0000       0.101973         2.7748 
 133   0.0000       0.105774         2.8782 
 134   0.0000       0.106886         2.9085 
 135   0.0000       0.108629         2.9560 
 136   0.0000       0.116027         3.1572 
 137   0.0000       0.119616         3.2549 
 138   0.0000       0.121722         3.3122 
 139   0.0000       0.122391         3.3304 
 140   0.0000       0.125561         3.4167 
 141   0.0000       0.128137         3.4868 
 142   0.0000       0.129958         3.5363 
 143   0.0000       0.131879         3.5886 
 144   0.0000       0.137247         3.7347 
 145   0.0000       0.137937         3.7535 
 146   0.0000       0.143184         3.8962 
 147   0.0000       0.144641         3.9359 
 148   0.0000       0.145657         3.9635 
 149   0.0000       0.147340         4.0093 
 150   0.0000       0.153857         4.1867 
 151   0.0000       0.156665         4.2631 
 152   0.0000       0.161135         4.3847 
 153   0.0000       0.163518         4.4496 
 154   0.0000       0.165477         4.5029 
 155   0.0000       0.168824         4.5939 
 156   0.0000       0.175373         4.7721 
 157   0.0000       0.177496         4.8299 
 158   0.0000       0.181098         4.9279 
 159   0.0000       0.183799         5.0014 
 160   0.0000       0.186477         5.0743 
 161   0.0000       0.193160         5.2561 
 162   0.0000       0.193568         5.2673 
 163   0.0000       0.199018         5.4156 
 164   0.0000       0.201810         5.4915 
 165   0.0000       0.203981         5.5506 
 166   0.0000       0.205682         5.5969 
 167   0.0000       0.209097         5.6898 
 168   0.0000       0.212947         5.7946 
 169   0.0000       0.216878         5.9015 
 170   0.0000       0.221681         6.0322 
 171   0.0000       0.225034         6.1235 
 172   0.0000       0.227406         6.1880 
 173   0.0000       0.230519         6.2727 
 174   0.0000       0.239511         6.5174 
 175   0.0000       0.245135         6.6705 
 176   0.0000       0.246187         6.6991 
 177   0.0000       0.251736         6.8501 
 178   0.0000       0.260479         7.0880 
 179   0.0000       0.266438         7.2502 
 180   0.0000       0.275648         7.5008 
 181   0.0000       0.276337         7.5195 
 182   0.0000       0.284200         7.7335 
 183   0.0000       0.293043         7.9741 
 184   0.0000       0.295678         8.0458 
 185   0.0000       0.322194         8.7673 
 186   0.0000       0.333100         9.0641 
 187   0.0000       0.336837         9.1658 
 188   0.0000       0.338350         9.2070 
 189   0.0000       0.348229         9.4758 
 190   0.0000       0.354549         9.6478 
 191   0.0000       0.359710         9.7882 
 192   0.0000       0.369147        10.0450 
 193   0.0000       0.370920        10.0932 
 194   0.0000       0.375471        10.2171 
 195   0.0000       0.379142        10.3170 
 196   0.0000       0.382175        10.3995 
 197   0.0000       0.389725        10.6050 
 198   0.0000       0.391718        10.6592 
 199   0.0000       0.394703        10.7404 
 200   0.0000       0.402581        10.9548 
 201   0.0000       0.408101        11.1050 
 202   0.0000       0.409912        11.1543 
 203   0.0000       0.416736        11.3400 
 204   0.0000       0.418920        11.3994 
 205   0.0000       0.422440        11.4952 
 206   0.0000       0.428995        11.6735 
 207   0.0000       0.439464        11.9584 
 208   0.0000       0.444527        12.0962 
 209   0.0000       0.452249        12.3063 
 210   0.0000       0.459858        12.5134 
 211   0.0000       0.463828        12.6214 
 212   0.0000       0.468648        12.7525 
 213   0.0000       0.474175        12.9030 
 214   0.0000       0.475069        12.9273 
 215   0.0000       0.481817        13.1109 
 216   0.0000       0.484903        13.1949 
 217   0.0000       0.495632        13.4868 
 218   0.0000       0.499371        13.5886 
 219   0.0000       0.500122        13.6090 
 220   0.0000       0.502787        13.6815 
 221   0.0000       0.508979        13.8500 
 222   0.0000       0.511939        13.9306 
 223   0.0000       0.516600        14.0574 
 224   0.0000       0.525323        14.2948 
 225   0.0000       0.528826        14.3901 
 226   0.0000       0.529558        14.4100 
 227   0.0000       0.535939        14.5836 
 228   0.0000       0.541335        14.7305 
 229   0.0000       0.543778        14.7970 
 230   0.0000       0.546935        14.8829 
 231   0.0000       0.548896        14.9362 
 232   0.0000       0.554484        15.0883 
 233   0.0000       0.557051        15.1581 
 234   0.0000       0.563859        15.3434 
 235   0.0000       0.567747        15.4492 
 236   0.0000       0.571065        15.5395 
 237   0.0000       0.572455        15.5773 
 238   0.0000       0.575122        15.6499 
 239   0.0000       0.576757        15.6943 
 240   0.0000       0.581724        15.8295 
 241   0.0000       0.584167        15.8960 
 242   0.0000       0.588954        16.0263 
 243   0.0000       0.592096        16.1117 
 244   0.0000       0.593713        16.1557 
 245   0.0000       0.596071        16.2199 
 246   0.0000       0.598351        16.2820 
 247   0.0000       0.599244        16.3063 
 248   0.0000       0.602170        16.3859 
 249   0.0000       0.603516        16.4225 
 250   0.0000       0.605279        16.4705 
 251   0.0000       0.607513        16.5313 
 252   0.0000       0.608050        16.5459 
 253   0.0000       0.611599        16.6425 
 254   0.0000       0.615581        16.7508 
 255   0.0000       0.617203        16.7950 
 256   0.0000       0.620662        16.8891 
 257   0.0000       0.624688        16.9986 
 258   0.0000       0.626533        17.0488 
 259   0.0000       0.630501        17.1568 
 260   0.0000       0.632478        17.2106 
 261   0.0000       0.637697        17.3526 
 262   0.0000       0.639769        17.4090 
 263   0.0000       0.640942        17.4409 
 264   0.0000       0.644642        17.5416 
 265   0.0000       0.647272        17.6132 
 266   0.0000       0.649897        17.6846 
 267   0.0000       0.651651        17.7323 
 268   0.0000       0.653639        17.7864 
 269   0.0000       0.655915        17.8483 
 270   0.0000       0.662662        18.0320 
 271   0.0000       0.664120        18.0716 
 272   0.0000       0.666587        18.1388 
 273   0.0000       0.672006        18.2862 
 274   0.0000       0.675939        18.3932 
 275   0.0000       0.679168        18.4811 
 276   0.0000       0.682463        18.5708 
 277   0.0000       0.686303        18.6752 
 278   0.0000       0.688345        18.7308 
 279   0.0000       0.689515        18.7627 
 280   0.0000       0.696407        18.9502 
 281   0.0000       0.699211        19.0265 
 282   0.0000       0.702156        19.1066 
 283   0.0000       0.709907        19.3175 
 284   0.0000       0.711890        19.3715 
 285   0.0000       0.718281        19.5454 
 286   0.0000       0.721283        19.6271 
 287   0.0000       0.725083        19.7305 
 288   0.0000       0.730524        19.8786 
 289   0.0000       0.731328        19.9004 
 290   0.0000       0.734036        19.9741 
 291   0.0000       0.742207        20.1965 
 292   0.0000       0.747192        20.3321 
 293   0.0000       0.751293        20.4437 
 294   0.0000       0.752467        20.4757 
 295   0.0000       0.756456        20.5842 
 296   0.0000       0.765667        20.8349 
 297   0.0000       0.771632        20.9972 
 298   0.0000       0.779659        21.2156 
 299   0.0000       0.784150        21.3378 
 300   0.0000       0.798972        21.7411 
 301   0.0000       0.803675        21.8691 
 302   0.0000       0.807060        21.9612 
 303   0.0000       0.813612        22.1395 
 304   0.0000       0.821774        22.3616 
 305   0.0000       0.845779        23.0148 
 306   0.0000       0.866144        23.5690 
 307   0.0000       0.869926        23.6719 
 308   0.0000       0.887166        24.1410 
 309   0.0000       0.894151        24.3311 
 310   0.0000       0.926354        25.2074 
 311   0.0000       0.934553        25.4305 
 312   0.0000       0.944789        25.7090 
 313   0.0000       0.953425        25.9440 
 314   0.0000       0.972174        26.4542 
 315   0.0000       0.986933        26.8558 
 316   0.0000       1.003020        27.2936 
 317   0.0000       1.023749        27.8576 
 318   0.0000       1.026457        27.9313 
 319   0.0000       1.041425        28.3386 
 320   0.0000       1.050353        28.5816 
 321   0.0000       1.063879        28.9496 
 322   0.0000       1.076944        29.3051 
 323   0.0000       1.091714        29.7071 
 324   0.0000       1.098957        29.9041 
 325   0.0000       1.112075        30.2611 
 326   0.0000       1.122873        30.5549 
 327   0.0000       1.142583        31.0913 
 328   0.0000       1.159688        31.5567 
 329   0.0000       1.173189        31.9241 
 330   0.0000       1.180675        32.1278 
 331   0.0000       1.191031        32.4096 
 332   0.0000       1.218265        33.1507 
 333   0.0000       1.251729        34.0613 
 334   0.0000       1.253644        34.1134 
 335   0.0000       1.262378        34.3511 
 336   0.0000       1.272631        34.6300 
 337   0.0000       1.281011        34.8581 
 338   0.0000       1.295475        35.2517 
 339   0.0000       1.309481        35.6328 
 340   0.0000       1.330513        36.2051 
 341   0.0000       1.335010        36.3275 
 342   0.0000       1.344641        36.5895 
 343   0.0000       1.351405        36.7736 
 344   0.0000       1.369803        37.2742 
 345   0.0000       1.374603        37.4049 
 346   0.0000       1.387441        37.7542 
 347   0.0000       1.395946        37.9856 
 348   0.0000       1.412194        38.4278 
 349   0.0000       1.414849        38.5000 
 350   0.0000       1.421846        38.6904 
 351   0.0000       1.434429        39.0328 
 352   0.0000       1.440913        39.2092 
 353   0.0000       1.445777        39.3416 
 354   0.0000       1.451768        39.5046 
 355   0.0000       1.460624        39.7456 
 356   0.0000       1.479565        40.2610 
 357   0.0000       1.485419        40.4203 
 358   0.0000       1.493758        40.6472 
 359   0.0000       1.506662        40.9984 
 360   0.0000       1.510517        41.1033 
 361   0.0000       1.522016        41.4162 
 362   0.0000       1.528531        41.5935 
 363   0.0000       1.535067        41.7713 
 364   0.0000       1.552846        42.2551 
 365   0.0000       1.562220        42.5102 
 366   0.0000       1.564297        42.5667 
 367   0.0000       1.581208        43.0269 
 368   0.0000       1.588641        43.2291 
 369   0.0000       1.596793        43.4510 
 370   0.0000       1.603850        43.6430 
 371   0.0000       1.615960        43.9725 
 372   0.0000       1.618654        44.0458 
 373   0.0000       1.628800        44.3219 
 374   0.0000       1.642757        44.7017 
 375   0.0000       1.653084        44.9827 
 376   0.0000       1.661990        45.2251 
 377   0.0000       1.664708        45.2990 
 378   0.0000       1.681046        45.7436 
 379   0.0000       1.683837        45.8195 
 380   0.0000       1.688258        45.9398 
 381   0.0000       1.693891        46.0931 
 382   0.0000       1.696430        46.1622 
 383   0.0000       1.705913        46.4203 
 384   0.0000       1.709477        46.5172 
 385   0.0000       1.713753        46.6336 
 386   0.0000       1.720572        46.8192 
 387   0.0000       1.731336        47.1120 
 388   0.0000       1.737205        47.2717 
 389   0.0000       1.740625        47.3648 
 390   0.0000       1.747542        47.5530 
 391   0.0000       1.750892        47.6442 
 392   0.0000       1.752471        47.6872 
 393   0.0000       1.762552        47.9615 
 394   0.0000       1.766064        48.0570 
 395   0.0000       1.770502        48.1778 
 396   0.0000       1.772049        48.2199 
 397   0.0000       1.783873        48.5416 
 398   0.0000       1.787010        48.6270 
 399   0.0000       1.789739        48.7013 
 400   0.0000       1.796506        48.8854 
 401   0.0000       1.809725        49.2451 
 402   0.0000       1.813425        49.3458 
 403   0.0000       1.819440        49.5095 
 404   0.0000       1.823600        49.6227 
 405   0.0000       1.825328        49.6697 
 406   0.0000       1.838023        50.0151 
 407   0.0000       1.841795        50.1178 
 408   0.0000       1.844710        50.1971 
 409   0.0000       1.855026        50.4778 
 410   0.0000       1.857661        50.5495 
 411   0.0000       1.868136        50.8346 
 412   0.0000       1.875656        51.0392 
 413   0.0000       1.878178        51.1078 
 414   0.0000       1.885621        51.3104 
 415   0.0000       1.891070        51.4586 
 416   0.0000       1.896137        51.5965 
 417   0.0000       1.900624        51.7186 
 418   0.0000       1.909002        51.9466 
 419   0.0000       1.922655        52.3181 
 420   0.0000       1.929371        52.5008 
 421   0.0000       1.936544        52.6961 
 422   0.0000       1.948665        53.0259 
 423   0.0000       1.952393        53.1273 
 424   0.0000       1.953564        53.1592 
 425   0.0000       1.960447        53.3465 
 426   0.0000       1.964951        53.4690 
 427   0.0000       1.970649        53.6241 
 428   0.0000       1.973768        53.7090 
 429   0.0000       1.974583        53.7311 
 430   0.0000       1.983985        53.9870 
 431   0.0000       1.988036        54.0972 
 432   0.0000       1.989709        54.1427 
 433   0.0000       1.993419        54.2437 
 434   0.0000       1.996387        54.3244 
 435   0.0000       2.001148        54.4540 
 436   0.0000       2.004125        54.5350 
 437   0.0000       2.011348        54.7316 
 438   0.0000       2.013287        54.7843 
 439   0.0000       2.015833        54.8536 
 440   0.0000       2.023480        55.0617 
 441   0.0000       2.031105        55.2692 
 442   0.0000       2.035328        55.3841 
 443   0.0000       2.040308        55.5196 
[...]

 --------------
 Nucleus  47H :
 --------------

Diamagnetic contribution to the shielding tensor (ppm) : 
            33.305         -3.585        -5.222
            -5.897         35.494         8.973
            -6.693          8.981        48.040

Paramagnetic contribution to the shielding tensor (ppm): 
            -1.844          2.149         2.906
             4.349         -7.951        -6.444
             3.573         -5.799       -13.093

Total shielding tensor (ppm): 
            31.462         -1.435        -2.316
            -1.548         27.543         2.528
            -3.120          3.181        34.946


 Diagonalized sT*s matrix:
 
 sDSO            30.880           31.678           54.281  iso=      38.946
 sPSO            -4.382           -1.701          -16.805  iso=      -7.629
        ---------------  ---------------  ---------------
 Total           26.498           29.977           37.476  iso=      31.317

 --------------
 Nucleus  48H :
 --------------

Diamagnetic contribution to the shielding tensor (ppm) : 
            37.507         -1.082        -2.239
            -9.007         38.396         1.230
            -3.570          0.868        46.206

Paramagnetic contribution to the shielding tensor (ppm): 
            -5.431          2.716         2.245
            10.872         -9.852        -2.591
             2.754         -2.869       -16.823

Total shielding tensor (ppm): 
            32.077          1.633         0.007
             1.865         28.543        -1.361
            -0.816         -2.001        29.383


 Diagonalized sT*s matrix:
 
 sDSO            44.131           42.223           35.755  iso=      40.703
 sPSO           -17.178          -12.276           -2.652  iso=     -10.702
        ---------------  ---------------  ---------------
 Total           26.953           29.947           33.103  iso=      30.001

 --------------
 Nucleus  52H :
 --------------

Diamagnetic contribution to the shielding tensor (ppm) : 
            39.357         -1.077         2.767
             0.322         34.886        -5.267
             6.723         -6.400        45.039

Paramagnetic contribution to the shielding tensor (ppm): 
            -9.178          4.398        -2.969
             2.333         -8.373         5.577
            -6.087          7.429       -22.291

Total shielding tensor (ppm): 
            30.179          3.322        -0.201
             2.655         26.513         0.310
             0.636          1.030        22.748


 Diagonalized sT*s matrix:
 
 sDSO            47.499           33.727           38.056  iso=      39.761
 sPSO           -24.882           -8.784           -6.176  iso=     -13.281
        ---------------  ---------------  ---------------
 Total           22.617           24.942           31.880  iso=      26.480

 --------------
 Nucleus  53H :
 --------------

Diamagnetic contribution to the shielding tensor (ppm) : 
            38.092         -0.993         2.813
            -4.514         38.234        -6.173
             0.120         -5.465        52.508

Paramagnetic contribution to the shielding tensor (ppm): 
            -7.946          5.435        -4.385
             8.310        -12.276         6.228
            -1.231          6.283       -30.132

Total shielding tensor (ppm): 
            30.146          4.442        -1.573
             3.796         25.958         0.055
            -1.111          0.818        22.376


 Diagonalized sT*s matrix:
 
 sDSO            54.163           38.491           36.180  iso=      42.945
 sPSO           -32.510          -14.417           -3.426  iso=     -16.785
        ---------------  ---------------  ---------------
 Total           21.653           24.074           32.754  iso=      26.160

 --------------
 Nucleus  57H :
 --------------

Diamagnetic contribution to the shielding tensor (ppm) : 
            35.257         -1.022         0.919
             2.323         33.270        -9.295
            16.842         -6.595        49.473

Paramagnetic contribution to the shielding tensor (ppm): 
            -5.104          2.646        -1.338
            -0.250         -4.548         7.196
           -17.264          3.218       -18.476

Total shielding tensor (ppm): 
            30.154          1.624        -0.419
             2.072         28.723        -2.100
            -0.422         -3.376        30.997


 Diagonalized sT*s matrix:
 
 sDSO            27.751           46.993           43.257  iso=      39.334
 sPSO            -1.347          -16.972           -9.809  iso=      -9.376
        ---------------  ---------------  ---------------
 Total           26.404           30.022           33.448  iso=      29.958

 --------------
 Nucleus  58H :
 --------------

Diamagnetic contribution to the shielding tensor (ppm) : 
            36.911         -0.704        -2.146
           -16.893         29.204        -1.013
            -1.702         -4.490        29.646

Paramagnetic contribution to the shielding tensor (ppm): 
            -6.435          0.214         1.767
            16.629          5.151         1.543
             1.191          5.463        -3.384

Total shielding tensor (ppm): 
            30.476         -0.491        -0.379
            -0.264         34.355         0.530
            -0.512          0.972        26.261


 Diagonalized sT*s matrix:
 
 sDSO            29.939           35.209           30.613  iso=      31.920
 sPSO            -3.786           -4.738            3.855  iso=      -1.556
        ---------------  ---------------  ---------------
 Total           26.153           30.471           34.468  iso=      30.364

 --------------
 Nucleus  61H :
 --------------

Diamagnetic contribution to the shielding tensor (ppm) : 
            26.036         -3.728         3.308
             8.979         37.602       -11.957
            11.660         -8.666        46.026

Paramagnetic contribution to the shielding tensor (ppm): 
             3.206          1.701        -2.956
           -10.710         -5.055         8.235
           -11.343          6.011       -14.821

Total shielding tensor (ppm): 
            29.241         -2.027         0.352
            -1.731         32.548        -3.722
             0.317         -2.656        31.206


 Diagonalized sT*s matrix:
 
 sDSO            35.495           23.893           50.277  iso=      36.555
 sPSO            -7.687            5.711          -14.694  iso=      -5.556
        ---------------  ---------------  ---------------
 Total           27.807           29.604           35.583  iso=      30.998

 --------------
 Nucleus  62H :
 --------------

Diamagnetic contribution to the shielding tensor (ppm) : 
            28.050          6.228         3.639
            22.736         30.913        -0.015
            19.718          3.459        40.506

Paramagnetic contribution to the shielding tensor (ppm): 
             3.554         -4.256        -1.766
           -19.518          1.761         4.702
           -17.595          1.069       -12.695

Total shielding tensor (ppm): 
            31.604          1.972         1.873
             3.218         32.674         4.687
             2.123          4.528        27.811


 Diagonalized sT*s matrix:
 
 sDSO            36.184           13.816           49.468  iso=      33.156
 sPSO           -11.176           15.955          -12.158  iso=      -2.460
        ---------------  ---------------  ---------------
 Total           25.009           29.770           37.310  iso=      30.697

 --------------
 Nucleus  63H :
 --------------

Diamagnetic contribution to the shielding tensor (ppm) : 
            31.932         -7.014        -6.903
            14.082         43.304         1.560
             6.816          8.657        38.817

Paramagnetic contribution to the shielding tensor (ppm): 
             1.536          5.993         2.502
           -15.320        -12.848         0.961
           -10.813         -6.060        -9.471

Total shielding tensor (ppm): 
            33.468         -1.022        -4.401
            -1.238         30.455         2.521
            -3.997          2.597        29.346


 Diagonalized sT*s matrix:
 
 sDSO            33.935           44.713           35.404  iso=      38.017
 sPSO            -7.851          -14.468            1.537  iso=      -6.928
        ---------------  ---------------  ---------------
 Total           26.084           30.245           36.941  iso=      31.090

 --------------
 Nucleus  64H :
 --------------

Diamagnetic contribution to the shielding tensor (ppm) : 
            31.549          3.179         2.976
            -4.465         14.635        -7.856
            25.378         -5.155        29.434

Paramagnetic contribution to the shielding tensor (ppm): 
            -1.050         -3.631         1.187
             4.217         12.667         5.310
           -22.501          1.690         5.362

Total shielding tensor (ppm): 
            30.499         -0.451         4.163
            -0.247         27.302        -2.546
             2.878         -3.465        34.796


 Diagonalized sT*s matrix:
 
 sDSO            10.893           22.256           42.470  iso=      25.206
 sPSO            15.138            6.767           -4.926  iso=       5.660
        ---------------  ---------------  ---------------
 Total           26.030           29.023           37.543  iso=      30.866

 --------------
 Nucleus  65H :
 --------------

Diamagnetic contribution to the shielding tensor (ppm) : 
            29.419          7.205         0.515
            13.181         26.124         2.398
            15.109          0.917        16.899

Paramagnetic contribution to the shielding tensor (ppm): 
             2.066         -4.471         1.123
           -11.213          7.165        -0.315
           -13.668          1.508        10.722

Total shielding tensor (ppm): 
            31.485          2.734         1.638
             1.968         33.289         2.083
             1.441          2.425        27.622


 Diagonalized sT*s matrix:
 
 sDSO            15.411           18.927           38.105  iso=      24.147
 sPSO            11.302           10.942           -2.290  iso=       6.651
        ---------------  ---------------  ---------------
 Total           26.712           29.869           35.815  iso=      30.799

 --------------
 Nucleus  66H :
 --------------

Diamagnetic contribution to the shielding tensor (ppm) : 
            42.821          2.243        -3.395
            -5.263         10.479        -1.998
             0.029          0.537         2.215

Paramagnetic contribution to the shielding tensor (ppm): 
            -5.024         -3.942         2.393
             4.125         15.999         2.184
            -0.488          0.114        25.729

Total shielding tensor (ppm): 
            37.797         -1.698        -1.002
            -1.138         26.477         0.186
            -0.459          0.651        27.943


 Diagonalized sT*s matrix:
 
 sDSO            10.580            2.276           42.659  iso=      18.505
 sPSO            15.659           25.672           -4.628  iso=      12.234
        ---------------  ---------------  ---------------
 Total           26.238           27.948           38.031  iso=      30.739

 --------------
 Nucleus  67H :
 --------------

Diamagnetic contribution to the shielding tensor (ppm) : 
            33.611          3.077         5.602
             0.860         18.575        -5.609
           -13.695         -9.961        45.331

Paramagnetic contribution to the shielding tensor (ppm): 
            -1.689         -0.264        -3.589
             1.180          7.100         5.916
            17.096         10.551       -10.919

Total shielding tensor (ppm): 
            31.922          2.813         2.012
             2.040         25.674         0.307
             3.401          0.590        34.412


 Diagonalized sT*s matrix:
 
 sDSO            18.537           43.763           35.218  iso=      32.506
 sPSO             6.282          -12.997            1.206  iso=      -1.836
        ---------------  ---------------  ---------------
 Total           24.819           30.765           36.424  iso=      30.669

 --------------
 Nucleus  68H :
 --------------

Diamagnetic contribution to the shielding tensor (ppm) : 
            33.879          0.689        -9.935
            -0.392         16.204        -0.833
           -27.709         -4.953        21.775

Paramagnetic contribution to the shielding tensor (ppm): 
            -0.692         -1.800         5.218
            -0.557         10.628         1.399
            22.507          5.375        11.332

Total shielding tensor (ppm): 
            33.187         -1.111        -4.717
            -0.949         26.832         0.566
            -5.202          0.422        33.108


 Diagonalized sT*s matrix:
 
 sDSO            15.780            9.974           46.104  iso=      23.953
 sPSO            10.860           18.303           -7.895  iso=       7.089
        ---------------  ---------------  ---------------
 Total           26.640           28.278           38.209  iso=      31.042

 --------------
 Nucleus  69H :
 --------------

Diamagnetic contribution to the shielding tensor (ppm) : 
            26.029          4.763        -1.037
             5.422         28.388        -9.631
           -13.135         -9.708        30.257

Paramagnetic contribution to the shielding tensor (ppm): 
             2.550         -4.151        -0.598
            -5.171          6.523         7.625
            11.542          6.885        -0.354

Total shielding tensor (ppm): 
            28.579          0.613        -1.636
             0.251         34.910        -2.006
            -1.593         -2.823        29.903


 Diagonalized sT*s matrix:
 
 sDSO            20.287           26.896           37.490  iso=      28.224
 sPSO             7.052            3.133           -1.465  iso=       2.906
        ---------------  ---------------  ---------------
 Total           27.339           30.028           36.025  iso=      31.131

 --------------
 Nucleus  70H :
 --------------

Diamagnetic contribution to the shielding tensor (ppm) : 
            31.518          0.627         4.089
            -9.416         38.311        11.641
            -2.570          9.048        38.229

Paramagnetic contribution to the shielding tensor (ppm): 
             0.689         -0.005        -3.855
            11.248         -7.444        -6.513
             3.173         -4.584       -10.633

Total shielding tensor (ppm): 
            32.207          0.622         0.234
             1.832         30.867         5.128
             0.604          4.464        27.596


 Diagonalized sT*s matrix:
 
 sDSO            28.675           36.901           42.483  iso=      36.020
 sPSO            -4.527           -5.256           -7.605  iso=      -5.796
        ---------------  ---------------  ---------------
 Total           24.147           31.645           34.878  iso=      30.223

 --------------
 Nucleus  71H :
 --------------

Diamagnetic contribution to the shielding tensor (ppm) : 
            28.851         -7.586         0.582
           -14.670         38.357        -0.552
            -2.396         -6.291        36.555

Paramagnetic contribution to the shielding tensor (ppm): 
             1.897          5.188         0.159
            12.731         -5.212        -3.205
             2.703          3.681        -7.583

Total shielding tensor (ppm): 
            30.748         -2.398         0.741
            -1.938         33.145        -3.757
             0.307         -2.610        28.972


 Diagonalized sT*s matrix:
 
 sDSO            31.372           26.627           45.763  iso=      34.587
 sPSO            -4.228            3.301           -9.970  iso=      -3.633
        ---------------  ---------------  ---------------
 Total           27.145           29.927           35.793  iso=      30.955

 --------------
 Nucleus  72H :
 --------------

Diamagnetic contribution to the shielding tensor (ppm) : 
            36.961         -8.077        -8.043
           -17.336         24.526         4.709
           -14.424          3.283        33.075

Paramagnetic contribution to the shielding tensor (ppm): 
            -2.278          6.715         3.379
            15.610          5.335        -2.365
             9.992         -1.037        -4.775

Total shielding tensor (ppm): 
            34.683         -1.362        -4.664
            -1.726         29.862         2.343
            -4.431          2.246        28.300


 Diagonalized sT*s matrix:
 
 sDSO            26.233           17.175           51.155  iso=      31.521
 sPSO            -0.750           12.383          -13.351  iso=      -0.573
        ---------------  ---------------  ---------------
 Total           25.483           29.558           37.804  iso=      30.948



--------------------------------
CHEMICAL SHIELDING SUMMARY (ppm)
--------------------------------


  Nucleus  Element    Isotropic     Anisotropy
  -------  -------  ------------   ------------
      3       H           29.369          6.479 
      4       H           29.051          7.400 
      8       H           29.572          7.933 
      9       H           29.340          5.421 
     10       H           30.107          8.317 
     11       H           29.860         10.221 
     13       H           27.734          7.776 
     16       H           26.794          4.784 
     17       H           26.511          4.875 
     19       H           25.408         10.367 
     21       H           25.600         14.667 
     24       H           28.912         10.069 
     25       H           30.042          9.624 
     27       H           30.242          7.008 
     28       H           30.116         11.824 
     30       H           29.765          8.138 
     31       H           30.425          7.082 
     33       H           29.764          4.424 
     35       H           30.164         14.751 
     37       H           30.395         10.650 
     38       H           30.256          9.705 
     40       H           30.086          9.443 
     41       H           30.558          9.229 
     42       H           30.560          5.063 
     45       H           31.263          7.254 
     46       H           31.026          7.979 
     47       H           31.317          9.239 
     48       H           30.001          4.653 
     52       H           26.480          8.100 
     53       H           26.160          9.890 
     57       H           29.958          5.235 
     58       H           30.364          6.156 
     61       H           30.998          6.877 
     62       H           30.697          9.921 
     63       H           31.090          8.777 
     64       H           30.866         10.017 
     65       H           30.799          7.524 
     66       H           30.739         10.938 
     67       H           30.669          8.632 
     68       H           31.042         10.750 
     69       H           31.131          7.341 
     70       H           30.223          6.981 
     71       H           30.955          7.257 
     72       H           30.948         10.283 



Maximum memory used throughout the entire EPRNMR-calculation: 140.1 MB

Timings for individual modules:

Sum of individual times         ...      144.485 sec (=   2.408 min)
GTO integral calculation        ...        0.752 sec (=   0.013 min)   0.5 %
SCF iterations                  ...       98.426 sec (=   1.640 min)  68.1 %
EPR/NMR calculation             ...       45.307 sec (=   0.755 min)  31.4 %
                             ****ORCA TERMINATED NORMALLY****
TOTAL RUN TIME: 0 days 0 hours 2 minutes 24 seconds 995 msec
