
                                 *****************
                                 * O   R   C   A *
                                 *****************

                                            #,                                       
                                            ###                                      
                                            ####                                     
                                            #####                                    
                                            ######                                   
                                           ########,                                 
                                     ,,################,,,,,                         
                               ,,#################################,,                 
                          ,,##########################################,,             
                       ,#########################################, ''#####,          
                    ,#############################################,,   '####,        
                  ,##################################################,,,,####,       
                ,###########''''           ''''###############################       
              ,#####''   ,,,,##########,,,,          '''####'''          '####       
            ,##' ,,,,###########################,,,                        '##       
           ' ,,###''''                  '''############,,,                           
         ,,##''                                '''############,,,,        ,,,,,,###''
      ,#''                                            '''#######################'''  
     '                                                          ''''####''''         
             ,#######,   #######,   ,#######,      ##                                
            ,#'     '#,  ##    ##  ,#'     '#,    #''#        ######   ,####,        
            ##       ##  ##   ,#'  ##            #'  '#       #        #'  '#        
            ##       ##  #######   ##           ,######,      #####,   #    #        
            '#,     ,#'  ##    ##  '#,     ,#' ,#      #,         ##   #,  ,#        
             '#######'   ##     ##  '#######'  #'      '#     #####' # '####'        



                  #######################################################
                  #                        -***-                        #
                  #          Department of theory and spectroscopy      #
                  #    Directorship and core code : Frank Neese         #
                  #        Max Planck Institute fuer Kohlenforschung    #
                  #                Kaiser Wilhelm Platz 1               #
                  #                 D-45470 Muelheim/Ruhr               #
                  #                      Germany                        #
                  #                                                     #
                  #                  All rights reserved                #
                  #                        -***-                        #
                  #######################################################


                         Program Version 5.0.2 -  RELEASE  -


 With contributions from (in alphabetic order):
   Daniel Aravena         : Magnetic Suceptibility
   Michael Atanasov       : Ab Initio Ligand Field Theory (pilot matlab implementation)
   Alexander A. Auer      : GIAO ZORA, VPT2 properties, NMR spectrum
   Ute Becker             : Parallelization
   Giovanni Bistoni       : ED, misc. LED, open-shell LED, HFLD
   Martin Brehm           : Molecular dynamics
   Dmytro Bykov           : SCF Hessian
   Vijay G. Chilkuri      : MRCI spin determinant printing, contributions to CSF-ICE
   Dipayan Datta          : RHF DLPNO-CCSD density
   Achintya Kumar Dutta   : EOM-CC, STEOM-CC
   Dmitry Ganyushin       : Spin-Orbit,Spin-Spin,Magnetic field MRCI
   Miquel Garcia          : C-PCM and meta-GGA Hessian, CC/C-PCM, Gaussian charge scheme
   Yang Guo               : DLPNO-NEVPT2, F12-NEVPT2, CIM, IAO-localization
   Andreas Hansen         : Spin unrestricted coupled pair/coupled cluster methods
   Benjamin Helmich-Paris : MC-RPA, TRAH-SCF, COSX integrals
   Lee Huntington         : MR-EOM, pCC
   Robert Izsak           : Overlap fitted RIJCOSX, COSX-SCS-MP3, EOM
   Marcus Kettner         : VPT2
   Christian Kollmar      : KDIIS, OOCD, Brueckner-CCSD(T), CCSD density, CASPT2, CASPT2-K
   Simone Kossmann        : Meta GGA functionals, TD-DFT gradient, OOMP2, MP2 Hessian
   Martin Krupicka        : Initial AUTO-CI
   Lucas Lang             : DCDCAS
   Marvin Lechner         : AUTO-CI (C++ implementation), FIC-MRCC
   Dagmar Lenk            : GEPOL surface, SMD
   Dimitrios Liakos       : Extrapolation schemes; Compound Job, initial MDCI parallelization
   Dimitrios Manganas     : Further ROCIS development; embedding schemes
   Dimitrios Pantazis     : SARC Basis sets
   Anastasios Papadopoulos: AUTO-CI, single reference methods and gradients
   Taras Petrenko         : DFT Hessian,TD-DFT gradient, ASA, ECA, R-Raman, ABS, FL, XAS/XES, NRVS
   Peter Pinski           : DLPNO-MP2, DLPNO-MP2 Gradient
   Christoph Reimann      : Effective Core Potentials
   Marius Retegan         : Local ZFS, SOC
   Christoph Riplinger    : Optimizer, TS searches, QM/MM, DLPNO-CCSD(T), (RO)-DLPNO pert. Triples
   Tobias Risthaus        : Range-separated hybrids, TD-DFT gradient, RPA, STAB
   Michael Roemelt        : Original ROCIS implementation
   Masaaki Saitow         : Open-shell DLPNO-CCSD energy and density
   Barbara Sandhoefer     : DKH picture change effects
   Avijit Sen             : IP-ROCIS
   Kantharuban Sivalingam : CASSCF convergence, NEVPT2, FIC-MRCI
   Bernardo de Souza      : ESD, SOC TD-DFT
   Georgi Stoychev        : AutoAux, RI-MP2 NMR, DLPNO-MP2 response
   Willem Van den Heuvel  : Paramagnetic NMR
   Boris Wezisla          : Elementary symmetry handling
   Frank Wennmohs         : Technical directorship


 We gratefully acknowledge several colleagues who have allowed us to
 interface, adapt or use parts of their codes:
   Stefan Grimme, W. Hujo, H. Kruse, P. Pracht,  : VdW corrections, initial TS optimization,
                  C. Bannwarth, S. Ehlert          DFT functionals, gCP, sTDA/sTD-DF
   Ed Valeev, F. Pavosevic, A. Kumar             : LibInt (2-el integral package), F12 methods
   Garnet Chan, S. Sharma, J. Yang, R. Olivares  : DMRG
   Ulf Ekstrom                                   : XCFun DFT Library
   Mihaly Kallay                                 : mrcc  (arbitrary order and MRCC methods)
   Jiri Pittner, Ondrej Demel                    : Mk-CCSD
   Frank Weinhold                                : gennbo (NPA and NBO analysis)
   Christopher J. Cramer and Donald G. Truhlar   : smd solvation model
   Lars Goerigk                                  : TD-DFT with DH, B97 family of functionals
   V. Asgeirsson, H. Jonsson                     : NEB implementation
   FAccTs GmbH                                   : IRC, NEB, NEB-TS, DLPNO-Multilevel, CI-OPT
                                                   MM, QMMM, 2- and 3-layer-ONIOM, Crystal-QMMM,
                                                   LR-CPCM, SF, NACMEs, symmetry and pop. for TD-DFT,
                                                   nearIR, NL-DFT gradient (VV10), updates on ESD,
                                                   ML-optimized integration grids
   S Lehtola, MJT Oliveira, MAL Marques          : LibXC Library
   Liviu Ungur et al                             : ANISO software


 Your calculation uses the libint2 library for the computation of 2-el integrals
 For citations please refer to: http://libint.valeyev.net

 Your ORCA version has been built with support for libXC version: 5.1.0
 For citations please refer to: https://tddft.org/programs/libxc/

 This ORCA versions uses:
   CBLAS   interface :  Fast vector & matrix operations
   LAPACKE interface :  Fast linear algebra routines
   SCALAPACK package :  Parallel linear algebra routines
   Shared memory     :  Shared parallel matrices
   BLAS/LAPACK       :  OpenBLAS 0.3.15  USE64BITINT DYNAMIC_ARCH NO_AFFINITY Zen SINGLE_THREADED
        Core in use  :  Zen
   Copyright (c) 2011-2014, The OpenBLAS Project


Your calculation utilizes the atom-pairwise dispersion correction
based on tight binding partial charges (D4)
Cite in your paper:
E.Caldeweyher, C.Bannwarth, S.Grimme, J.Chem.Phys., (2017), 147, 034112.
E.Caldeweyher, S.Ehlert, A.Hansen, H.Neugebauer, S.Grimme, J.Chem.Phys., (2018), in progress.
   

================================================================================

----- Orbital basis set information -----
Your calculation utilizes the basis: pcJ-0
   F. Jensen, Theor. Chem. Acc. 126, 371 (2010).

----- AuxJ basis set information -----
Your calculation utilizes the auxiliary basis: def2/J
   F. Weigend, Phys. Chem. Chem. Phys. 8, 1057 (2006).

================================================================================
                                        WARNINGS
                       Please study these warnings very carefully!
================================================================================


INFO   : the flag for use of the SHARK integral package has been found!

================================================================================
                                       INPUT FILE
================================================================================
NAME = inpJ
|  1> ! pbe0
|  2> ! D4
|  3> ! pcJ-0
|  4> ! def2/J RIJCOSX
|  5> ! DEFGRID2
|  6> ! scfconv7
|  7> ! smallprint printgap noloewdin
|  8> ! NOSOSCF
|  9> %MaxCore 4000
| 10> %output
| 11>        print[P_BondOrder_M] 1
| 12>        print[P_Mayer] 1
| 13>        print[P_basis] 2
| 14> end
| 15> %pal
| 16>     nprocs 4
| 17> end
| 18> ! CPCM(chloroform)
| 19> *xyz 0 1
| 20> C   -4.9852841900   0.2733624900  -0.4785120200
| 21> C   -6.4441276500  -0.0840744500  -0.6404787500
| 22> C   -7.3255570700   0.8727766700   0.1724042200
| 23> H   -6.6259275500  -1.1185482800  -0.3278037600
| 24> H   -6.7352746700   0.0071409800  -1.6974904700
| 25> C   -4.6744229400   1.6866101600  -0.7878744000
| 26> C   -5.5774355200   2.6900688500  -0.1049359800
| 27> C   -7.0603565500   2.3193869200  -0.2479885000
| 28> H   -5.3920123500   3.6952538100  -0.4983353400
| 29> H   -5.3214618800   2.7123158900   0.9653529300
| 30> H   -7.3692813400   2.4365057500  -1.2956993600
| 31> H   -7.6770794200   2.9952074800   0.3557420800
| 32> O   -7.1162771800   0.6823465100   1.5815373300
| 33> H   -8.3819284000   0.6303281700   0.0032557900
| 34> C   -4.0877334800  -0.6333007800  -0.0240606000
| 35> C   -3.7035769600   2.0536859400  -1.6316027700
| 36> H   -3.0765379800   1.3170015300  -2.1268219000
| 37> H   -3.5217551500   3.1027892500  -1.8530205500
| 38> C   -2.6951646900  -0.3819043500   0.2693191000
| 39> H   -4.4692271600  -1.6359394900   0.1651779600
| 40> C   -1.7688217200  -1.3036730300   0.6080397000
| 41> H   -2.3812009600   0.6582179500   0.2163497100
| 42> C   -1.9998987100  -2.7905924500   0.6959797700
| 43> C   -1.0156531100  -3.5654901600  -0.2016470500
| 44> H   -3.0264113800  -3.0682631000   0.4422794200
| 45> H   -1.8284060500  -3.0996473300   1.7392695400
| 46> C    0.4454891600  -3.1613172200   0.0354705000
| 47> H   -1.2824467300  -3.3964369400  -1.2526546900
| 48> H   -1.1328351400  -4.6407653400  -0.0192705000
| 49> C    0.6489305000  -1.6452275000  -0.0948656000
| 50> H    1.0827015900  -3.7118149100  -0.6639645000
| 51> H    0.7451249900  -3.4658354300   1.0496295100
| 52> C   -0.3412727600  -0.9555209900   0.8988145300
| 53> H   -0.1041509600  -1.4041484200   1.8808054000
| 54> C    0.1230041100   0.4968184400   0.9410246300
| 55> H   -6.1639378200   0.5892924100   1.7261473600
| 56> C    1.6631220900   0.3907827500   0.8208312800
| 57> H   -0.1982327500   1.0046954600   1.8563268500
| 58> H   -0.2875367300   1.0621451600   0.0971073800
| 59> C    1.9953893700  -1.0861661400   0.4452354500
| 60> H    2.1612256600   0.6740957600   1.7533630000
| 61> H    2.0350332400   1.0720267900   0.0459956300
| 62> H    2.2189350000  -1.6401822500   1.3714555700
| 63> C    3.2569648000  -1.1898117200  -0.4470458200
| 64> C    0.3973820800  -1.1728844300  -1.5337486300
| 65> H    0.6494039500  -0.1151649600  -1.6607244000
| 66> H   -0.6528426700  -1.2935227400  -1.8170380600
| 67> H    1.0049390500  -1.7461027500  -2.2424484100
| 68> H    3.0530001000  -0.5981751900  -1.3552323900
| 69> C    3.5847491400  -2.6193502500  -0.8731728800
| 70> C    4.4041490000  -0.5069915700   0.2622407200
| 71> C    5.5178283100  -1.0878420700   0.7110139200
| 72> H    4.2624833300   0.5599502100   0.4270763800
| 73> H    5.6553802900  -2.1585592600   0.5489470800
| 74> C    6.6693265400  -0.4369786900   1.4418446100
| 75> C    7.0442682500  -1.3035955900   2.6566462700
| 76> C    6.4595256300   1.0500315600   1.7985470100
| 77> H    7.5305022200  -0.4741354600   0.7521812200
| 78> H    6.0574454000   1.5387421200   0.8993692500
| 79> C    7.7869324200   1.7433611000   2.1213103200
| 80> C    5.4617799600   1.2587162300   2.9428374300
| 81> H    6.2055393300  -1.3823155000   3.3563939900
| 82> H    7.9044227000  -0.8927868000   3.1946793100
| 83> H    7.3046483300  -2.3174165600   2.3340953300
| 84> H    8.5047972200   1.6308356600   1.3007936000
| 85> H    8.2429487200   1.3337521600   3.0300630300
| 86> H    7.6295057500   2.8148597900   2.2885554000
| 87> H    4.5370915800   0.6942211800   2.7870171700
| 88> H    5.2023511200   2.3193011700   3.0354871900
| 89> H    5.8939597300   0.9403360100   3.8986272400
| 90> H    2.8231416000  -3.0122314200  -1.5494256400
| 91> H    3.6469279100  -3.2905542000  -0.0082618700
| 92> H    4.5447211200  -2.6546935200  -1.3994828800
| 93> *
| 94> %eprnmr
| 95>  Nuclei = all H { ssfc }
| 96>  SpinSpinRThresh 8.0
| 97> end
| 98> 
| 99>                          ****END OF INPUT****
================================================================================

                       ****************************
                       * Single Point Calculation *
                       ****************************

---------------------------------
CARTESIAN COORDINATES (ANGSTROEM)
---------------------------------
  C     -4.985284    0.273362   -0.478512
  C     -6.444128   -0.084074   -0.640479
  C     -7.325557    0.872777    0.172404
  H     -6.625928   -1.118548   -0.327804
  H     -6.735275    0.007141   -1.697490
  C     -4.674423    1.686610   -0.787874
  C     -5.577436    2.690069   -0.104936
  C     -7.060357    2.319387   -0.247989
  H     -5.392012    3.695254   -0.498335
  H     -5.321462    2.712316    0.965353
  H     -7.369281    2.436506   -1.295699
  H     -7.677079    2.995207    0.355742
  O     -7.116277    0.682347    1.581537
  H     -8.381928    0.630328    0.003256
  C     -4.087733   -0.633301   -0.024061
  C     -3.703577    2.053686   -1.631603
  H     -3.076538    1.317002   -2.126822
  H     -3.521755    3.102789   -1.853021
  C     -2.695165   -0.381904    0.269319
  H     -4.469227   -1.635939    0.165178
  C     -1.768822   -1.303673    0.608040
  H     -2.381201    0.658218    0.216350
  C     -1.999899   -2.790592    0.695980
  C     -1.015653   -3.565490   -0.201647
  H     -3.026411   -3.068263    0.442279
  H     -1.828406   -3.099647    1.739270
  C      0.445489   -3.161317    0.035471
  H     -1.282447   -3.396437   -1.252655
  H     -1.132835   -4.640765   -0.019270
  C      0.648930   -1.645227   -0.094866
  H      1.082702   -3.711815   -0.663964
  H      0.745125   -3.465835    1.049630
  C     -0.341273   -0.955521    0.898815
  H     -0.104151   -1.404148    1.880805
  C      0.123004    0.496818    0.941025
  H     -6.163938    0.589292    1.726147
  C      1.663122    0.390783    0.820831
  H     -0.198233    1.004695    1.856327
  H     -0.287537    1.062145    0.097107
  C      1.995389   -1.086166    0.445235
  H      2.161226    0.674096    1.753363
  H      2.035033    1.072027    0.045996
  H      2.218935   -1.640182    1.371456
  C      3.256965   -1.189812   -0.447046
  C      0.397382   -1.172884   -1.533749
  H      0.649404   -0.115165   -1.660724
  H     -0.652843   -1.293523   -1.817038
  H      1.004939   -1.746103   -2.242448
  H      3.053000   -0.598175   -1.355232
  C      3.584749   -2.619350   -0.873173
  C      4.404149   -0.506992    0.262241
  C      5.517828   -1.087842    0.711014
  H      4.262483    0.559950    0.427076
  H      5.655380   -2.158559    0.548947
  C      6.669327   -0.436979    1.441845
  C      7.044268   -1.303596    2.656646
  C      6.459526    1.050032    1.798547
  H      7.530502   -0.474135    0.752181
  H      6.057445    1.538742    0.899369
  C      7.786932    1.743361    2.121310
  C      5.461780    1.258716    2.942837
  H      6.205539   -1.382316    3.356394
  H      7.904423   -0.892787    3.194679
  H      7.304648   -2.317417    2.334095
  H      8.504797    1.630836    1.300794
  H      8.242949    1.333752    3.030063
  H      7.629506    2.814860    2.288555
  H      4.537092    0.694221    2.787017
  H      5.202351    2.319301    3.035487
  H      5.893960    0.940336    3.898627
  H      2.823142   -3.012231   -1.549426
  H      3.646928   -3.290554   -0.008262
  H      4.544721   -2.654694   -1.399483

----------------------------
CARTESIAN COORDINATES (A.U.)
----------------------------
  NO LB      ZA    FRAG     MASS         X           Y           Z
   0 C     6.0000    0    12.011   -9.420822    0.516580   -0.904257
   1 C     6.0000    0    12.011  -12.177636   -0.158878   -1.210329
   2 C     6.0000    0    12.011  -13.843297    1.649309    0.325797
   3 H     1.0000    0     1.008  -12.521188   -2.113750   -0.619459
   4 H     1.0000    0     1.008  -12.727825    0.013494   -3.207792
   5 C     6.0000    0    12.011   -8.833379    3.187231   -1.488867
   6 C     6.0000    0    12.011  -10.539826    5.083493   -0.198300
   7 C     6.0000    0    12.011  -13.342140    4.383006   -0.468630
   8 H     1.0000    0     1.008  -10.189427    6.983018   -0.941717
   9 H     1.0000    0     1.008  -10.056106    5.125534    1.824253
  10 H     1.0000    0     1.008  -13.925924    4.604329   -2.448517
  11 H     1.0000    0     1.008  -14.507578    5.660122    0.672255
  12 O     8.0000    0    15.999  -13.447815    1.289448    2.988672
  13 H     1.0000    0     1.008  -15.839549    1.191148    0.006153
  14 C     6.0000    0    12.011   -7.724697   -1.196765   -0.045468
  15 C     6.0000    0    12.011   -6.998746    3.880904   -3.083282
  16 H     1.0000    0     1.008   -5.813814    2.488772   -4.019111
  17 H     1.0000    0     1.008   -6.655153    5.863422   -3.501701
  18 C     6.0000    0    12.011   -5.093123   -0.721695    0.508939
  19 H     1.0000    0     1.008   -8.445615   -3.091478    0.312141
  20 C     6.0000    0    12.011   -3.342589   -2.463585    1.149029
  21 H     1.0000    0     1.008   -4.499818    1.243852    0.408842
  22 C     6.0000    0    12.011   -3.779261   -5.273455    1.315211
  23 C     6.0000    0    12.011   -1.919306   -6.737800   -0.381058
  24 H     1.0000    0     1.008   -5.719089   -5.798177    0.835787
  25 H     1.0000    0     1.008   -3.455187   -5.857485    3.286743
  26 C     6.0000    0    12.011    0.841853   -5.974024    0.067030
  27 H     1.0000    0     1.008   -2.423473   -6.418336   -2.367174
  28 H     1.0000    0     1.008   -2.140748   -8.769776   -0.036416
  29 C     6.0000    0    12.011    1.226301   -3.109029   -0.179270
  30 H     1.0000    0     1.008    2.046009   -7.014314   -1.254711
  31 H     1.0000    0     1.008    1.408082   -6.549480    1.983512
  32 C     6.0000    0    12.011   -0.644912   -1.805673    1.698513
  33 H     1.0000    0     1.008   -0.196817   -2.653456    3.554207
  34 C     6.0000    0    12.011    0.232444    0.938851    1.778279
  35 H     1.0000    0     1.008  -11.648154    1.113601    3.261946
  36 C     6.0000    0    12.011    3.142845    0.738472    1.551146
  37 H     1.0000    0     1.008   -0.374606    1.898599    3.507949
  38 H     1.0000    0     1.008   -0.543366    2.007163    0.183506
  39 C     6.0000    0    12.011    3.770739   -2.052557    0.841373
  40 H     1.0000    0     1.008    4.084125    1.273856    3.313376
  41 H     1.0000    0     1.008    3.845655    2.025837    0.086919
  42 H     1.0000    0     1.008    4.193179   -3.099495    2.591675
  43 C     6.0000    0    12.011    6.154771   -2.248418   -0.844794
  44 C     6.0000    0    12.011    0.750943   -2.216430   -2.898365
  45 H     1.0000    0     1.008    1.227196   -0.217630   -3.138314
  46 H     1.0000    0     1.008   -1.233694   -2.444404   -3.433704
  47 H     1.0000    0     1.008    1.899060   -3.299656   -4.237613
  48 H     1.0000    0     1.008    5.769334   -1.130387   -2.561018
  49 C     6.0000    0    12.011    6.774194   -4.949855   -1.650058
  50 C     6.0000    0    12.011    8.322635   -0.958075    0.495563
  51 C     6.0000    0    12.011   10.427184   -2.055724    1.343622
  52 H     1.0000    0     1.008    8.054926    1.058153    0.807057
  53 H     1.0000    0     1.008   10.687120   -4.079086    1.037360
  54 C     6.0000    0    12.011   12.603201   -0.825770    2.724691
  55 C     6.0000    0    12.011   13.311738   -2.463439    5.020334
  56 C     6.0000    0    12.011   12.206734    1.984272    3.398761
  57 H     1.0000    0     1.008   14.230587   -0.895986    1.421417
  58 H     1.0000    0     1.008   11.446913    2.907801    1.699562
  59 C     6.0000    0    12.011   14.715170    3.294475    4.008696
  60 C     6.0000    0    12.011   10.321268    2.378629    5.561157
  61 H     1.0000    0     1.008   11.726770   -2.612198    6.342665
  62 H     1.0000    0     1.008   14.937194   -1.687123    6.037069
  63 H     1.0000    0     1.008   13.803785   -4.379283    4.410801
  64 H     1.0000    0     1.008   16.071738    3.081833    2.458144
  65 H     1.0000    0     1.008   15.576916    2.520426    5.725989
  66 H     1.0000    0     1.008   14.417676    5.319314    4.324743
  67 H     1.0000    0     1.008    8.573861    1.311888    5.266699
  68 H     1.0000    0     1.008    9.831019    4.382844    5.736239
  69 H     1.0000    0     1.008   11.137970    1.776978    7.367338
  70 H     1.0000    0     1.008    5.334964   -5.692292   -2.927990
  71 H     1.0000    0     1.008    6.891695   -6.218246   -0.015613
  72 H     1.0000    0     1.008    8.588278   -5.016644   -2.644639

--------------------------------
INTERNAL COORDINATES (ANGSTROEM)
--------------------------------
 C      0   0   0     0.000000000000     0.00000000     0.00000000
 C      1   0   0     1.510701369725     0.00000000     0.00000000
 C      2   1   0     1.534034097145   110.51582246     0.00000000
 H      2   1   3     1.095879992502   110.66816578   237.87507160
 H      2   1   3     1.100163905126   109.81267763   118.77332054
 C      1   2   3     1.479732670340   113.98051413   306.30530358
 C      6   1   2     1.512866797734   114.43814682    49.59221065
 C      3   2   1     1.529621708215   110.16008329    56.71477715
 H      7   6   1     1.095235870592   110.21525940   188.81044740
 H      7   6   1     1.100697863191   108.27299732    72.15995920
 H      8   3   2     1.098566972187   108.31141808    64.36434652
 H      8   3   2     1.096162004873   109.52144072   181.37079423
 O      3   2   1     1.437260533061   110.68438427   292.70262002
 H      3   2   1     1.096956176595   109.49682908   177.17800579
 C      1   2   3     1.354312244399   121.16902690   123.23150148
 C      6   1   2     1.337596391849   123.12397568   231.52289644
 H     16   6   1     1.086795191880   121.34374959   359.05109063
 H     16   6   1     1.087521383213   120.96463153   178.42661017
 C     15   1   2     1.445171148436   126.17660255   185.10143570
 H     15   1   2     1.089326876223   116.25614836     3.01525775
 C     19  15   1     1.350000163838   126.39604345   186.31258169
 H     19  15   1     1.087765314298   115.75841615     6.90751485
 C     21  19  15     1.507335195898   125.66106239     2.43582443
 C     23  21  19     1.541083959447   111.35373457   124.00018977
 H     23  21  19     1.093248882520   112.39262519     0.48148277
 H     23  21  19     1.101534473120   107.94821351   242.54362893
 C     24  23  21     1.534443622662   112.68772432    51.30160310
 H     24  23  21     1.097440151536   108.97158742   289.15080838
 H     24  23  21     1.096909087787   109.13758294   173.20818132
 C     27  24  23     1.535221129634   111.91213889   306.27280760
 H     27  24  23     1.094667395544   108.85052597   182.67748294
 H     27  24  23     1.100468749400   109.19571911    66.27582360
 C     21  19  15     1.497883799871   122.95398061   180.08577496
 H     33  21  19     1.105350346156   106.41377135   127.81642361
 C     33  21  19     1.525327677744   121.11552257     5.20543709
 H     13   3   2     0.967740348910   107.61019040    42.91052191
 C     35  33  21     1.548435791777   103.61478590   197.09774201
 H     35  33  21     1.094947643316   112.05370795    75.13565443
 H     35  33  21     1.095597739365   110.85078292   315.50120710
 C     30  27  24     1.554737996274   116.12785080   166.14571877
 H     37  35  33     1.094526763898   111.64050148   249.13597422
 H     37  35  33     1.096714014701   110.46261017   130.62009569
 H     40  30  27     1.102175217252   106.66856000   320.86907627
 C     40  30  27     1.548702952998   118.76778559    81.14368782
 C     30  27  24     1.535177174597   111.20489085   294.21784933
 H     45  30  27     1.094718386775   111.60912391   186.43369656
 H     45  30  27     1.094430686934   111.46499614    66.46857569
 H     45  30  27     1.095426899593   110.76268796   306.33892721
 H     44  40  30     1.102922584955   106.73082595    62.17333367
 C     44  40  30     1.527287547768   113.46693806   303.11441411
 C     44  40  30     1.511741493047   108.51855893   176.62099480
 C     51  44  40     1.333816439361   126.49630753   115.36513873
 H     51  44  40     1.088854773959   114.51207306   296.91564617
 H     52  51  44     1.091614175792   118.84242542     1.31272971
 C     52  51  44     1.511186557168   127.68925716   181.07686638
 C     55  52  51     1.538619254527   108.96138277   133.56096329
 C     55  52  51     1.543519519672   115.03165187     5.28859867
 H     55  52  51     1.103920182299   106.12883867   247.90223806
 H     57  55  52     1.099557714216   106.79273632   314.21740005
 C     57  55  52     1.531956524010   111.52596347   197.96013031
 C     57  55  52     1.532464119906   113.09435710    73.09861329
 H     56  55  52     1.095130082282   110.99834144   298.54919263
 H     56  55  52     1.094581697238   111.60448013   177.57766950
 H     56  55  52     1.095294414378   110.28970933    57.80618190
 H     60  57  55     1.096010736045   111.30494716    55.22940394
 H     60  57  55     1.096157761240   111.47008400   294.51852511
 H     60  57  55     1.095839183404   110.49973024   175.20259611
 H     61  57  55     1.094524195716   111.93237286   311.14546060
 H     61  57  55     1.095777220062   110.43109809   190.61494404
 H     61  57  55     1.096211420751   110.78207676    71.62733154
 H     50  44  40     1.091659037490   111.09818982    67.27023142
 H     50  44  40     1.096563722341   111.40908145   306.89024492
 H     50  44  40     1.095352712700   110.63150073   186.69898172

---------------------------
INTERNAL COORDINATES (A.U.)
---------------------------
 C      0   0   0     0.000000000000     0.00000000     0.00000000
 C      1   0   0     2.854811858919     0.00000000     0.00000000
 C      2   1   0     2.898904323701   110.51582246     0.00000000
 H      2   1   3     2.070913061473   110.66816578   237.87507160
 H      2   1   3     2.079008483114   109.81267763   118.77332054
 C      1   2   3     2.796289498358   113.98051413   306.30530358
 C      6   1   2     2.858903924820   114.43814682    49.59221065
 C      3   2   1     2.890566117027   110.16008329    56.71477715
 H      7   6   1     2.069695847466   110.21525940   188.81044740
 H      7   6   1     2.080017517623   108.27299732    72.15995920
 H      8   3   2     2.075990717204   108.31141808    64.36434652
 H      8   3   2     2.071445987620   109.52144072   181.37079423
 O      3   2   1     2.716028790579   110.68438427   292.70262002
 H      3   2   1     2.072946754678   109.49682908   177.17800579
 C      1   2   3     2.559279241730   121.16902690   123.23150148
 C      6   1   2     2.527690858316   123.12397568   231.52289644
 H     16   6   1     2.053745276316   121.34374959   359.05109063
 H     16   6   1     2.055117579055   120.96463153   178.42661017
 C     15   1   2     2.730977687188   126.17660255   185.10143570
 H     15   1   2     2.058529466381   116.25614836     3.01525775
 C     19  15   1     2.551130590402   126.39604345   186.31258169
 H     19  15   1     2.055578542002   115.75841615     6.90751485
 C     21  19  15     2.848450712267   125.66106239     2.43582443
 C     23  21  19     2.912226632734   111.35373457   124.00018977
 H     23  21  19     2.065940984179   112.39262519     0.48148277
 H     23  21  19     2.081598481271   107.94821351   242.54362893
 C     24  23  21     2.899678214773   112.68772432    51.30160310
 H     24  23  21     2.073861334772   108.97158742   289.15080838
 H     24  23  21     2.072857769726   109.13758294   173.20818132
 C     27  24  23     2.901147490017   111.91213889   306.27280760
 H     27  24  23     2.068621585311   108.85052597   182.67748294
 H     27  24  23     2.079584555304   109.19571911    66.27582360
 C     21  19  15     2.830590162193   122.95398061   180.08577496
 H     33  21  19     2.088809436270   106.41377135   127.81642361
 C     33  21  19     2.882451575426   121.11552257     5.20543709
 H     13   3   2     1.828764228185   107.61019040    42.91052191
 C     35  33  21     2.926119582421   103.61478590   197.09774201
 H     35  33  21     2.069151176850   112.05370795    75.13565443
 H     35  33  21     2.070379680343   110.85078292   315.50120710
 C     30  27  24     2.938029022959   116.12785080   166.14571877
 H     37  35  33     2.068355830014   111.64050148   249.13597422
 H     37  35  33     2.072489135017   110.46261017   130.62009569
 H     40  30  27     2.082809312201   106.66856000   320.86907627
 C     40  30  27     2.926624443962   118.76778559    81.14368782
 C     30  27  24     2.901064427035   111.20489085   294.21784933
 H     45  30  27     2.068717944772   111.60912391   186.43369656
 H     45  30  27     2.068174270864   111.46499614    66.46857569
 H     45  30  27     2.070056839961   110.76268796   306.33892721
 H     44  40  30     2.084221632482   106.73082595    62.17333367
 C     44  40  30     2.886155193030   113.46693806   303.11441411
 C     44  40  30     2.856777407145   108.51855893   176.62099480
 C     51  44  40     2.520547783315   126.49630753   115.36513873
 H     51  44  40     2.057637322396   114.51207306   296.91564617
 H     52  51  44     2.062851836154   118.84242542     1.31272971
 C     52  51  44     2.855728730310   127.68925716   181.07686638
 C     55  52  51     2.907569015435   108.96138277   133.56096329
 C     55  52  51     2.916829174541   115.03165187     5.28859867
 H     55  52  51     2.086106818253   106.12883867   247.90223806
 H     57  55  52     2.077862948308   106.79273632   314.21740005
 C     57  55  52     2.894978279453   111.52596347   197.96013031
 C     57  55  52     2.895937496684   113.09435710    73.09861329
 H     56  55  52     2.069495936532   110.99834144   298.54919263
 H     56  55  52     2.068459638982   111.60448013   177.57766950
 H     56  55  52     2.069806479188   110.28970933    57.80618190
 H     60  57  55     2.071160130962   111.30494716    55.22940394
 H     60  57  55     2.071437968315   111.47008400   294.51852511
 H     60  57  55     2.070835943453   110.49973024   175.20259611
 H     61  57  55     2.068350976854   111.93237286   311.14546060
 H     61  57  55     2.070718849707   110.43109809   190.61494404
 H     61  57  55     2.071539370096   110.78207676    71.62733154
 H     50  44  40     2.062936612476   111.09818982    67.27023142
 H     50  44  40     2.072205123617   111.40908145   306.89024492
 H     50  44  40     2.069916647051   110.63150073   186.69898172

---------------------
BASIS SET INFORMATION
---------------------
There are 3 groups of distinct atoms

 Group   1 Type C   : 7s4p contracted to 4s3p pattern {4111/211}
 Group   2 Type H   : 5s contracted to 3s pattern {311}
 Group   3 Type O   : 7s4p contracted to 4s3p pattern {4111/211}

Atom   0C    basis set group =>   1
Atom   1C    basis set group =>   1
Atom   2C    basis set group =>   1
Atom   3H    basis set group =>   2
Atom   4H    basis set group =>   2
Atom   5C    basis set group =>   1
Atom   6C    basis set group =>   1
Atom   7C    basis set group =>   1
Atom   8H    basis set group =>   2
Atom   9H    basis set group =>   2
Atom  10H    basis set group =>   2
Atom  11H    basis set group =>   2
Atom  12O    basis set group =>   3
Atom  13H    basis set group =>   2
Atom  14C    basis set group =>   1
Atom  15C    basis set group =>   1
Atom  16H    basis set group =>   2
Atom  17H    basis set group =>   2
Atom  18C    basis set group =>   1
Atom  19H    basis set group =>   2
Atom  20C    basis set group =>   1
Atom  21H    basis set group =>   2
Atom  22C    basis set group =>   1
Atom  23C    basis set group =>   1
Atom  24H    basis set group =>   2
Atom  25H    basis set group =>   2
Atom  26C    basis set group =>   1
Atom  27H    basis set group =>   2
Atom  28H    basis set group =>   2
Atom  29C    basis set group =>   1
Atom  30H    basis set group =>   2
Atom  31H    basis set group =>   2
Atom  32C    basis set group =>   1
Atom  33H    basis set group =>   2
Atom  34C    basis set group =>   1
Atom  35H    basis set group =>   2
Atom  36C    basis set group =>   1
Atom  37H    basis set group =>   2
Atom  38H    basis set group =>   2
Atom  39C    basis set group =>   1
Atom  40H    basis set group =>   2
Atom  41H    basis set group =>   2
Atom  42H    basis set group =>   2
Atom  43C    basis set group =>   1
Atom  44C    basis set group =>   1
Atom  45H    basis set group =>   2
Atom  46H    basis set group =>   2
Atom  47H    basis set group =>   2
Atom  48H    basis set group =>   2
Atom  49C    basis set group =>   1
Atom  50C    basis set group =>   1
Atom  51C    basis set group =>   1
Atom  52H    basis set group =>   2
Atom  53H    basis set group =>   2
Atom  54C    basis set group =>   1
Atom  55C    basis set group =>   1
Atom  56C    basis set group =>   1
Atom  57H    basis set group =>   2
Atom  58H    basis set group =>   2
Atom  59C    basis set group =>   1
Atom  60C    basis set group =>   1
Atom  61H    basis set group =>   2
Atom  62H    basis set group =>   2
Atom  63H    basis set group =>   2
Atom  64H    basis set group =>   2
Atom  65H    basis set group =>   2
Atom  66H    basis set group =>   2
Atom  67H    basis set group =>   2
Atom  68H    basis set group =>   2
Atom  69H    basis set group =>   2
Atom  70H    basis set group =>   2
Atom  71H    basis set group =>   2
Atom  72H    basis set group =>   2

-------------------------
BASIS SET IN INPUT FORMAT
-------------------------

 # Basis set for element : H 
 NewGTO H 
 S 3 
   1    1357.7500000000      0.0012928364
   2      54.3100000000      0.0588280685
   3       4.3448000000      0.9761499708
 S 1 
   1       0.6604910000      1.0000000000
 S 1 
   1       0.1366870000      1.0000000000
  end;

 # Basis set for element : C 
 NewGTO C 
 S 4 
   1  139534.0000000000      0.0001655246
   2    5581.3600000000      0.0074486101
   3     446.5090000000      0.1285821065
   4      67.4620000000      0.9218029311
 S 1 
   1      15.0674000000      1.0000000000
 S 1 
   1       3.9387600000      1.0000000000
 S 1 
   1       0.2999150000      1.0000000000
 P 2 
   1      28.3900000000      0.0816325586
   2       4.3676900000      0.9660360576
 P 1 
   1       0.8698170000      1.0000000000
 P 1 
   1       0.1889340000      1.0000000000
  end;

 # Basis set for element : O 
 NewGTO O 
 S 4 
   1  253789.0000000000      0.0001641076
   2   10151.6000000000      0.0074010921
   3     812.1250000000      0.1277711901
   4     122.6930000000      0.9223372164
 S 1 
   1      27.5608000000      1.0000000000
 S 1 
   1       7.3172600000      1.0000000000
 S 1 
   1       0.5792400000      1.0000000000
 P 2 
   1      53.4157000000      0.0793786106
   2       8.2177900000      0.9670506337
 P 1 
   1       1.6754400000      1.0000000000
 P 1 
   1       0.3506720000      1.0000000000
  end;

---------------------------------
AUXILIARY/J BASIS SET INFORMATION
---------------------------------
There are 3 groups of distinct atoms

 Group   1 Type C   : 12s5p4d2f1g contracted to 6s4p3d1f1g pattern {711111/2111/211/2/1}
 Group   2 Type H   : 5s2p1d contracted to 3s1p1d pattern {311/2/1}
 Group   3 Type O   : 12s5p4d2f1g contracted to 6s4p3d1f1g pattern {711111/2111/211/2/1}

Atom   0C    basis set group =>   1
Atom   1C    basis set group =>   1
Atom   2C    basis set group =>   1
Atom   3H    basis set group =>   2
Atom   4H    basis set group =>   2
Atom   5C    basis set group =>   1
Atom   6C    basis set group =>   1
Atom   7C    basis set group =>   1
Atom   8H    basis set group =>   2
Atom   9H    basis set group =>   2
Atom  10H    basis set group =>   2
Atom  11H    basis set group =>   2
Atom  12O    basis set group =>   3
Atom  13H    basis set group =>   2
Atom  14C    basis set group =>   1
Atom  15C    basis set group =>   1
Atom  16H    basis set group =>   2
Atom  17H    basis set group =>   2
Atom  18C    basis set group =>   1
Atom  19H    basis set group =>   2
Atom  20C    basis set group =>   1
Atom  21H    basis set group =>   2
Atom  22C    basis set group =>   1
Atom  23C    basis set group =>   1
Atom  24H    basis set group =>   2
Atom  25H    basis set group =>   2
Atom  26C    basis set group =>   1
Atom  27H    basis set group =>   2
Atom  28H    basis set group =>   2
Atom  29C    basis set group =>   1
Atom  30H    basis set group =>   2
Atom  31H    basis set group =>   2
Atom  32C    basis set group =>   1
Atom  33H    basis set group =>   2
Atom  34C    basis set group =>   1
Atom  35H    basis set group =>   2
Atom  36C    basis set group =>   1
Atom  37H    basis set group =>   2
Atom  38H    basis set group =>   2
Atom  39C    basis set group =>   1
Atom  40H    basis set group =>   2
Atom  41H    basis set group =>   2
Atom  42H    basis set group =>   2
Atom  43C    basis set group =>   1
Atom  44C    basis set group =>   1
Atom  45H    basis set group =>   2
Atom  46H    basis set group =>   2
Atom  47H    basis set group =>   2
Atom  48H    basis set group =>   2
Atom  49C    basis set group =>   1
Atom  50C    basis set group =>   1
Atom  51C    basis set group =>   1
Atom  52H    basis set group =>   2
Atom  53H    basis set group =>   2
Atom  54C    basis set group =>   1
Atom  55C    basis set group =>   1
Atom  56C    basis set group =>   1
Atom  57H    basis set group =>   2
Atom  58H    basis set group =>   2
Atom  59C    basis set group =>   1
Atom  60C    basis set group =>   1
Atom  61H    basis set group =>   2
Atom  62H    basis set group =>   2
Atom  63H    basis set group =>   2
Atom  64H    basis set group =>   2
Atom  65H    basis set group =>   2
Atom  66H    basis set group =>   2
Atom  67H    basis set group =>   2
Atom  68H    basis set group =>   2
Atom  69H    basis set group =>   2
Atom  70H    basis set group =>   2
Atom  71H    basis set group =>   2
Atom  72H    basis set group =>   2

-------------------------------------
AUXILIARY/J BASIS SET IN INPUT FORMAT
-------------------------------------

 # Auxiliary/J basis set for element : H 
 NewAuxJGTO H 
 S 3 
   1      15.6752927000      0.1007184237
   2       3.6063578000      0.3404257499
   3       1.2080016000      0.6491996172
 S 1 
   1       0.4726794000      1.0000000000
 S 1 
   1       0.2018100000      1.0000000000
 P 2 
   1       2.0281365000      0.5596620919
   2       0.5358730000      0.5596620919
 D 1 
   1       2.2165124000      1.0000000000
  end;

 # Auxiliary/J basis set for element : C 
 NewAuxJGTO C 
 S 7 
   1    1861.0916331000      0.0134602335
   2     642.9939764000      0.0299160374
   3     235.1105725000      0.1008649584
   4      90.7028894000      0.2370970548
   5      36.7794552000      0.3924037254
   6      15.6046273000      0.3195862154
   7       6.8907294000      0.0530104441
 S 1 
   1       3.1478850000     -1.0000000000
 S 1 
   1       1.4777287000      1.0000000000
 S 1 
   1       0.7076466000      1.0000000000
 S 1 
   1       0.3430122000      1.0000000000
 S 1 
   1       0.1669453000      1.0000000000
 P 2 
   1      13.5472892000     -0.6769313712
   2       5.4669419000     -0.3779500978
 P 1 
   1       2.1751721000      1.0000000000
 P 1 
   1       0.8582194000      1.0000000000
 P 1 
   1       0.3376720000      1.0000000000
 D 2 
   1       5.9287253000     -0.3533329857
   2       1.9809209000     -0.7456525731
 D 1 
   1       0.8055417000     -1.0000000000
 D 1 
   1       0.3531244000     -1.0000000000
 F 2 
   1       1.6755626000      0.6311076882
   2       0.5997536000      0.4968166032
 G 1 
   1       1.0024600000     -1.0000000000
  end;

 # Auxiliary/J basis set for element : O 
 NewAuxJGTO O 
 S 7 
   1    2876.8216605000      0.0168151159
   2    1004.7443032000      0.0340137548
   3     369.7579954000      0.1194951309
   4     142.9442404000      0.2664627624
   5      57.8366425000      0.4202764046
   6      24.3864983000      0.2765077335
   7      10.6622662000      0.0057008815
 S 1 
   1       4.8070437000     -1.0000000000
 S 1 
   1       2.2210770000      1.0000000000
 S 1 
   1       1.0447795000      1.0000000000
 S 1 
   1       0.4968425000      1.0000000000
 S 1 
   1       0.2371384000      1.0000000000
 P 2 
   1      64.2613382000     -0.2731534179
   2      16.3006076000     -0.8168011598
 P 1 
   1       4.3550542000      1.0000000000
 P 1 
   1       1.2019554000      1.0000000000
 P 1 
   1       0.3354196000      1.0000000000
 D 2 
   1       9.2146611000     -0.4661230638
   2       2.8435251000     -0.6600908911
 D 1 
   1       0.9955759000     -1.0000000000
 D 1 
   1       0.3649441000     -1.0000000000
 F 2 
   1       2.6420115000      0.5931563945
   2       0.7345613000      0.5931563945
 G 1 
   1       1.3931000000     -1.0000000000
  end;



           ************************************************************
           *        Program running with 4 parallel MPI-processes     *
           *              working on a common directory               *
           ************************************************************
------------------------------------------------------------------------------
                           ORCA GTO INTEGRAL CALCULATION
                           -- RI-GTO INTEGRALS CHOSEN --
------------------------------------------------------------------------------
------------------------------------------------------------------------------
                   ___                                                        
                  /   \      - P O W E R E D   B Y -                         
                 /     \                                                     
                 |  |  |   _    _      __       _____    __    __             
                 |  |  |  | |  | |    /  \     |  _  \  |  |  /  |          
                  \  \/   | |  | |   /    \    | | | |  |  | /  /          
                 / \  \   | |__| |  /  /\  \   | |_| |  |  |/  /          
                |  |  |   |  __  | /  /__\  \  |    /   |      \           
                |  |  |   | |  | | |   __   |  |    \   |  |\   \          
                \     /   | |  | | |  |  |  |  | |\  \  |  | \   \       
                 \___/    |_|  |_| |__|  |__|  |_| \__\ |__|  \__/        
                                                                              
                      - O R C A' S   B I G   F R I E N D -                    
                                      &                                       
                       - I N T E G R A L  F E E D E R -                       
                                                                              
 v1 FN, 2020, v2 2021                                                         
------------------------------------------------------------------------------


Reading SHARK input file inpJ.SHARKINP.tmp ... ok
----------------------
SHARK INTEGRAL PACKAGE
----------------------

Number of atoms                             ...     73
Number of basis functions                   ...    509
Number of shells                            ...    335
Maximum angular momentum                    ...      1
Integral batch strategy                     ... SHARK/LIBINT Hybrid
RI-J (if used) integral strategy            ... SPLIT-RIJ (Revised 2003 algorithm where possible)
Printlevel                                  ...      1
Contraction scheme used                     ... SEGMENTED contraction
Coulomb Range Separation                    ... NOT USED
Exchange Range Separation                   ... NOT USED
Finite Nucleus Model                        ... NOT USED
Auxiliary Coulomb fitting basis             ... AVAILABLE
   # of basis functions in Aux-J            ...   1905
   # of shells in Aux-J                     ...    655
   Maximum angular momentum in Aux-J        ...      4
Auxiliary J/K fitting basis                 ... NOT available
Auxiliary Correlation fitting basis         ... NOT available
Auxiliary 'external' fitting basis          ... NOT available
Integral threshold                          ...     3.000000e-11
Primitive cut-off                           ...     1.000000e-12
Primitive pair pre-selection threshold      ...     1.000000e-12

Calculating pre-screening integrals         ... done (  0.0 sec) Dimension = 335
Organizing shell pair data                  ... done (  0.1 sec)
Shell pair information
Total number of shell pairs                 ...     56280
Shell pairs after pre-screening             ...     21984
Total number of primitive shell pairs       ...    145865
Primitive shell pairs kept                  ...     37770
          la=0 lb=0:  11057 shell pairs
          la=1 lb=0:   9039 shell pairs
          la=1 lb=1:   1888 shell pairs

Calculating one electron integrals          ... done (  0.0 sec)
Calculating RI/J V-Matrix + Cholesky decomp.... done (  0.1 sec)
Calculating Nuclear repulsion               ... done (  0.0 sec) ENN=   2792.807003849360 Eh

SHARK setup successfully completed in   0.4 seconds

Maximum memory used throughout the entire GTOINT-calculation: 46.4 MB


           ************************************************************
           *        Program running with 4 parallel MPI-processes     *
           *              working on a common directory               *
           ************************************************************
-------------------------------------------------------------------------------
                                 ORCA SCF
-------------------------------------------------------------------------------

------------
SCF SETTINGS
------------
Hamiltonian:
 Density Functional     Method          .... DFT(GTOs)
 Exchange Functional    Exchange        .... PBE
   PBE kappa parameter   XKappa         ....  0.804000
   PBE mue parameter    XMuePBE         ....  0.219520
 Correlation Functional Correlation     .... PBE
   PBE beta parameter  CBetaPBE         ....  0.066725
 LDA part of GGA corr.  LDAOpt          .... PW91-LDA
 Gradients option       PostSCFGGA      .... off
 Hybrid DFT is turned on
   Fraction HF Exchange ScalHFX         ....  0.250000
   Scaling of DF-GGA-X  ScalDFX         ....  0.750000
   Scaling of DF-GGA-C  ScalDFC         ....  1.000000
   Scaling of DF-LDA-C  ScalLDAC        ....  1.000000
   Perturbative correction              ....  0.000000
   Density functional embedding theory  .... OFF
   NL short-range parameter             ....  6.900000
 RI-approximation to the Coulomb term is turned on
   Number of AuxJ basis functions       .... 1905
   RIJ-COSX (HFX calculated with COS-X)).... on


General Settings:
 Integral files         IntName         .... inpJ
 Hartree-Fock type      HFTyp           .... RHF
 Total Charge           Charge          ....    0
 Multiplicity           Mult            ....    1
 Number of Electrons    NEL             ....  220
 Basis Dimension        Dim             ....  509
 Nuclear Repulsion      ENuc            ....   2792.8070038494 Eh

Convergence Acceleration:
 DIIS                   CNVDIIS         .... on
   Start iteration      DIISMaxIt       ....    12
   Startup error        DIISStart       ....  0.200000
   # of expansion vecs  DIISMaxEq       ....     5
   Bias factor          DIISBfac        ....   1.050
   Max. coefficient     DIISMaxC        ....  10.000
 Trust-Rad. Augm. Hess. CNVTRAH         .... auto
   Auto Start mean grad. ratio tolernc. ....  1.125000
   Auto Start start iteration           ....    20
   Auto Start num. interpolation iter.  ....    10
   Max. Number of Micro iterations      ....    16
   Max. Number of Macro iterations      .... Maxiter - #DIIS iter
   Number of Davidson start vectors     ....     2
   Converg. threshold I  (grad. norm)   ....   1.000e-04
   Converg. threshold II (energy diff.) ....   1.000e-07
   Grad. Scal. Fac. for Micro threshold ....   0.100
   Minimum threshold for Micro iter.    ....   0.010
   NR start threshold (gradient norm)   ....   0.001
   Initial trust radius                 ....   0.400
   Minimum AH scaling param. (alpha)    ....   1.000
   Maximum AH scaling param. (alpha)    .... 1000.000
   Orbital update algorithm             .... Taylor
   White noise on init. David. guess    .... on
   Maximum white noise                  ....   0.010
   Quad. conv. algorithm                .... NR
 SOSCF                  CNVSOSCF        .... off
 Level Shifting         CNVShift        .... on
   Level shift para.    LevelShift      ....    0.2500
   Turn off err/grad.   ShiftErr        ....    0.0010
 Zerner damping         CNVZerner       .... off
 Static damping         CNVDamp         .... on
   Fraction old density DampFac         ....    0.7000
   Max. Damping (<1)    DampMax         ....    0.9800
   Min. Damping (>=0)   DampMin         ....    0.0000
   Turn off err/grad.   DampErr         ....    0.1000
 Fernandez-Rico         CNVRico         .... off

SCF Procedure:
 Maximum # iterations   MaxIter         ....   125
 SCF integral mode      SCFMode         .... Direct
   Integral package                     .... SHARK and LIBINT hybrid scheme
 Reset frequency        DirectResetFreq ....    20
 Integral Threshold     Thresh          ....  3.000e-11 Eh
 Primitive CutOff       TCut            ....  1.000e-12 Eh

Convergence Tolerance:
 Convergence Check Mode ConvCheckMode   .... Total+1el-Energy
 Convergence forced     ConvForced      .... 0
 Energy Change          TolE            ....  1.000e-07 Eh
 1-El. energy change                    ....  1.000e-04 Eh
 DIIS Error             TolErr          ....  1.000e-07


Diagonalization of the overlap matrix:
Smallest eigenvalue                        ... 7.577e-03
Time for diagonalization                   ...    0.035 sec
Threshold for overlap eigenvalues          ... 1.000e-08
Number of eigenvalues below threshold      ... 0
Time for construction of square roots      ...    0.026 sec
Total time needed                          ...    0.062 sec

Time for model grid setup =    0.728 sec

------------------------------
INITIAL GUESS: MODEL POTENTIAL
------------------------------
Loading Hartree-Fock densities                     ... done
Calculating cut-offs                               ... done
Initializing the effective Hamiltonian             ... done
Setting up the integral package (SHARK)            ... done
Starting the Coulomb interaction                   ... done (   0.4 sec)
Reading the grid                                   ... done
Mapping shells                                     ... done
Starting the XC term evaluation                    ... done (   0.2 sec)
  promolecular density results
     # of electrons  =    219.969856715
     EX              =   -164.433010526
     EC              =     -7.330760681
     EX+EC           =   -171.763771207
Transforming the Hamiltonian                       ... done (   0.0 sec)
Diagonalizing the Hamiltonian                      ... done (   0.0 sec)
Back transforming the eigenvectors                 ... done (   0.0 sec)
Now organizing SCF variables                       ... done
                      ------------------
                      INITIAL GUESS DONE (   1.4 sec)
                      ------------------
-------------------
DFT GRID GENERATION
-------------------

General Integration Accuracy     IntAcc      ... 4.388
Radial Grid Type                 RadialGrid  ... OptM3 with GC (2021)
Angular Grid (max. ang.)         AngularGrid ... 4 (Lebedev-302)
Angular grid pruning method      GridPruning ... 4 (adaptive)
Weight generation scheme         WeightScheme... Becke
Basis function cutoff            BFCut       ... 1.0000e-11
Integration weight cutoff        WCut        ... 1.0000e-14
Angular grids for H and He will be reduced by one unit
Partially contracted basis set               ... off
Rotationally invariant grid construction     ... off

Total number of grid points                  ...   309777
Total number of batches                      ...     4875
Average number of points per batch           ...       63
Average number of grid points per atom       ...     4244
Time for grid setup =    2.728 sec

--------------------
COSX GRID GENERATION
--------------------

GRIDX 1
-------
General Integration Accuracy     IntAcc      ... 3.816
Radial Grid Type                 RadialGrid  ... OptM3 with GC (2021)
Angular Grid (max. ang.)         AngularGrid ... 1 (Lebedev-50)
Angular grid pruning method      GridPruning ... 4 (adaptive)
Weight generation scheme         WeightScheme... Becke
Basis function cutoff            BFCut       ... 1.0000e-11
Integration weight cutoff        WCut        ... 1.0000e-14
Angular grids for H and He will be reduced by one unit
Partially contracted basis set               ... on
Rotationally invariant grid construction     ... off

Total number of grid points                  ...    39370
Total number of batches                      ...      657
Average number of points per batch           ...       59
Average number of grid points per atom       ...      539
UseSFitting                                  ... on

GRIDX 2
-------
General Integration Accuracy     IntAcc      ... 4.020
Radial Grid Type                 RadialGrid  ... OptM3 with GC (2021)
Angular Grid (max. ang.)         AngularGrid ... 2 (Lebedev-110)
Angular grid pruning method      GridPruning ... 4 (adaptive)
Weight generation scheme         WeightScheme... Becke
Basis function cutoff            BFCut       ... 1.0000e-11
Integration weight cutoff        WCut        ... 1.0000e-14
Angular grids for H and He will be reduced by one unit
Partially contracted basis set               ... on
Rotationally invariant grid construction     ... off

Total number of grid points                  ...    81294
Total number of batches                      ...     1307
Average number of points per batch           ...       62
Average number of grid points per atom       ...     1114
UseSFitting                                  ... on

GRIDX 3
-------
General Integration Accuracy     IntAcc      ... 4.338
Radial Grid Type                 RadialGrid  ... OptM3 with GC (2021)
Angular Grid (max. ang.)         AngularGrid ... 3 (Lebedev-194)
Angular grid pruning method      GridPruning ... 4 (adaptive)
Weight generation scheme         WeightScheme... Becke
Basis function cutoff            BFCut       ... 1.0000e-11
Integration weight cutoff        WCut        ... 1.0000e-14
Angular grids for H and He will be reduced by one unit
Partially contracted basis set               ... on
Rotationally invariant grid construction     ... off

Total number of grid points                  ...   176113
Total number of batches                      ...     2786
Average number of points per batch           ...       63
Average number of grid points per atom       ...     2413
UseSFitting                                  ... on

Time for X-Grid setup             =    2.732 sec


--------------------
CPCM SOLVATION MODEL
--------------------
CPCM parameters:
  Epsilon                                         ...       4.9000
  Refrac                                          ...       1.4500
  Rsolv                                           ...       1.3000
  Surface type                                    ... GAUSSIAN VDW
  Epsilon function type                           ...         CPCM
Radii:
 Radius for C  used is    3.8550 Bohr (=   2.0400 Ang.)
 Radius for H  used is    2.4944 Bohr (=   1.3200 Ang.)
 Radius for O  used is    3.4469 Bohr (=   1.8240 Ang.)
Calculating surface                               ...        done! (  0.0s)
GEPOL surface points                              ...         3581
GEPOL Volume                                      ...    3588.5957
GEPOL Surface-area                                ...    1766.6611
Calculating surface distance matrix               ...        done! (  0.2s)
Performing Cholesky decomposition & store         ...        done! (  0.7s)
Overall time for CPCM initialization              ...                 0.9s
--------------
SCF ITERATIONS
--------------
ITER       Energy         Delta-E        Max-DP      RMS-DP      [F,P]     Damp
               ***  Starting incremental Fock matrix formation  ***

  HOMO= 109 E= -3.980 eV LUMO=  7.700 eV gap=  11.680 eV
  0  -1165.0093230180   0.000000000000 0.09735304  0.00106848  0.1967170 0.7000

  HOMO= 109 E= -4.846 eV LUMO=  7.015 eV gap=  11.861 eV
  1  -1165.2283818113  -0.219058793285 0.06531541  0.00078529  0.0952649 0.7000
                               ***Turning on DIIS***

  HOMO= 109 E= -5.446 eV LUMO=  6.466 eV gap=  11.912 eV
  2  -1165.3291178174  -0.100736006026 0.10325055  0.00138724  0.0375608 0.0000

  HOMO= 109 E= -6.004 eV LUMO=  5.936 eV gap=  11.940 eV
  3  -1165.4733698781  -0.144252060771 0.05141884  0.00057458  0.0461413 0.0000

  HOMO= 109 E= -6.072 eV LUMO=  5.866 eV gap=  11.938 eV
  4  -1165.5089439753  -0.035574097199 0.01164218  0.00013389  0.0058086 0.0000

  HOMO= 109 E= -6.021 eV LUMO=  5.924 eV gap=  11.945 eV
  5  -1165.5097879850  -0.000844009637 0.00249485  0.00003785  0.0050624 0.0000

  HOMO= 109 E= -6.008 eV LUMO=  5.938 eV gap=  11.946 eV
  6  -1165.5098667364  -0.000078751456 0.00116985  0.00001170  0.0010690 0.0000

  HOMO= 109 E= -6.010 eV LUMO= -0.867 eV gap=   5.143 eV
  7  -1165.5098718874  -0.000005150937 0.00049299  0.00000601  0.0002260 0.0000
               *** Restarting incremental Fock matrix formation ***
                                   *** Resetting DIIS ***

  HOMO= 109 E= -6.009 eV LUMO= -0.865 eV gap=   5.144 eV
  8  -1165.5099471073  -0.000075219905 0.00032570  0.00000280  0.0001156 0.0000

  HOMO= 109 E= -6.009 eV LUMO= -0.865 eV gap=   5.144 eV
  9  -1165.5099471414  -0.000000034122 0.00013795  0.00000128  0.0001576 0.0000

  HOMO= 109 E= -6.010 eV LUMO= -0.865 eV gap=   5.144 eV
 10  -1165.5099472632  -0.000000121770 0.00006572  0.00000041  0.0000337 0.0000

  HOMO= 109 E= -6.009 eV LUMO= -0.865 eV gap=   5.144 eV
 11  -1165.5099472958  -0.000000032678 0.00002580  0.00000018  0.0000189 0.0000

  HOMO= 109 E= -6.009 eV LUMO= -0.865 eV gap=   5.144 eV
 12  -1165.5099472957   0.000000000161 0.00000729  0.00000005  0.0000035 0.0000
                 **** Energy Check signals convergence ****

               *****************************************************
               *                     SUCCESS                       *
               *           SCF CONVERGED AFTER  13 CYCLES          *
               *****************************************************

Old exchange energy                            =    -42.067905246 Eh
New exchange energy                            =    -42.067880328 Eh
Exchange energy change after final integration =      0.000024917 Eh
Total energy after final integration           =  -1165.509922390 Eh
Final COS-X integration done in                =    13.231 sec

----------------
TOTAL SCF ENERGY
----------------

Total Energy       :        -1165.50992239 Eh          -31715.13735 eV

Components:
Nuclear Repulsion  :         2792.80700385 Eh           75996.14214 eV
Electronic Energy  :        -3958.31692624 Eh         -107711.27950 eV
One Electron Energy:        -7127.28341853 Eh         -193943.24170 eV
Two Electron Energy:         3168.96649229 Eh           86231.96220 eV
Max COSX asymmetry :            0.00000275 Eh               0.00007 eV
CPCM Dielectric    :           -0.01358152 Eh              -0.36957 eV

Virial components:
Potential Energy   :        -2322.40047055 Eh          -63195.72961 eV
Kinetic Energy     :         1156.89054816 Eh           31480.59226 eV
Virial Ratio       :            2.00745047


DFT components:
N(Alpha)           :      109.999987108876 electrons
N(Beta)            :      109.999987108876 electrons
N(Total)           :      219.999974217753 electrons
E(X)               :     -125.746120148499 Eh       
E(C)               :       -7.329611633155 Eh       
E(XC)              :     -133.075731781654 Eh       
DFET-embed. en.    :        0.000000000000 Eh       
CPCM Solvation Model Properties:
Surface-charge          :           -0.03430886
Charge-correction       :           -0.00007737 Eh              -0.00211 eV
Free-energy (cav+disp)  :  This term is not implemented in the current solvation scheme

---------------
SCF CONVERGENCE
---------------

  Last Energy change         ...   -1.1692e-08  Tolerance :   1.0000e-07
  Last MAX-Density change    ...    0.0000e+00  Tolerance :   1.0000e-05
  Last RMS-Density change    ...    0.0000e+00  Tolerance :   1.0000e-06
  Last DIIS Error            ...    2.3603e-06  Tolerance :   1.0000e-07

             **** THE GBW FILE WAS UPDATED (inpJ.gbw) ****
             **** DENSITY inpJ.scfp WAS UPDATED ****
             **** ENERGY FILE WAS UPDATED (inpJ.en.tmp) ****
             **** THE GBW FILE WAS UPDATED (inpJ.gbw) ****
             **** DENSITY inpJ.scfp WAS UPDATED ****
----------------
ORBITAL ENERGIES
----------------

  NO   OCC          E(Eh)            E(eV) 
   0   2.0000     -19.212550      -522.8001 
   1   2.0000     -10.300482      -280.2904 
   2   2.0000     -10.270518      -279.4750 
   3   2.0000     -10.268313      -279.4150 
   4   2.0000     -10.263824      -279.2928 
   5   2.0000     -10.257595      -279.1234 
   6   2.0000     -10.257461      -279.1197 
   7   2.0000     -10.252318      -278.9797 
   8   2.0000     -10.251361      -278.9537 
   9   2.0000     -10.248209      -278.8679 
  10   2.0000     -10.247607      -278.8516 
  11   2.0000     -10.247123      -278.8384 
  12   2.0000     -10.247045      -278.8363 
  13   2.0000     -10.246675      -278.8262 
  14   2.0000     -10.244805      -278.7753 
  15   2.0000     -10.243238      -278.7327 
  16   2.0000     -10.242845      -278.7220 
  17   2.0000     -10.241841      -278.6947 
  18   2.0000     -10.241838      -278.6946 
  19   2.0000     -10.241510      -278.6856 
  20   2.0000     -10.240173      -278.6493 
  21   2.0000     -10.235858      -278.5319 
  22   2.0000     -10.235456      -278.5209 
  23   2.0000     -10.234218      -278.4872 
  24   2.0000     -10.226257      -278.2706 
  25   2.0000     -10.224647      -278.2268 
  26   2.0000     -10.224264      -278.2164 
  27   2.0000     -10.221961      -278.1537 
  28   2.0000     -10.221297      -278.1356 
  29   2.0000      -1.043331       -28.3905 
  30   2.0000      -0.901979       -24.5441 
  31   2.0000      -0.882154       -24.0046 
  32   2.0000      -0.859991       -23.4015 
  33   2.0000      -0.846274       -23.0283 
  34   2.0000      -0.822272       -22.3752 
  35   2.0000      -0.814658       -22.1680 
  36   2.0000      -0.795886       -21.6572 
  37   2.0000      -0.795049       -21.6344 
  38   2.0000      -0.775284       -21.0966 
  39   2.0000      -0.759057       -20.6550 
  40   2.0000      -0.742239       -20.1973 
  41   2.0000      -0.734028       -19.9739 
  42   2.0000      -0.715753       -19.4766 
  43   2.0000      -0.702994       -19.1294 
  44   2.0000      -0.701836       -19.0979 
  45   2.0000      -0.696384       -18.9496 
  46   2.0000      -0.671119       -18.2621 
  47   2.0000      -0.663117       -18.0443 
  48   2.0000      -0.636142       -17.3103 
  49   2.0000      -0.622499       -16.9391 
  50   2.0000      -0.613935       -16.7060 
  51   2.0000      -0.607536       -16.5319 
  52   2.0000      -0.597861       -16.2686 
  53   2.0000      -0.583074       -15.8663 
  54   2.0000      -0.557176       -15.1615 
  55   2.0000      -0.541390       -14.7320 
  56   2.0000      -0.530941       -14.4476 
  57   2.0000      -0.529305       -14.4031 
  58   2.0000      -0.515350       -14.0234 
  59   2.0000      -0.509939       -13.8761 
  60   2.0000      -0.503893       -13.7116 
  61   2.0000      -0.494381       -13.4528 
  62   2.0000      -0.487225       -13.2581 
  63   2.0000      -0.481188       -13.0938 
  64   2.0000      -0.476723       -12.9723 
  65   2.0000      -0.467360       -12.7175 
  66   2.0000      -0.465653       -12.6710 
  67   2.0000      -0.462148       -12.5757 
  68   2.0000      -0.459484       -12.5032 
  69   2.0000      -0.453694       -12.3456 
  70   2.0000      -0.449797       -12.2396 
  71   2.0000      -0.441423       -12.0117 
  72   2.0000      -0.435842       -11.8599 
  73   2.0000      -0.432331       -11.7643 
  74   2.0000      -0.431875       -11.7519 
  75   2.0000      -0.421568       -11.4714 
  76   2.0000      -0.414967       -11.2918 
  77   2.0000      -0.413395       -11.2491 
  78   2.0000      -0.411145       -11.1878 
  79   2.0000      -0.403107       -10.9691 
  80   2.0000      -0.401735       -10.9318 
  81   2.0000      -0.400080       -10.8867 
  82   2.0000      -0.394540       -10.7360 
  83   2.0000      -0.389322       -10.5940 
  84   2.0000      -0.385873       -10.5001 
  85   2.0000      -0.381033       -10.3684 
  86   2.0000      -0.376833       -10.2541 
  87   2.0000      -0.374374       -10.1872 
  88   2.0000      -0.367553       -10.0016 
  89   2.0000      -0.364562        -9.9202 
  90   2.0000      -0.361435        -9.8352 
  91   2.0000      -0.358083        -9.7439 
  92   2.0000      -0.355417        -9.6714 
  93   2.0000      -0.345090        -9.3904 
  94   2.0000      -0.343128        -9.3370 
  95   2.0000      -0.339991        -9.2516 
  96   2.0000      -0.336711        -9.1624 
  97   2.0000      -0.334289        -9.0965 
  98   2.0000      -0.332354        -9.0438 
  99   2.0000      -0.328162        -8.9297 
 100   2.0000      -0.327208        -8.9038 
 101   2.0000      -0.321647        -8.7525 
 102   2.0000      -0.319272        -8.6878 
 103   2.0000      -0.317056        -8.6275 
 104   2.0000      -0.311159        -8.4671 
 105   2.0000      -0.302335        -8.2269 
 106   2.0000      -0.276820        -7.5327 
 107   2.0000      -0.275227        -7.4893 
 108   2.0000      -0.254867        -6.9353 
 109   2.0000      -0.220843        -6.0094 
 110   0.0000      -0.031799        -0.8653 
 111   0.0000       0.019361         0.5268 
 112   0.0000       0.030718         0.8359 
 113   0.0000       0.081360         2.2139 
 114   0.0000       0.090540         2.4637 
 115   0.0000       0.097795         2.6611 
 116   0.0000       0.103443         2.8148 
 117   0.0000       0.108540         2.9535 
 118   0.0000       0.109259         2.9731 
 119   0.0000       0.113858         3.0982 
 120   0.0000       0.117486         3.1970 
 121   0.0000       0.122187         3.3249 
 122   0.0000       0.124398         3.3850 
 123   0.0000       0.129413         3.5215 
 124   0.0000       0.131699         3.5837 
 125   0.0000       0.135883         3.6976 
 126   0.0000       0.139308         3.7908 
 127   0.0000       0.140641         3.8270 
 128   0.0000       0.146956         3.9989 
 129   0.0000       0.149546         4.0694 
 130   0.0000       0.153290         4.1712 
 131   0.0000       0.157157         4.2764 
 132   0.0000       0.160298         4.3619 
 133   0.0000       0.162894         4.4326 
 134   0.0000       0.165731         4.5098 
 135   0.0000       0.172125         4.6838 
 136   0.0000       0.173826         4.7300 
 137   0.0000       0.175327         4.7709 
 138   0.0000       0.177614         4.8331 
 139   0.0000       0.179746         4.8912 
 140   0.0000       0.182894         4.9768 
 141   0.0000       0.184881         5.0309 
 142   0.0000       0.186088         5.0637 
 143   0.0000       0.192599         5.2409 
 144   0.0000       0.194610         5.2956 
 145   0.0000       0.198389         5.3984 
 146   0.0000       0.200470         5.4551 
 147   0.0000       0.203815         5.5461 
 148   0.0000       0.204765         5.5719 
 149   0.0000       0.208603         5.6764 
 150   0.0000       0.215227         5.8566 
 151   0.0000       0.220662         6.0045 
 152   0.0000       0.225365         6.1325 
 153   0.0000       0.228858         6.2275 
 154   0.0000       0.231040         6.2869 
 155   0.0000       0.234862         6.3909 
 156   0.0000       0.241267         6.5652 
 157   0.0000       0.245165         6.6713 
 158   0.0000       0.247074         6.7232 
 159   0.0000       0.252277         6.8648 
 160   0.0000       0.255780         6.9601 
 161   0.0000       0.260686         7.0936 
 162   0.0000       0.263443         7.1686 
 163   0.0000       0.266410         7.2494 
 164   0.0000       0.272452         7.4138 
 165   0.0000       0.274828         7.4785 
 166   0.0000       0.278878         7.5887 
 167   0.0000       0.282064         7.6753 
 168   0.0000       0.286697         7.8014 
 169   0.0000       0.294456         8.0125 
 170   0.0000       0.298034         8.1099 
 171   0.0000       0.303811         8.2671 
 172   0.0000       0.305359         8.3093 
 173   0.0000       0.307846         8.3769 
 174   0.0000       0.314479         8.5574 
 175   0.0000       0.318768         8.6741 
 176   0.0000       0.319992         8.7074 
 177   0.0000       0.338734         9.2174 
 178   0.0000       0.349011         9.4971 
 179   0.0000       0.354329         9.6418 
 180   0.0000       0.362863         9.8740 
 181   0.0000       0.380404        10.3513 
 182   0.0000       0.383575        10.4376 
 183   0.0000       0.410318        11.1653 
 184   0.0000       0.422038        11.4842 
 185   0.0000       0.463443        12.6109 
 186   0.0000       0.484331        13.1793 
 187   0.0000       0.491629        13.3779 
 188   0.0000       0.513119        13.9627 
 189   0.0000       0.516830        14.0637 
 190   0.0000       0.519784        14.1440 
 191   0.0000       0.528475        14.3805 
 192   0.0000       0.539407        14.6780 
 193   0.0000       0.560146        15.2423 
 194   0.0000       0.571354        15.5473 
 195   0.0000       0.573484        15.6053 
 196   0.0000       0.579116        15.7585 
 197   0.0000       0.584063        15.8932 
 198   0.0000       0.591932        16.1073 
 199   0.0000       0.617035        16.7904 
 200   0.0000       0.617739        16.8095 
 201   0.0000       0.627535        17.0761 
 202   0.0000       0.630012        17.1435 
 203   0.0000       0.634114        17.2551 
 204   0.0000       0.646416        17.5899 
 205   0.0000       0.657183        17.8829 
 206   0.0000       0.660001        17.9596 
 207   0.0000       0.664599        18.0847 
 208   0.0000       0.668379        18.1875 
 209   0.0000       0.670495        18.2451 
 210   0.0000       0.679439        18.4885 
 211   0.0000       0.687592        18.7103 
 212   0.0000       0.694780        18.9059 
 213   0.0000       0.698479        19.0066 
 214   0.0000       0.708692        19.2845 
 215   0.0000       0.709932        19.3182 
 216   0.0000       0.715785        19.4775 
 217   0.0000       0.719885        19.5891 
 218   0.0000       0.721523        19.6336 
 219   0.0000       0.728807        19.8318 
 220   0.0000       0.731825        19.9140 
 221   0.0000       0.733959        19.9721 
 222   0.0000       0.738733        20.1020 
 223   0.0000       0.742845        20.2138 
 224   0.0000       0.748129        20.3576 
 225   0.0000       0.752565        20.4783 
 226   0.0000       0.753467        20.5029 
 227   0.0000       0.759806        20.6754 
 228   0.0000       0.762862        20.7585 
 229   0.0000       0.764938        20.8150 
 230   0.0000       0.771207        20.9856 
 231   0.0000       0.777891        21.1675 
 232   0.0000       0.779711        21.2170 
 233   0.0000       0.781378        21.2624 
 234   0.0000       0.789186        21.4748 
 235   0.0000       0.793908        21.6033 
 236   0.0000       0.799042        21.7430 
 237   0.0000       0.807382        21.9700 
 238   0.0000       0.812496        22.1091 
 239   0.0000       0.815743        22.1975 
 240   0.0000       0.822838        22.3906 
 241   0.0000       0.827973        22.5303 
 242   0.0000       0.836066        22.7505 
 243   0.0000       0.848777        23.0964 
 244   0.0000       0.853973        23.2378 
 245   0.0000       0.856228        23.2991 
 246   0.0000       0.858103        23.3502 
 247   0.0000       0.860558        23.4170 
 248   0.0000       0.866461        23.5776 
 249   0.0000       0.870934        23.6993 
 250   0.0000       0.873340        23.7648 
 251   0.0000       0.874816        23.8050 
 252   0.0000       0.877114        23.8675 
 253   0.0000       0.878577        23.9073 
 254   0.0000       0.881604        23.9897 
 255   0.0000       0.884952        24.0808 
 256   0.0000       0.890260        24.2252 
 257   0.0000       0.892484        24.2857 
 258   0.0000       0.895540        24.3689 
 259   0.0000       0.898235        24.4422 
 260   0.0000       0.901256        24.5244 
 261   0.0000       0.902704        24.5638 
 262   0.0000       0.909361        24.7450 
 263   0.0000       0.910476        24.7753 
 264   0.0000       0.913421        24.8555 
 265   0.0000       0.918575        24.9957 
 266   0.0000       0.921254        25.0686 
 267   0.0000       0.924401        25.1542 
 268   0.0000       0.929213        25.2852 
 269   0.0000       0.931455        25.3462 
 270   0.0000       0.937324        25.5059 
 271   0.0000       0.941899        25.6304 
 272   0.0000       0.944046        25.6888 
 273   0.0000       0.951193        25.8833 
 274   0.0000       0.953227        25.9386 
 275   0.0000       0.957668        26.0595 
 276   0.0000       0.962902        26.2019 
 277   0.0000       0.968706        26.3598 
 278   0.0000       0.972516        26.4635 
 279   0.0000       0.979477        26.6529 
 280   0.0000       0.990808        26.9613 
 281   0.0000       0.998574        27.1726 
 282   0.0000       1.005120        27.3507 
 283   0.0000       1.010610        27.5001 
 284   0.0000       1.014810        27.6144 
 285   0.0000       1.027958        27.9721 
 286   0.0000       1.033426        28.1210 
 287   0.0000       1.038189        28.2506 
 288   0.0000       1.059022        28.8175 
 289   0.0000       1.067131        29.0381 
 290   0.0000       1.075498        29.2658 
 291   0.0000       1.076715        29.2989 
 292   0.0000       1.093345        29.7514 
 293   0.0000       1.099361        29.9151 
 294   0.0000       1.110148        30.2087 
 295   0.0000       1.122281        30.5388 
 296   0.0000       1.124284        30.5933 
 297   0.0000       1.137716        30.9588 
 298   0.0000       1.147320        31.2202 
 299   0.0000       1.156565        31.4717 
 300   0.0000       1.164791        31.6956 
 301   0.0000       1.170551        31.8523 
 302   0.0000       1.199320        32.6351 
 303   0.0000       1.214110        33.0376 
 304   0.0000       1.234319        33.5875 
 305   0.0000       1.240611        33.7588 
 306   0.0000       1.248045        33.9610 
 307   0.0000       1.259891        34.2834 
 308   0.0000       1.275754        34.7150 
 309   0.0000       1.299245        35.3543 
 310   0.0000       1.330116        36.1943 
 311   0.0000       1.336241        36.3610 
 312   0.0000       1.347251        36.6606 
 313   0.0000       1.367297        37.2060 
 314   0.0000       1.410424        38.3796 
 315   0.0000       1.525433        41.5091 
 316   0.0000       1.528354        41.5886 
 317   0.0000       1.561843        42.4999 
 318   0.0000       1.591561        43.3086 
 319   0.0000       1.674970        45.5782 
 320   0.0000       6.202096       168.7676 
 321   0.0000       6.232184       169.5864 
 322   0.0000       6.246136       169.9660 
 323   0.0000       6.271525       170.6569 
 324   0.0000       6.281531       170.9291 
 325   0.0000       6.289460       171.1449 
 326   0.0000       6.302237       171.4926 
 327   0.0000       6.307239       171.6287 
 328   0.0000       6.317618       171.9111 
 329   0.0000       6.340532       172.5346 
 330   0.0000       6.343008       172.6020 
 331   0.0000       6.351296       172.8275 
 332   0.0000       6.363747       173.1663 
 333   0.0000       6.384841       173.7403 
 334   0.0000       6.387260       173.8062 
 335   0.0000       6.407379       174.3536 
 336   0.0000       6.410110       174.4280 
 337   0.0000       6.416544       174.6030 
 338   0.0000       6.421074       174.7263 
 339   0.0000       6.422596       174.7677 
 340   0.0000       6.432392       175.0343 
 341   0.0000       6.442683       175.3143 
 342   0.0000       6.448142       175.4629 
 343   0.0000       6.454703       175.6414 
 344   0.0000       6.472623       176.1290 
 345   0.0000       6.480704       176.3489 
 346   0.0000       6.485891       176.4901 
 347   0.0000       6.491177       176.6339 
 348   0.0000       6.511908       177.1980 
 349   0.0000       6.514773       177.2760 
 350   0.0000       6.522480       177.4857 
 351   0.0000       6.526100       177.5842 
 352   0.0000       6.540483       177.9756 
 353   0.0000       6.545075       178.1005 
 354   0.0000       6.548711       178.1995 
 355   0.0000       6.556788       178.4193 
 356   0.0000       6.560616       178.5234 
 357   0.0000       6.568985       178.7512 
 358   0.0000       6.572217       178.8391 
 359   0.0000       6.579905       179.0483 
 360   0.0000       6.581977       179.1047 
 361   0.0000       6.585999       179.2141 
 362   0.0000       6.592141       179.3813 
 363   0.0000       6.595653       179.4768 
 364   0.0000       6.604177       179.7088 
 365   0.0000       6.608651       179.8305 
 366   0.0000       6.610231       179.8735 
 367   0.0000       6.615142       180.0072 
 368   0.0000       6.616716       180.0500 
 369   0.0000       6.619178       180.1170 
 370   0.0000       6.623174       180.2257 
 371   0.0000       6.628711       180.3764 
 372   0.0000       6.631492       180.4521 
 373   0.0000       6.634397       180.5311 
 374   0.0000       6.635570       180.5630 
[...]
     69 H        0.000      0.000      0.000      0.000      0.000      0.000
     70 H        0.000      0.000      0.000     -0.001      0.001      0.019
     71 H        0.000      0.000      0.000      0.000      0.001      0.011
     72 H        0.000      0.000      0.000      0.000      0.002      0.034
                 25 H       27 H       28 H       30 H       31 H       33 H  
      3 H        0.074     -0.003      0.002      0.000      0.000      0.090
      4 H        2.259     -0.110      0.071      0.000      0.000      2.536
      8 H        0.115      0.000      0.000      0.000      0.000      0.107
      9 H       -0.257      0.015      0.000      0.000      0.000     -0.307
     10 H        0.000      0.000      0.000      0.000      0.000      0.000
     11 H        0.000      0.000      0.000      0.000      0.000      0.000
     13 H       -0.037      0.000      0.000      0.000      0.000      0.000
     16 H       -0.258      0.014     -0.005     -0.032     -0.002     -0.302
     17 H       -0.242      0.013      0.000      0.000      0.000     -0.301
     19 H        0.927     -0.046      0.080      0.065      0.005      0.973
     21 H       -2.798      0.191      0.664     -0.232     -0.028     -2.364
     24 H      -13.306      4.310      2.370      0.640     -0.496     -0.127
     25 H        0.000     12.976      5.175     -0.634     -0.357     -2.105
     27 H       12.976      0.000    -13.578      4.006     13.012      0.061
     28 H        5.175    -13.578      0.000      2.631      4.131      0.288
     30 H       -0.634      4.006      2.631      0.000    -13.036      0.036
     31 H       -0.357     13.012      4.131    -13.036      0.000     -0.324
     33 H       -2.105      0.061      0.288      0.036     -0.324      0.000
     35 H       -0.026      0.001     -0.001      0.000      0.000     -0.034
     37 H        0.276      0.004     -0.036      0.511     -0.036      6.531
     38 H        0.163      0.001     -0.028     -0.013      0.127     12.228
     40 H       -0.013      0.019      0.147     -0.003     -0.033     -0.248
     41 H        0.008      0.022     -0.025      0.014      0.078     -0.438
     42 H       -0.018      0.014     -0.018     -0.255     -0.369     -0.208
     45 H       -0.060     -0.121     -0.145     -0.159      1.817     -0.473
     46 H       -0.015     -0.221      0.002     -0.207     -0.485     -0.208
     47 H        0.014      0.048      0.064     -0.337      0.014      0.882
     48 H       -0.016      0.028      0.024      0.039      0.007     -0.015
     52 H        0.001      0.000      0.003     -0.013     -0.001      0.004
     53 H       -0.001     -0.000     -0.000     -0.002     -0.003     -0.007
     57 H        0.000      0.000      0.000     -0.000      0.005      0.008
     58 H        0.000      0.000      0.000     -0.000     -0.000     -0.000
     61 H        0.000      0.000      0.000     -0.000     -0.000     -0.000
     62 H        0.000      0.000      0.000      0.000      0.001      0.000
     63 H        0.000      0.000      0.000      0.000     -0.000     -0.000
     64 H        0.000      0.000      0.000      0.000      0.000      0.000
     65 H        0.000      0.000      0.000      0.000      0.000      0.000
     66 H        0.000      0.000      0.000      0.000      0.000      0.000
     67 H       -0.000      0.000      0.000     -0.000     -0.000     -0.000
     68 H        0.000      0.000      0.000      0.000      0.000      0.000
     69 H        0.000      0.000      0.000      0.000      0.000     -0.000
     70 H        0.004     -0.007     -0.008     -0.470     -0.093      0.004
     71 H       -0.000     -0.003     -0.004      0.061      0.006     -0.001
     72 H        0.000     -0.009     -0.011      0.078     -0.047      0.005
                 35 H       37 H       38 H       40 H       41 H       42 H  
      3 H       -0.265     -0.001     -0.001      0.000      0.000      0.000
      4 H       -0.644     -0.045     -0.014      0.000      0.000      0.000
      8 H       -0.035     -0.002     -0.002      0.000     -0.000      0.000
      9 H       -0.159      0.006      0.001      0.001      0.001      0.000
     10 H       -0.406     -0.000     -0.000      0.000      0.000      0.000
     11 H       -0.143     -0.002     -0.000      0.000      0.000      0.000
     13 H       12.529      0.000      0.000      0.000      0.000      0.000
     16 H       -0.003      0.005      0.003      0.001      0.001     -0.001
     17 H       -0.002      0.005      0.003     -0.000      0.001      0.000
     19 H        0.045     -0.021      0.078      0.013     -0.003      0.004
     21 H       -0.015      0.063     -0.579     -0.010      0.061     -0.024
     24 H       -0.001     -0.057     -0.080     -0.020      0.065     -0.023
     25 H       -0.026      0.276      0.163     -0.013      0.008     -0.018
     27 H        0.001      0.004      0.001      0.019      0.022      0.014
     28 H       -0.001     -0.036     -0.028      0.147     -0.025     -0.018
     30 H        0.000      0.511     -0.013     -0.003      0.014     -0.255
     31 H        0.000     -0.036      0.127     -0.033      0.078     -0.369
     33 H       -0.034      6.531     12.228     -0.248     -0.438     -0.208
     35 H        0.000      0.000     -0.000      0.000      0.000      0.000
     37 H        0.000      0.000    -12.281      9.528      2.609     -0.259
     38 H       -0.000    -12.281      0.000      6.583     11.550     -0.485
     40 H        0.000      9.528      6.583      0.000    -13.342      9.294
     41 H        0.000      2.609     11.550    -13.342      0.000      8.733
     42 H        0.000     -0.259     -0.485      9.294      8.733      0.000
     45 H       -0.000      0.071     -0.058     -0.111     -0.065     -0.084
     46 H        0.000      0.058      0.032     -0.083      0.006      1.132
     47 H        0.000     -0.174      0.013      0.054      0.040     -0.413
     48 H        0.000      0.114     -0.006     -0.197     -0.428     10.541
     52 H        0.000     -0.015     -0.013      0.221     -0.228     -0.174
     53 H        0.000     -0.004     -0.007     -0.011      0.105      0.124
     57 H        0.000     -0.001      0.001      0.060     -0.001     -0.145
     58 H        0.000      0.000      0.000      0.001     -0.001      0.000
     61 H        0.000      0.000     -0.000     -0.002      0.000      0.004
     62 H        0.000      0.000      0.000      0.004      0.000     -0.013
     63 H        0.000      0.000      0.000      0.001     -0.000      0.002
     64 H        0.000      0.000      0.000     -0.001     -0.001     -0.000
     65 H        0.000      0.000      0.000     -0.000     -0.000      0.000
     66 H        0.000      0.000      0.000      0.001     -0.000      0.001
     67 H        0.000     -0.001     -0.002     -0.122     -0.013      0.001
     68 H        0.000     -0.001     -0.002     -0.003      0.002      0.001
     69 H        0.000     -0.000      0.001     -0.016     -0.004      0.002
     70 H        0.000     -0.005      0.000      0.083      0.032     -0.202
     71 H        0.000     -0.021      0.037      0.021     -0.045     -0.353
     72 H        0.000      0.066      0.015     -0.052      0.003     -0.462
                 45 H       46 H       47 H       48 H       52 H       53 H  
      3 H        0.001     -0.000     -0.001      0.000      0.000      0.000
      4 H        0.027     -0.019     -0.018      0.000      0.000      0.000
      8 H        0.001     -0.001      0.000      0.000      0.000      0.000
      9 H       -0.003      0.003      0.000      0.000      0.000      0.000
     10 H        0.000     -0.000      0.000      0.000      0.000      0.000
     11 H        0.000      0.000      0.000      0.000      0.000      0.000
     13 H        0.000      0.000      0.000      0.000      0.000      0.000
     16 H       -0.003      0.000      0.002     -0.002      0.000      0.000
     17 H       -0.004     -0.000      0.001     -0.002      0.000      0.000
     19 H        0.010     -0.011     -0.008      0.006      0.000      0.000
     21 H       -0.018      0.045      0.013     -0.016      0.001      0.000
     24 H       -0.023     -0.023     -0.015      0.005      0.000      0.000
     25 H       -0.060     -0.015      0.014     -0.016      0.001     -0.001
     27 H       -0.121     -0.221      0.048      0.028      0.000     -0.000
     28 H       -0.145      0.002      0.064      0.024      0.003     -0.000
     30 H       -0.159     -0.207     -0.337      0.039     -0.013     -0.002
     31 H        1.817     -0.485      0.014      0.007     -0.001     -0.003
     33 H       -0.473     -0.208      0.882     -0.015      0.004     -0.007
     35 H       -0.000      0.000      0.000      0.000      0.000      0.000
     37 H        0.071      0.058     -0.174      0.114     -0.015     -0.004
     38 H       -0.058      0.032      0.013     -0.006     -0.013     -0.007
     40 H       -0.111     -0.083      0.054     -0.197      0.221     -0.011
     41 H       -0.065      0.006      0.040     -0.428     -0.228      0.105
     42 H       -0.084      1.132     -0.413     10.541     -0.174      0.124
     45 H        0.000    -13.659    -13.062     -0.214      0.006     -0.016
     46 H      -13.659      0.000    -13.051     -0.178      0.024     -0.042
     47 H      -13.062    -13.051      0.000     -0.105      0.005     -0.009
     48 H       -0.214     -0.178     -0.105      0.000      4.781     -2.418
     52 H        0.006      0.024      0.005      4.781      0.000     17.481
     53 H       -0.016     -0.042     -0.009     -2.418     17.481      0.000
     57 H        0.029      0.000      0.025      3.931     -3.158      3.455
     58 H       -0.000     -0.001     -0.000     -0.051     -0.592     -0.494
     61 H       -0.001      0.000     -0.001     -0.114      0.155     -0.229
     62 H        0.000      0.000      0.000      0.033     -0.168      0.117
     63 H        0.000      0.000     -0.000     -0.049      0.047     -0.265
     64 H        0.000      0.000      0.000      0.013     -0.005      0.037
     65 H        0.000      0.000      0.000      0.006      0.053      0.063
     66 H        0.000      0.000      0.000     -0.011      0.080      0.769
     67 H       -0.000      0.000     -0.000     -0.016     -0.117      0.087
     68 H        0.000      0.000     -0.000     -0.005      0.037      0.183
     69 H       -0.000      0.000      0.000     -0.014      0.010      0.004
     70 H       -0.020     -0.061     -0.251      5.062      0.683     -0.243
     71 H        0.029     -0.032     -0.044     12.563     -0.527     -0.200
     72 H       -0.011     -0.031     -0.020      2.041     -0.407     -0.317
                 57 H       58 H       61 H       62 H       63 H       64 H  
      3 H        0.000      0.000      0.000      0.000      0.000      0.000
      4 H        0.000      0.000      0.000      0.000      0.000      0.000
      8 H        0.000      0.000      0.000      0.000      0.000      0.000
      9 H        0.000      0.000      0.000      0.000      0.000      0.000
     10 H        0.000      0.000      0.000      0.000      0.000      0.000
     11 H        0.000      0.000      0.000      0.000      0.000      0.000
     13 H        0.000      0.000      0.000      0.000      0.000      0.000
     16 H        0.000      0.000      0.000      0.000      0.000      0.000
     17 H        0.000      0.000      0.000      0.000      0.000      0.000
     19 H        0.000      0.000      0.000      0.000      0.000      0.000
     21 H        0.000      0.000      0.000      0.000      0.000      0.000
     24 H        0.000      0.000      0.000      0.000      0.000      0.000
     25 H        0.000      0.000      0.000      0.000      0.000      0.000
     27 H        0.000      0.000      0.000      0.000      0.000      0.000
     28 H        0.000      0.000      0.000      0.000      0.000      0.000
     30 H       -0.000     -0.000     -0.000      0.000      0.000      0.000
     31 H        0.005     -0.000     -0.000      0.001     -0.000      0.000
     33 H        0.008     -0.000     -0.000      0.000     -0.000      0.000
     35 H        0.000      0.000      0.000      0.000      0.000      0.000
     37 H       -0.001      0.000      0.000      0.000      0.000      0.000
     38 H        0.001      0.000     -0.000      0.000      0.000      0.000
     40 H        0.060      0.001     -0.002      0.004      0.001     -0.001
     41 H       -0.001     -0.001      0.000      0.000     -0.000     -0.001
     42 H       -0.145      0.000      0.004     -0.013      0.002     -0.000
     45 H        0.029     -0.000     -0.001      0.000      0.000      0.000
     46 H        0.000     -0.001      0.000      0.000      0.000      0.000
     47 H        0.025     -0.000     -0.001      0.000     -0.000      0.000
     48 H        3.931     -0.051     -0.114      0.033     -0.049      0.013
     52 H       -3.158     -0.592      0.155     -0.168      0.047     -0.005
     53 H        3.455     -0.494     -0.229      0.117     -0.265      0.037
     57 H        0.000      1.881     13.784      3.600      4.114     -0.373
     58 H        1.881      0.000     -0.516     -0.447      0.593      3.082
     61 H       13.784     -0.516      0.000    -11.985    -12.732     -0.004
     62 H        3.600     -0.447    -11.985      0.000    -13.164      0.020
     63 H        4.114      0.593    -12.732    -13.164      0.000      0.038
     64 H       -0.373      3.082     -0.004      0.020      0.038      0.000
     65 H       -0.294     12.861      0.056     -0.324     -0.099    -12.010
     66 H       -0.004      4.017      0.049     -0.122     -0.031    -12.709
     67 H       -0.418      2.145     -0.070      0.054     -0.023      2.820
     68 H        0.584      4.935     -0.056     -0.026     -0.155     -0.181
     69 H       -0.475     12.906     -0.043     -0.048     -0.017     -0.116
     70 H       -0.032      0.018     -0.000     -0.011     -0.002     -0.001
     71 H       -0.022     -0.002      0.000     -0.005     -0.001     -0.000
     72 H       -0.081      0.001      0.001     -0.003     -0.000      0.001
                 65 H       66 H       67 H       68 H       69 H       70 H  
      3 H        0.000      0.000      0.000      0.000      0.000      0.000
      4 H        0.000      0.000      0.000      0.000      0.000      0.000
      8 H        0.000      0.000      0.000      0.000      0.000      0.000
      9 H        0.000      0.000      0.000      0.000      0.000      0.000
     10 H        0.000      0.000      0.000      0.000      0.000      0.000
     11 H        0.000      0.000      0.000      0.000      0.000      0.000
     13 H        0.000      0.000      0.000      0.000      0.000      0.000
     16 H        0.000      0.000      0.000      0.000      0.000      0.000
     17 H        0.000      0.000      0.000      0.000      0.000      0.000
     19 H        0.000      0.000      0.000      0.000      0.000     -0.001
     21 H        0.000      0.000     -0.000      0.000      0.000      0.001
     24 H        0.000      0.000      0.000      0.000      0.000      0.019
     25 H        0.000      0.000     -0.000      0.000      0.000      0.004
     27 H        0.000      0.000      0.000      0.000      0.000     -0.007
     28 H        0.000      0.000      0.000      0.000      0.000     -0.008
     30 H        0.000      0.000     -0.000      0.000      0.000     -0.470
     31 H        0.000      0.000     -0.000      0.000      0.000     -0.093
     33 H        0.000      0.000     -0.000      0.000     -0.000      0.004
     35 H        0.000      0.000      0.000      0.000      0.000      0.000
     37 H        0.000      0.000     -0.001     -0.001     -0.000     -0.005
     38 H        0.000      0.000     -0.002     -0.002      0.001      0.000
     40 H       -0.000      0.001     -0.122     -0.003     -0.016      0.083
     41 H       -0.000     -0.000     -0.013      0.002     -0.004      0.032
     42 H        0.000      0.001      0.001      0.001      0.002     -0.202
     45 H        0.000      0.000     -0.000      0.000     -0.000     -0.020
     46 H        0.000      0.000      0.000      0.000      0.000     -0.061
     47 H        0.000      0.000     -0.000     -0.000      0.000     -0.251
     48 H        0.006     -0.011     -0.016     -0.005     -0.014      5.062
     52 H        0.053      0.080     -0.117      0.037      0.010      0.683
     53 H        0.063      0.769      0.087      0.183      0.004     -0.243
     57 H       -0.294     -0.004     -0.418      0.584     -0.475     -0.032
     58 H       12.861      4.017      2.145      4.935     12.906      0.018
     61 H        0.056      0.049     -0.070     -0.056     -0.043     -0.000
     62 H       -0.324     -0.122      0.054     -0.026     -0.048     -0.011
     63 H       -0.099     -0.031     -0.023     -0.155     -0.017     -0.002
     64 H      -12.010    -12.709      2.820     -0.181     -0.116     -0.001
     65 H        0.000    -12.962     -0.287     -0.212     -0.331      0.000
     66 H      -12.962      0.000     -0.042     -0.198     -0.201      0.000
     67 H       -0.287     -0.042      0.000    -12.584    -12.713     -0.004
     68 H       -0.212     -0.198    -12.584      0.000    -12.948     -0.001
     69 H       -0.331     -0.201    -12.713    -12.948      0.000      0.003
     70 H        0.000      0.000     -0.004     -0.001      0.003      0.000
     71 H       -0.001      0.003     -0.000      0.001     -0.000    -12.722
     72 H       -0.002      0.003     -0.000     -0.001      0.002    -13.734
                 71 H       72 H  
      3 H        0.000      0.000
      4 H        0.000      0.000
      8 H        0.000      0.000
      9 H        0.000      0.000
     10 H        0.000      0.000
     11 H        0.000      0.000
     13 H        0.000      0.000
     16 H        0.000      0.000
     17 H        0.000      0.000
     19 H        0.000      0.000
     21 H        0.001      0.002
     24 H        0.011      0.034
     25 H       -0.000      0.000
     27 H       -0.003     -0.009
     28 H       -0.004     -0.011
     30 H        0.061      0.078
     31 H        0.006     -0.047
     33 H       -0.001      0.005
     35 H        0.000      0.000
     37 H       -0.021      0.066
     38 H        0.037      0.015
     40 H        0.021     -0.052
     41 H       -0.045      0.003
     42 H       -0.353     -0.462
     45 H        0.029     -0.011
     46 H       -0.032     -0.031
     47 H       -0.044     -0.020
     48 H       12.563      2.041
     52 H       -0.527     -0.407
     53 H       -0.200     -0.317
     57 H       -0.022     -0.081
     58 H       -0.002      0.001
     61 H        0.000      0.001
     62 H       -0.005     -0.003
     63 H       -0.001     -0.000
     64 H       -0.000      0.001
     65 H       -0.001     -0.002
     66 H        0.003      0.003
     67 H       -0.000     -0.000
     68 H        0.001     -0.001
     69 H       -0.000      0.002
     70 H      -12.722    -13.734
     71 H        0.000    -12.357
     72 H      -12.357      0.000

Maximum memory used throughout the entire EPRNMR-calculation: 987.1 MB

Timings for individual modules:

Sum of individual times         ...      408.212 sec (=   6.804 min)
GTO integral calculation        ...        0.533 sec (=   0.009 min)   0.1 %
SCF iterations                  ...      104.057 sec (=   1.734 min)  25.5 %
EPR/NMR calculation             ...      303.621 sec (=   5.060 min)  74.4 %
                             ****ORCA TERMINATED NORMALLY****
TOTAL RUN TIME: 0 days 0 hours 6 minutes 48 seconds 605 msec
