
                                 *****************
                                 * O   R   C   A *
                                 *****************

                                            #,                                       
                                            ###                                      
                                            ####                                     
                                            #####                                    
                                            ######                                   
                                           ########,                                 
                                     ,,################,,,,,                         
                               ,,#################################,,                 
                          ,,##########################################,,             
                       ,#########################################, ''#####,          
                    ,#############################################,,   '####,        
                  ,##################################################,,,,####,       
                ,###########''''           ''''###############################       
              ,#####''   ,,,,##########,,,,          '''####'''          '####       
            ,##' ,,,,###########################,,,                        '##       
           ' ,,###''''                  '''############,,,                           
         ,,##''                                '''############,,,,        ,,,,,,###''
      ,#''                                            '''#######################'''  
     '                                                          ''''####''''         
             ,#######,   #######,   ,#######,      ##                                
            ,#'     '#,  ##    ##  ,#'     '#,    #''#        ######   ,####,        
            ##       ##  ##   ,#'  ##            #'  '#       #        #'  '#        
            ##       ##  #######   ##           ,######,      #####,   #    #        
            '#,     ,#'  ##    ##  '#,     ,#' ,#      #,         ##   #,  ,#        
             '#######'   ##     ##  '#######'  #'      '#     #####' # '####'        



                  #######################################################
                  #                        -***-                        #
                  #          Department of theory and spectroscopy      #
                  #    Directorship and core code : Frank Neese         #
                  #        Max Planck Institute fuer Kohlenforschung    #
                  #                Kaiser Wilhelm Platz 1               #
                  #                 D-45470 Muelheim/Ruhr               #
                  #                      Germany                        #
                  #                                                     #
                  #                  All rights reserved                #
                  #                        -***-                        #
                  #######################################################


                         Program Version 5.0.2 -  RELEASE  -


 With contributions from (in alphabetic order):
   Daniel Aravena         : Magnetic Suceptibility
   Michael Atanasov       : Ab Initio Ligand Field Theory (pilot matlab implementation)
   Alexander A. Auer      : GIAO ZORA, VPT2 properties, NMR spectrum
   Ute Becker             : Parallelization
   Giovanni Bistoni       : ED, misc. LED, open-shell LED, HFLD
   Martin Brehm           : Molecular dynamics
   Dmytro Bykov           : SCF Hessian
   Vijay G. Chilkuri      : MRCI spin determinant printing, contributions to CSF-ICE
   Dipayan Datta          : RHF DLPNO-CCSD density
   Achintya Kumar Dutta   : EOM-CC, STEOM-CC
   Dmitry Ganyushin       : Spin-Orbit,Spin-Spin,Magnetic field MRCI
   Miquel Garcia          : C-PCM and meta-GGA Hessian, CC/C-PCM, Gaussian charge scheme
   Yang Guo               : DLPNO-NEVPT2, F12-NEVPT2, CIM, IAO-localization
   Andreas Hansen         : Spin unrestricted coupled pair/coupled cluster methods
   Benjamin Helmich-Paris : MC-RPA, TRAH-SCF, COSX integrals
   Lee Huntington         : MR-EOM, pCC
   Robert Izsak           : Overlap fitted RIJCOSX, COSX-SCS-MP3, EOM
   Marcus Kettner         : VPT2
   Christian Kollmar      : KDIIS, OOCD, Brueckner-CCSD(T), CCSD density, CASPT2, CASPT2-K
   Simone Kossmann        : Meta GGA functionals, TD-DFT gradient, OOMP2, MP2 Hessian
   Martin Krupicka        : Initial AUTO-CI
   Lucas Lang             : DCDCAS
   Marvin Lechner         : AUTO-CI (C++ implementation), FIC-MRCC
   Dagmar Lenk            : GEPOL surface, SMD
   Dimitrios Liakos       : Extrapolation schemes; Compound Job, initial MDCI parallelization
   Dimitrios Manganas     : Further ROCIS development; embedding schemes
   Dimitrios Pantazis     : SARC Basis sets
   Anastasios Papadopoulos: AUTO-CI, single reference methods and gradients
   Taras Petrenko         : DFT Hessian,TD-DFT gradient, ASA, ECA, R-Raman, ABS, FL, XAS/XES, NRVS
   Peter Pinski           : DLPNO-MP2, DLPNO-MP2 Gradient
   Christoph Reimann      : Effective Core Potentials
   Marius Retegan         : Local ZFS, SOC
   Christoph Riplinger    : Optimizer, TS searches, QM/MM, DLPNO-CCSD(T), (RO)-DLPNO pert. Triples
   Tobias Risthaus        : Range-separated hybrids, TD-DFT gradient, RPA, STAB
   Michael Roemelt        : Original ROCIS implementation
   Masaaki Saitow         : Open-shell DLPNO-CCSD energy and density
   Barbara Sandhoefer     : DKH picture change effects
   Avijit Sen             : IP-ROCIS
   Kantharuban Sivalingam : CASSCF convergence, NEVPT2, FIC-MRCI
   Bernardo de Souza      : ESD, SOC TD-DFT
   Georgi Stoychev        : AutoAux, RI-MP2 NMR, DLPNO-MP2 response
   Willem Van den Heuvel  : Paramagnetic NMR
   Boris Wezisla          : Elementary symmetry handling
   Frank Wennmohs         : Technical directorship


 We gratefully acknowledge several colleagues who have allowed us to
 interface, adapt or use parts of their codes:
   Stefan Grimme, W. Hujo, H. Kruse, P. Pracht,  : VdW corrections, initial TS optimization,
                  C. Bannwarth, S. Ehlert          DFT functionals, gCP, sTDA/sTD-DF
   Ed Valeev, F. Pavosevic, A. Kumar             : LibInt (2-el integral package), F12 methods
   Garnet Chan, S. Sharma, J. Yang, R. Olivares  : DMRG
   Ulf Ekstrom                                   : XCFun DFT Library
   Mihaly Kallay                                 : mrcc  (arbitrary order and MRCC methods)
   Jiri Pittner, Ondrej Demel                    : Mk-CCSD
   Frank Weinhold                                : gennbo (NPA and NBO analysis)
   Christopher J. Cramer and Donald G. Truhlar   : smd solvation model
   Lars Goerigk                                  : TD-DFT with DH, B97 family of functionals
   V. Asgeirsson, H. Jonsson                     : NEB implementation
   FAccTs GmbH                                   : IRC, NEB, NEB-TS, DLPNO-Multilevel, CI-OPT
                                                   MM, QMMM, 2- and 3-layer-ONIOM, Crystal-QMMM,
                                                   LR-CPCM, SF, NACMEs, symmetry and pop. for TD-DFT,
                                                   nearIR, NL-DFT gradient (VV10), updates on ESD,
                                                   ML-optimized integration grids
   S Lehtola, MJT Oliveira, MAL Marques          : LibXC Library
   Liviu Ungur et al                             : ANISO software


 Your calculation uses the libint2 library for the computation of 2-el integrals
 For citations please refer to: http://libint.valeyev.net

 Your ORCA version has been built with support for libXC version: 5.1.0
 For citations please refer to: https://tddft.org/programs/libxc/

 This ORCA versions uses:
   CBLAS   interface :  Fast vector & matrix operations
   LAPACKE interface :  Fast linear algebra routines
   SCALAPACK package :  Parallel linear algebra routines
   Shared memory     :  Shared parallel matrices
   BLAS/LAPACK       :  OpenBLAS 0.3.15  USE64BITINT DYNAMIC_ARCH NO_AFFINITY Zen SINGLE_THREADED
        Core in use  :  Zen
   Copyright (c) 2011-2014, The OpenBLAS Project


Your calculation utilizes the atom-pairwise dispersion correction
based on tight binding partial charges (D4)
Cite in your paper:
E.Caldeweyher, C.Bannwarth, S.Grimme, J.Chem.Phys., (2017), 147, 034112.
E.Caldeweyher, S.Ehlert, A.Hansen, H.Neugebauer, S.Grimme, J.Chem.Phys., (2018), in progress.
   

================================================================================

----- Orbital basis set information -----
Your calculation utilizes the basis: pcJ-0
   F. Jensen, Theor. Chem. Acc. 126, 371 (2010).

----- AuxJ basis set information -----
Your calculation utilizes the auxiliary basis: def2/J
   F. Weigend, Phys. Chem. Chem. Phys. 8, 1057 (2006).

================================================================================
                                        WARNINGS
                       Please study these warnings very carefully!
================================================================================


INFO   : the flag for use of the SHARK integral package has been found!

================================================================================
                                       INPUT FILE
================================================================================
NAME = inpJ
|  1> ! pbe0
|  2> ! D4
|  3> ! pcJ-0
|  4> ! def2/J RIJCOSX
|  5> ! DEFGRID2
|  6> ! scfconv7
|  7> ! smallprint printgap noloewdin
|  8> ! NOSOSCF
|  9> %MaxCore 4000
| 10> %output
| 11>        print[P_BondOrder_M] 1
| 12>        print[P_Mayer] 1
| 13>        print[P_basis] 2
| 14> end
| 15> %pal
| 16>     nprocs 4
| 17> end
| 18> ! CPCM(chloroform)
| 19> *xyz 0 1
| 20> C   -4.9485479300   0.2760527700   0.4379437600
| 21> C   -6.3677465100  -0.1512026600   0.1459411200
| 22> C   -6.9695601500   0.6356804800  -1.0246347700
| 23> H   -6.9983490400   0.0458312100   1.0297037800
| 24> H   -6.4128324900  -1.2255759900  -0.0634426700
| 25> C   -4.7708980800   1.7372810100   0.5757037400
| 26> C   -5.4135265500   2.5521036800  -0.5238576600
| 27> C   -6.8709295400   2.1340634300  -0.7623598500
| 28> H   -4.8484812800   2.3865309500  -1.4537844900
| 29> H   -5.3509512100   3.6199449600  -0.2894049500
| 30> H   -7.2908331000   2.6864744900  -1.6111344200
| 31> H   -7.4742465200   2.3767586300   0.1255004700
| 32> O   -8.3188693500   0.2271794600  -1.2848583700
| 33> H   -6.4174941900   0.3895513700  -1.9425737300
| 34> C   -3.9501707400  -0.6357387600   0.5117417500
| 35> C   -4.1371779200   2.3072669200   1.6070136600
| 36> H   -3.7038159100   1.7106680000   2.4049093600
| 37> H   -4.0478095400   3.3885495500   1.6800839100
| 38> C   -2.5435191600  -0.3569369200   0.6862407600
| 39> H   -4.2412202600  -1.6775151000   0.3845303700
| 40> C   -1.5590123200  -1.2687941100   0.8384413000
| 41> H   -2.2632340700   0.6939096400   0.6816520900
| 42> C   -1.7487425300  -2.7623877100   0.9173032800
| 43> C   -0.8482497600  -3.5072475400  -0.0855551100
| 44> H   -2.7915751400  -3.0570722800   0.7719301200
| 45> H   -1.4686877200  -3.0833699000   1.9335782100
| 46> C    0.6211960700  -3.0722548600   0.0010137000
| 47> H   -1.2255516400  -3.3359540200  -1.1016136100
| 48> H   -0.9223843300  -4.5864254600   0.0963745500
| 49> C    0.7760622900  -1.5511125900  -0.1371784400
| 50> H    1.1931472300  -3.6035480500  -0.7663714700
| 51> H    1.0325748700  -3.3759047200   0.9755148400
| 52> C   -0.1149393300  -0.8906142000   0.9625324700
| 53> H    0.2421809600  -1.3365739200   1.9094498800
| 54> C    0.3166711000   0.5720840200   0.9652157800
| 55> H   -8.8425836800   0.4335331000  -0.4990934800
| 56> C    1.8370871500   0.5026587400   0.6784837200
| 57> H    0.0854104100   1.0684168600   1.9135344700
| 58> H   -0.1970552200   1.1302545600   0.1746628200
| 59> C    2.1591711000  -0.9657220100   0.2647470600
| 60> H    2.4276307100   0.7971426500   1.5517017200
| 61> H    2.1079539600   1.1920338700  -0.1303502800
| 62> H    2.4826616300  -1.5183083100   1.1616235100
| 63> C    3.3268964000  -1.0432386700  -0.7486048300
| 64> C    0.3634699100  -1.0780693900  -1.5373026500
| 65> H   -0.7075364100  -1.2240178100  -1.7078654700
| 66> H    0.9072143100  -1.6336606700  -2.3092164200
| 67> H    0.5748143000  -0.0140099600  -1.6829386600
| 68> H    3.0243400100  -0.4561641700  -1.6316865800
| 69> C    3.6399902100  -2.4669958600  -1.2067436500
| 70> C    4.5276825000  -0.3463848600  -0.1528788100
| 71> C    5.6702964300  -0.9156492300   0.2336651500
| 72> H    4.4203454800   0.7299246800  -0.0048662100
| 73> H    5.8163024500  -1.9878042400   0.0953808900
| 74> C    6.8140261600  -0.1741589900   0.8715034500
| 75> C    8.1228419700  -0.4875519000   0.1328667900
| 76> C    6.8834206800  -0.4555377000   2.3982783800
| 77> H    6.6119263700   0.9026461700   0.7683648200
| 78> H    5.8825645400  -0.2134550100   2.7871426600
| 79> C    7.8874337900   0.4634362500   3.0990189500
| 80> C    7.1722299500  -1.9198739600   2.7378670600
| 81> H    8.0400337400  -0.1951893100  -0.9192181400
| 82> H    8.3469498700  -1.5597494000   0.1609624700
| 83> H    8.9737878000   0.0491640300   0.5641837900
| 84> H    7.8052523900   0.3612224900   4.1869158000
| 85> H    7.7121208000   1.5146944400   2.8427552000
| 86> H    8.9185112900   0.2140951000   2.8239312300
| 87> H    8.1750915600  -2.2143728900   2.4076796400
| 88> H    6.4482676800  -2.5984422800   2.2747551600
| 89> H    7.1261303700  -2.0720342900   3.8219284300
| 90> H    4.5511648900  -2.4844210100  -1.8143182100
| 91> H    2.8281919400  -2.8712932700  -1.8146226000
| 92> H    3.7885004800  -3.1378073300  -0.3522931800
| 93> *
| 94> %eprnmr
| 95>  Nuclei = all H { ssfc }
| 96>  SpinSpinRThresh 8.0
| 97> end
| 98> 
| 99>                          ****END OF INPUT****
================================================================================

                       ****************************
                       * Single Point Calculation *
                       ****************************

---------------------------------
CARTESIAN COORDINATES (ANGSTROEM)
---------------------------------
  C     -4.948548    0.276053    0.437944
  C     -6.367747   -0.151203    0.145941
  C     -6.969560    0.635680   -1.024635
  H     -6.998349    0.045831    1.029704
  H     -6.412832   -1.225576   -0.063443
  C     -4.770898    1.737281    0.575704
  C     -5.413527    2.552104   -0.523858
  C     -6.870930    2.134063   -0.762360
  H     -4.848481    2.386531   -1.453784
  H     -5.350951    3.619945   -0.289405
  H     -7.290833    2.686474   -1.611134
  H     -7.474247    2.376759    0.125500
  O     -8.318869    0.227179   -1.284858
  H     -6.417494    0.389551   -1.942574
  C     -3.950171   -0.635739    0.511742
  C     -4.137178    2.307267    1.607014
  H     -3.703816    1.710668    2.404909
  H     -4.047810    3.388550    1.680084
  C     -2.543519   -0.356937    0.686241
  H     -4.241220   -1.677515    0.384530
  C     -1.559012   -1.268794    0.838441
  H     -2.263234    0.693910    0.681652
  C     -1.748743   -2.762388    0.917303
  C     -0.848250   -3.507248   -0.085555
  H     -2.791575   -3.057072    0.771930
  H     -1.468688   -3.083370    1.933578
  C      0.621196   -3.072255    0.001014
  H     -1.225552   -3.335954   -1.101614
  H     -0.922384   -4.586425    0.096375
  C      0.776062   -1.551113   -0.137178
  H      1.193147   -3.603548   -0.766371
  H      1.032575   -3.375905    0.975515
  C     -0.114939   -0.890614    0.962532
  H      0.242181   -1.336574    1.909450
  C      0.316671    0.572084    0.965216
  H     -8.842584    0.433533   -0.499093
  C      1.837087    0.502659    0.678484
  H      0.085410    1.068417    1.913534
  H     -0.197055    1.130255    0.174663
  C      2.159171   -0.965722    0.264747
  H      2.427631    0.797143    1.551702
  H      2.107954    1.192034   -0.130350
  H      2.482662   -1.518308    1.161624
  C      3.326896   -1.043239   -0.748605
  C      0.363470   -1.078069   -1.537303
  H     -0.707536   -1.224018   -1.707865
  H      0.907214   -1.633661   -2.309216
  H      0.574814   -0.014010   -1.682939
  H      3.024340   -0.456164   -1.631687
  C      3.639990   -2.466996   -1.206744
  C      4.527682   -0.346385   -0.152879
  C      5.670296   -0.915649    0.233665
  H      4.420345    0.729925   -0.004866
  H      5.816302   -1.987804    0.095381
  C      6.814026   -0.174159    0.871503
  C      8.122842   -0.487552    0.132867
  C      6.883421   -0.455538    2.398278
  H      6.611926    0.902646    0.768365
  H      5.882565   -0.213455    2.787143
  C      7.887434    0.463436    3.099019
  C      7.172230   -1.919874    2.737867
  H      8.040034   -0.195189   -0.919218
  H      8.346950   -1.559749    0.160962
  H      8.973788    0.049164    0.564184
  H      7.805252    0.361222    4.186916
  H      7.712121    1.514694    2.842755
  H      8.918511    0.214095    2.823931
  H      8.175092   -2.214373    2.407680
  H      6.448268   -2.598442    2.274755
  H      7.126130   -2.072034    3.821928
  H      4.551165   -2.484421   -1.814318
  H      2.828192   -2.871293   -1.814623
  H      3.788500   -3.137807   -0.352293

----------------------------
CARTESIAN COORDINATES (A.U.)
----------------------------
  NO LB      ZA    FRAG     MASS         X           Y           Z
   0 C     6.0000    0    12.011   -9.351400    0.521664    0.827594
   1 C     6.0000    0    12.011  -12.033297   -0.285732    0.275789
   2 C     6.0000    0    12.011  -13.170560    1.201262   -1.936279
   3 H     1.0000    0     1.008  -13.224963    0.086608    1.945858
   4 H     1.0000    0     1.008  -12.118497   -2.316003   -0.119889
   5 C     6.0000    0    12.011   -9.015691    3.282985    1.087922
   6 C     6.0000    0    12.011  -10.230083    4.822777   -0.989948
   7 C     6.0000    0    12.011  -12.984175    4.032795   -1.440651
   8 H     1.0000    0     1.008   -9.162302    4.509890   -2.747255
   9 H     1.0000    0     1.008  -10.111832    6.840705   -0.546896
  10 H     1.0000    0     1.008  -13.777678    5.076701   -3.044603
  11 H     1.0000    0     1.008  -14.124279    4.491423    0.237162
  12 O     8.0000    0    15.999  -15.720385    0.429307   -2.428030
  13 H     1.0000    0     1.008  -12.127306    0.736145   -3.670932
  14 C     6.0000    0    12.011   -7.464741   -1.201372    0.967052
  15 C     6.0000    0    12.011   -7.818133    4.360103    3.036816
  16 H     1.0000    0     1.008   -6.999198    3.232694    4.544620
  17 H     1.0000    0     1.008   -7.649251    6.403431    3.174898
  18 C     6.0000    0    12.011   -4.806555   -0.674513    1.296807
  19 H     1.0000    0     1.008   -8.014745   -3.170044    0.726657
  20 C     6.0000    0    12.011   -2.946106   -2.397673    1.584424
  21 H     1.0000    0     1.008   -4.276893    1.311299    1.288136
  22 C     6.0000    0    12.011   -3.304644   -5.220156    1.733452
  23 C     6.0000    0    12.011   -1.602960   -6.627737   -0.161676
  24 H     1.0000    0     1.008   -5.275312   -5.777029    1.458737
  25 H     1.0000    0     1.008   -2.775418   -5.826725    3.653933
  26 C     6.0000    0    12.011    1.173890   -5.805720    0.001916
  27 H     1.0000    0     1.008   -2.315957   -6.304039   -2.081748
  28 H     1.0000    0     1.008   -1.743054   -8.667088    0.182122
  29 C     6.0000    0    12.011    1.466545   -2.931178   -0.259230
  30 H     1.0000    0     1.008    2.254722   -6.809719   -1.448232
  31 H     1.0000    0     1.008    1.951284   -6.379535    1.843456
  32 C     6.0000    0    12.011   -0.217204   -1.683017    1.818923
  33 H     1.0000    0     1.008    0.457656   -2.525759    3.608337
  34 C     6.0000    0    12.011    0.598422    1.081082    1.823993
  35 H     1.0000    0     1.008  -16.710061    0.819259   -0.943150
  36 C     6.0000    0    12.011    3.471592    0.949887    1.282148
  37 H     1.0000    0     1.008    0.161402    2.019015    3.616056
  38 H     1.0000    0     1.008   -0.372380    2.135872    0.330065
  39 C     6.0000    0    12.011    4.080242   -1.824950    0.500299
  40 H     1.0000    0     1.008    4.587557    1.506381    2.932291
  41 H     1.0000    0     1.008    3.983456    2.252618   -0.246326
  42 H     1.0000    0     1.008    4.691551   -2.869187    2.195150
  43 C     6.0000    0    12.011    6.286923   -1.971435   -1.414658
  44 C     6.0000    0    12.011    0.686859   -2.037256   -2.905081
  45 H     1.0000    0     1.008   -1.337050   -2.313058   -3.227398
  46 H     1.0000    0     1.008    1.714387   -3.087171   -4.363787
  47 H     1.0000    0     1.008    1.086242   -0.026475   -3.180293
  48 H     1.0000    0     1.008    5.715174   -0.862025   -3.083441
  49 C     6.0000    0    12.011    6.878585   -4.661947   -2.280415
  50 C     6.0000    0    12.011    8.556080   -0.654573   -0.288899
  51 C     6.0000    0    12.011   10.715307   -1.730326    0.441563
  52 H     1.0000    0     1.008    8.353242    1.379358   -0.009196
  53 H     1.0000    0     1.008   10.991219   -3.756406    0.180244
  54 C     6.0000    0    12.011   12.876643   -0.329113    1.646903
  55 C     6.0000    0    12.011   15.349947   -0.921340    0.251082
  56 C     6.0000    0    12.011   13.007780   -0.860841    4.532089
  57 H     1.0000    0     1.008   12.494730    1.705754    1.451999
  58 H     1.0000    0     1.008   11.116436   -0.403372    5.266936
  59 C     6.0000    0    12.011   14.905090    0.875768    5.856297
  60 C     6.0000    0    12.011   13.553550   -3.628036    5.173819
  61 H     1.0000    0     1.008   15.193462   -0.368854   -1.737071
  62 H     1.0000    0     1.008   15.773449   -2.947499    0.304175
  63 H     1.0000    0     1.008   16.958001    0.092907    1.066153
  64 H     1.0000    0     1.008   14.749789    0.682612    7.912124
  65 H     1.0000    0     1.008   14.573796    2.862358    5.372029
  66 H     1.0000    0     1.008   16.853544    0.404581    5.336457
  67 H     1.0000    0     1.008   15.448684   -4.184558    4.549855
  68 H     1.0000    0     1.008   12.185460   -4.910344    4.298664
  69 H     1.0000    0     1.008   13.466435   -3.915577    7.222398
  70 H     1.0000    0     1.008    8.600455   -4.694875   -3.428565
  71 H     1.0000    0     1.008    5.344508   -5.425958   -3.429140
  72 H     1.0000    0     1.008    7.159228   -5.929597   -0.665738

--------------------------------
INTERNAL COORDINATES (ANGSTROEM)
--------------------------------
 C      0   0   0     0.000000000000     0.00000000     0.00000000
 C      1   0   0     1.510608272752     0.00000000     0.00000000
 C      2   1   0     1.533496869105   111.78470434     0.00000000
 H      2   1   3     1.103412133330   109.36543402   241.46135576
 H      2   1   3     1.095514659565   110.67021595   122.92096160
 C      1   2   3     1.478419849254   114.23313344    50.27179211
 C      6   1   2     1.511933400111   114.44511507   312.17202824
 C      3   2   1     1.524358093015   110.34407100   305.13628712
 H      7   6   1     1.100660890203   108.37116668   290.04605499
 H      7   6   1     1.095065635327   110.21456008   172.84137804
 H      8   3   2     1.096309832844   109.71284162   179.20184155
 H      8   3   2     1.100539997587   108.66908447   296.67744760
 O      3   2   1     1.433605497528   111.20546370   180.40871108
 H      3   2   1     1.099076110770   108.99565981    65.22627620
 C      1   2   3     1.354092667073   120.84864347   232.42190513
 C      6   1   2     1.337940704919   123.35355984   129.92278403
 H     16   6   1     1.086448549695   121.40523992     0.68040161
 H     16   6   1     1.087427282497   120.95281781   181.35040713
 C     15   1   2     1.444593035424   126.48166979   175.19931908
 H     15   1   2     1.089123730748   116.14788563   357.91749647
 C     19  15   1     1.350519254708   126.38024428   175.81237996
 H     19  15   1     1.087593343227   115.90682742   355.09686584
 C     21  19  15     1.507659977063   125.66515008   357.08427032
 C     23  21  19     1.539944267032   111.80984809   127.85246883
 H     23  21  19     1.093376515169   112.33835040     3.70934719
 H     23  21  19     1.101941466798   107.74783849   246.53150184
 C     24  23  21     1.534921443535   112.70622527    50.76721954
 H     24  23  21     1.097302626474   109.05291639   288.68180916
 H     24  23  21     1.096913542022   109.16811267   172.70196113
 C     27  24  23     1.535237577457   111.85692412   306.17384975
 H     27  24  23     1.094660030467   108.85168615   182.62713182
 H     27  24  23     1.100494537210   109.24534285    66.17197847
 C     21  19  15     1.497920379475   122.79598304   177.62867752
 H     33  21  19     1.105923846724   106.28595921   124.09159240
 C     33  21  19     1.525051096268   121.00636167     1.89850752
 H     13   3   2     0.966584184924   107.55178023    62.71798346
 C     35  33  21     1.548773743590   103.56290973   196.48920420
 H     35  33  21     1.095050744306   112.11546473    74.56325099
 H     35  33  21     1.095647327450   110.77173829   314.91858648
 C     30  27  24     1.554739920052   116.07400990   166.11843221
 H     37  35  33     1.094519138723   111.70970747   248.88142552
 H     37  35  33     1.096731205984   110.53711822   130.33385445
 H     40  30  27     1.101991428511   106.42380528   320.49442783
 C     40  30  27     1.548054670160   118.87952105    80.71657146
 C     30  27  24     1.534389176359   111.12942030   294.26132100
 H     45  30  27     1.094279285350   111.36378624    66.37175150
 H     45  30  27     1.095532067654   110.67923866   306.27227398
 H     45  30  27     1.094576981836   111.66560802   186.34403287
 H     44  40  30     1.102737600186   106.89314567    62.18198863
 C     44  40  30     1.528071807321   113.42004860   303.03372117
 C     44  40  30     1.510755434003   108.56200901   177.00395147
 C     51  44  40     1.333808362920   126.74844792   112.23217019
 H     51  44  40     1.091728533801   115.47150758   294.07917324
 H     52  51  44     1.090851346384   119.82835429     2.30017740
 C     52  51  44     1.504913010193   124.30496405   182.49484115
 C     55  52  51     1.535186651857   110.08569629   231.35631479
 C     55  52  51     1.554037086019   111.16943043   104.79612863
 H     55  52  51     1.100450478086   107.62750747   348.99546733
 H     57  55  52     1.100696356873   105.46593807   306.07778156
 C     57  55  52     1.530879744550   111.73428832   189.44256098
 C     57  55  52     1.530690023608   113.55323236    63.73840833
 H     56  55  52     1.095087113850   110.07660871    59.25049703
 H     56  55  52     1.095728614705   111.21010301   300.17322448
 H     56  55  52     1.094626488625   111.90559644   179.15921063
 H     60  57  55     1.095774151675   110.44232849   170.96032021
 H     60  57  55     1.096152150054   111.33387913    50.94333146
 H     60  57  55     1.095885520383   111.44291312   290.21613874
 H     61  57  55     1.096122603046   111.27367383    65.70700600
 H     61  57  55     1.095010942965   111.97829178   304.57344902
 H     61  57  55     1.095658245635   110.14652408   184.71142168
 H     50  44  40     1.095303510122   110.58418775   187.50386355
 H     50  44  40     1.091782782774   111.07624030    67.99618430
 H     50  44  40     1.096416405506   111.35584592   307.65355908

---------------------------
INTERNAL COORDINATES (A.U.)
---------------------------
 C      0   0   0     0.000000000000     0.00000000     0.00000000
 C      1   0   0     2.854635931136     0.00000000     0.00000000
 C      2   1   0     2.897889109835   111.78470434     0.00000000
 H      2   1   3     2.085146744839   109.36543402   241.46135576
 H      2   1   3     2.070222682275   110.67021595   122.92096160
 C      1   2   3     2.793808626043   114.23313344    50.27179211
 C      6   1   2     2.857140058938   114.44511507   312.17202824
 C      3   2   1     2.880619325825   110.34407100   305.13628712
 H      7   6   1     2.079947648802   108.37116668   290.04605499
 H      7   6   1     2.069374149437   110.21456008   172.84137804
 H      8   3   2     2.071725341999   109.71284162   179.20184155
 H      8   3   2     2.079719194867   108.66908447   296.67744760
 O      3   2   1     2.709121774412   111.20546370   180.40871108
 H      3   2   1     2.076952849691   108.99565981    65.22627620
 C      1   2   3     2.558864300718   120.84864347   232.42190513
 C      6   1   2     2.528341515723   123.35355984   129.92278403
 H     16   6   1     2.053090217520   121.40523992     0.68040161
 H     16   6   1     2.054939754473   120.95281781   181.35040713
 C     15   1   2     2.729885211921   126.48166979   175.19931908
 H     15   1   2     2.058145577068   116.14788563   357.91749647
 C     19  15   1     2.552111529986   126.38024428   175.81237996
 H     19  15   1     2.055253563776   115.90682742   355.09686584
 C     21  19  15     2.849064459723   125.66515008   357.08427032
 C     23  21  19     2.910072926192   111.80984809   127.85246883
 H     23  21  19     2.066182174931   112.33835040     3.70934719
 H     23  21  19     2.082367587859   107.74783849   246.53150184
 C     24  23  21     2.900581165364   112.70622527    50.76721954
 H     24  23  21     2.073601450069   109.05291639   288.68180916
 H     24  23  21     2.072866187012   109.16811267   172.70196113
 C     27  24  23     2.901178571898   111.85692412   306.17384975
 H     27  24  23     2.068607667332   108.85168615   182.62713182
 H     27  24  23     2.079633287203   109.24534285    66.17197847
 C     21  19  15     2.830659287628   122.79598304   177.62867752
 H     33  21  19     2.089893195281   106.28595921   124.09159240
 C     33  21  19     2.881928912183   121.00636167     1.89850752
 H     13   3   2     1.826579394886   107.55178023    62.71798346
 C     35  33  21     2.926758218792   103.56290973   196.48920420
 H     35  33  21     2.069346009485   112.11546473    74.56325099
 H     35  33  21     2.070473388244   110.77173829   314.91858648
 C     30  27  24     2.938032658372   116.07400990   166.11843221
 H     37  35  33     2.068341420521   111.70970747   248.88142552
 H     37  35  33     2.072521621834   110.53711822   130.33385445
 H     40  30  27     2.082462001815   106.42380528   320.49442783
 C     40  30  27     2.925399366940   118.87952105    80.71657146
 C     30  27  24     2.899575326172   111.12942030   294.26132100
 H     45  30  27     2.067888163335   111.36378624    66.37175150
 H     45  30  27     2.070255578795   110.67923866   306.27227398
 H     45  30  27     2.068450728164   111.66560802   186.34403287
 H     44  40  30     2.083872061928   106.89314567    62.18198863
 C     44  40  30     2.887637228802   113.42004860   303.03372117
 C     44  40  30     2.854914025599   108.56200901   177.00395147
 C     51  44  40     2.520532521052   126.74844792   112.23217019
 H     51  44  40     2.063067941472   115.47150758   294.07917324
 H     52  51  44     2.061410297485   119.82835429     2.30017740
 C     52  51  44     2.843873444640   124.30496405   182.49484115
 C     55  52  51     2.901082336461   110.08569629   231.35631479
 C     55  52  51     2.936704494534   111.16943043   104.79612863
 H     55  52  51     2.079550027525   107.62750747   348.99546733
 H     57  55  52     2.080014671095   105.46593807   306.07778156
 C     57  55  52     2.892943461167   111.73428832   189.44256098
 C     57  55  52     2.892584940544   113.55323236    63.73840833
 H     56  55  52     2.069414737963   110.07660871    59.25049703
 H     56  55  52     2.070626998893   111.21010301   300.17322448
 H     56  55  52     2.068544282437   111.90559644   179.15921063
 H     60  57  55     2.070713051296   110.44232849   170.96032021
 H     60  57  55     2.071427364712   111.33387913    50.94333146
 H     60  57  55     2.070923507653   111.44291312   290.21613874
 H     61  57  55     2.071371528959   111.27367383    65.70700600
 H     61  57  55     2.069270795850   111.97829178   304.57344902
 H     61  57  55     2.070494020623   110.14652408   184.71142168
 H     50  44  40     2.069823667653   110.58418775   187.50386355
 H     50  44  40     2.063170457172   111.07624030    67.99618430
 H     50  44  40     2.071926735144   111.35584592   307.65355908

---------------------
BASIS SET INFORMATION
---------------------
There are 3 groups of distinct atoms

 Group   1 Type C   : 7s4p contracted to 4s3p pattern {4111/211}
 Group   2 Type H   : 5s contracted to 3s pattern {311}
 Group   3 Type O   : 7s4p contracted to 4s3p pattern {4111/211}

Atom   0C    basis set group =>   1
Atom   1C    basis set group =>   1
Atom   2C    basis set group =>   1
Atom   3H    basis set group =>   2
Atom   4H    basis set group =>   2
Atom   5C    basis set group =>   1
Atom   6C    basis set group =>   1
Atom   7C    basis set group =>   1
Atom   8H    basis set group =>   2
Atom   9H    basis set group =>   2
Atom  10H    basis set group =>   2
Atom  11H    basis set group =>   2
Atom  12O    basis set group =>   3
Atom  13H    basis set group =>   2
Atom  14C    basis set group =>   1
Atom  15C    basis set group =>   1
Atom  16H    basis set group =>   2
Atom  17H    basis set group =>   2
Atom  18C    basis set group =>   1
Atom  19H    basis set group =>   2
Atom  20C    basis set group =>   1
Atom  21H    basis set group =>   2
Atom  22C    basis set group =>   1
Atom  23C    basis set group =>   1
Atom  24H    basis set group =>   2
Atom  25H    basis set group =>   2
Atom  26C    basis set group =>   1
Atom  27H    basis set group =>   2
Atom  28H    basis set group =>   2
Atom  29C    basis set group =>   1
Atom  30H    basis set group =>   2
Atom  31H    basis set group =>   2
Atom  32C    basis set group =>   1
Atom  33H    basis set group =>   2
Atom  34C    basis set group =>   1
Atom  35H    basis set group =>   2
Atom  36C    basis set group =>   1
Atom  37H    basis set group =>   2
Atom  38H    basis set group =>   2
Atom  39C    basis set group =>   1
Atom  40H    basis set group =>   2
Atom  41H    basis set group =>   2
Atom  42H    basis set group =>   2
Atom  43C    basis set group =>   1
Atom  44C    basis set group =>   1
Atom  45H    basis set group =>   2
Atom  46H    basis set group =>   2
Atom  47H    basis set group =>   2
Atom  48H    basis set group =>   2
Atom  49C    basis set group =>   1
Atom  50C    basis set group =>   1
Atom  51C    basis set group =>   1
Atom  52H    basis set group =>   2
Atom  53H    basis set group =>   2
Atom  54C    basis set group =>   1
Atom  55C    basis set group =>   1
Atom  56C    basis set group =>   1
Atom  57H    basis set group =>   2
Atom  58H    basis set group =>   2
Atom  59C    basis set group =>   1
Atom  60C    basis set group =>   1
Atom  61H    basis set group =>   2
Atom  62H    basis set group =>   2
Atom  63H    basis set group =>   2
Atom  64H    basis set group =>   2
Atom  65H    basis set group =>   2
Atom  66H    basis set group =>   2
Atom  67H    basis set group =>   2
Atom  68H    basis set group =>   2
Atom  69H    basis set group =>   2
Atom  70H    basis set group =>   2
Atom  71H    basis set group =>   2
Atom  72H    basis set group =>   2

-------------------------
BASIS SET IN INPUT FORMAT
-------------------------

 # Basis set for element : H 
 NewGTO H 
 S 3 
   1    1357.7500000000      0.0012928364
   2      54.3100000000      0.0588280685
   3       4.3448000000      0.9761499708
 S 1 
   1       0.6604910000      1.0000000000
 S 1 
   1       0.1366870000      1.0000000000
  end;

 # Basis set for element : C 
 NewGTO C 
 S 4 
   1  139534.0000000000      0.0001655246
   2    5581.3600000000      0.0074486101
   3     446.5090000000      0.1285821065
   4      67.4620000000      0.9218029311
 S 1 
   1      15.0674000000      1.0000000000
 S 1 
   1       3.9387600000      1.0000000000
 S 1 
   1       0.2999150000      1.0000000000
 P 2 
   1      28.3900000000      0.0816325586
   2       4.3676900000      0.9660360576
 P 1 
   1       0.8698170000      1.0000000000
 P 1 
   1       0.1889340000      1.0000000000
  end;

 # Basis set for element : O 
 NewGTO O 
 S 4 
   1  253789.0000000000      0.0001641076
   2   10151.6000000000      0.0074010921
   3     812.1250000000      0.1277711901
   4     122.6930000000      0.9223372164
 S 1 
   1      27.5608000000      1.0000000000
 S 1 
   1       7.3172600000      1.0000000000
 S 1 
   1       0.5792400000      1.0000000000
 P 2 
   1      53.4157000000      0.0793786106
   2       8.2177900000      0.9670506337
 P 1 
   1       1.6754400000      1.0000000000
 P 1 
   1       0.3506720000      1.0000000000
  end;

---------------------------------
AUXILIARY/J BASIS SET INFORMATION
---------------------------------
There are 3 groups of distinct atoms

 Group   1 Type C   : 12s5p4d2f1g contracted to 6s4p3d1f1g pattern {711111/2111/211/2/1}
 Group   2 Type H   : 5s2p1d contracted to 3s1p1d pattern {311/2/1}
 Group   3 Type O   : 12s5p4d2f1g contracted to 6s4p3d1f1g pattern {711111/2111/211/2/1}

Atom   0C    basis set group =>   1
Atom   1C    basis set group =>   1
Atom   2C    basis set group =>   1
Atom   3H    basis set group =>   2
Atom   4H    basis set group =>   2
Atom   5C    basis set group =>   1
Atom   6C    basis set group =>   1
Atom   7C    basis set group =>   1
Atom   8H    basis set group =>   2
Atom   9H    basis set group =>   2
Atom  10H    basis set group =>   2
Atom  11H    basis set group =>   2
Atom  12O    basis set group =>   3
Atom  13H    basis set group =>   2
Atom  14C    basis set group =>   1
Atom  15C    basis set group =>   1
Atom  16H    basis set group =>   2
Atom  17H    basis set group =>   2
Atom  18C    basis set group =>   1
Atom  19H    basis set group =>   2
Atom  20C    basis set group =>   1
Atom  21H    basis set group =>   2
Atom  22C    basis set group =>   1
Atom  23C    basis set group =>   1
Atom  24H    basis set group =>   2
Atom  25H    basis set group =>   2
Atom  26C    basis set group =>   1
Atom  27H    basis set group =>   2
Atom  28H    basis set group =>   2
Atom  29C    basis set group =>   1
Atom  30H    basis set group =>   2
Atom  31H    basis set group =>   2
Atom  32C    basis set group =>   1
Atom  33H    basis set group =>   2
Atom  34C    basis set group =>   1
Atom  35H    basis set group =>   2
Atom  36C    basis set group =>   1
Atom  37H    basis set group =>   2
Atom  38H    basis set group =>   2
Atom  39C    basis set group =>   1
Atom  40H    basis set group =>   2
Atom  41H    basis set group =>   2
Atom  42H    basis set group =>   2
Atom  43C    basis set group =>   1
Atom  44C    basis set group =>   1
Atom  45H    basis set group =>   2
Atom  46H    basis set group =>   2
Atom  47H    basis set group =>   2
Atom  48H    basis set group =>   2
Atom  49C    basis set group =>   1
Atom  50C    basis set group =>   1
Atom  51C    basis set group =>   1
Atom  52H    basis set group =>   2
Atom  53H    basis set group =>   2
Atom  54C    basis set group =>   1
Atom  55C    basis set group =>   1
Atom  56C    basis set group =>   1
Atom  57H    basis set group =>   2
Atom  58H    basis set group =>   2
Atom  59C    basis set group =>   1
Atom  60C    basis set group =>   1
Atom  61H    basis set group =>   2
Atom  62H    basis set group =>   2
Atom  63H    basis set group =>   2
Atom  64H    basis set group =>   2
Atom  65H    basis set group =>   2
Atom  66H    basis set group =>   2
Atom  67H    basis set group =>   2
Atom  68H    basis set group =>   2
Atom  69H    basis set group =>   2
Atom  70H    basis set group =>   2
Atom  71H    basis set group =>   2
Atom  72H    basis set group =>   2

-------------------------------------
AUXILIARY/J BASIS SET IN INPUT FORMAT
-------------------------------------

 # Auxiliary/J basis set for element : H 
 NewAuxJGTO H 
 S 3 
   1      15.6752927000      0.1007184237
   2       3.6063578000      0.3404257499
   3       1.2080016000      0.6491996172
 S 1 
   1       0.4726794000      1.0000000000
 S 1 
   1       0.2018100000      1.0000000000
 P 2 
   1       2.0281365000      0.5596620919
   2       0.5358730000      0.5596620919
 D 1 
   1       2.2165124000      1.0000000000
  end;

 # Auxiliary/J basis set for element : C 
 NewAuxJGTO C 
 S 7 
   1    1861.0916331000      0.0134602335
   2     642.9939764000      0.0299160374
   3     235.1105725000      0.1008649584
   4      90.7028894000      0.2370970548
   5      36.7794552000      0.3924037254
   6      15.6046273000      0.3195862154
   7       6.8907294000      0.0530104441
 S 1 
   1       3.1478850000     -1.0000000000
 S 1 
   1       1.4777287000      1.0000000000
 S 1 
   1       0.7076466000      1.0000000000
 S 1 
   1       0.3430122000      1.0000000000
 S 1 
   1       0.1669453000      1.0000000000
 P 2 
   1      13.5472892000     -0.6769313712
   2       5.4669419000     -0.3779500978
 P 1 
   1       2.1751721000      1.0000000000
 P 1 
   1       0.8582194000      1.0000000000
 P 1 
   1       0.3376720000      1.0000000000
 D 2 
   1       5.9287253000     -0.3533329857
   2       1.9809209000     -0.7456525731
 D 1 
   1       0.8055417000     -1.0000000000
 D 1 
   1       0.3531244000     -1.0000000000
 F 2 
   1       1.6755626000      0.6311076882
   2       0.5997536000      0.4968166032
 G 1 
   1       1.0024600000     -1.0000000000
  end;

 # Auxiliary/J basis set for element : O 
 NewAuxJGTO O 
 S 7 
   1    2876.8216605000      0.0168151159
   2    1004.7443032000      0.0340137548
   3     369.7579954000      0.1194951309
   4     142.9442404000      0.2664627624
   5      57.8366425000      0.4202764046
   6      24.3864983000      0.2765077335
   7      10.6622662000      0.0057008815
 S 1 
   1       4.8070437000     -1.0000000000
 S 1 
   1       2.2210770000      1.0000000000
 S 1 
   1       1.0447795000      1.0000000000
 S 1 
   1       0.4968425000      1.0000000000
 S 1 
   1       0.2371384000      1.0000000000
 P 2 
   1      64.2613382000     -0.2731534179
   2      16.3006076000     -0.8168011598
 P 1 
   1       4.3550542000      1.0000000000
 P 1 
   1       1.2019554000      1.0000000000
 P 1 
   1       0.3354196000      1.0000000000
 D 2 
   1       9.2146611000     -0.4661230638
   2       2.8435251000     -0.6600908911
 D 1 
   1       0.9955759000     -1.0000000000
 D 1 
   1       0.3649441000     -1.0000000000
 F 2 
   1       2.6420115000      0.5931563945
   2       0.7345613000      0.5931563945
 G 1 
   1       1.3931000000     -1.0000000000
  end;



           ************************************************************
           *        Program running with 4 parallel MPI-processes     *
           *              working on a common directory               *
           ************************************************************
------------------------------------------------------------------------------
                           ORCA GTO INTEGRAL CALCULATION
                           -- RI-GTO INTEGRALS CHOSEN --
------------------------------------------------------------------------------
------------------------------------------------------------------------------
                   ___                                                        
                  /   \      - P O W E R E D   B Y -                         
                 /     \                                                     
                 |  |  |   _    _      __       _____    __    __             
                 |  |  |  | |  | |    /  \     |  _  \  |  |  /  |          
                  \  \/   | |  | |   /    \    | | | |  |  | /  /          
                 / \  \   | |__| |  /  /\  \   | |_| |  |  |/  /          
                |  |  |   |  __  | /  /__\  \  |    /   |      \           
                |  |  |   | |  | | |   __   |  |    \   |  |\   \          
                \     /   | |  | | |  |  |  |  | |\  \  |  | \   \       
                 \___/    |_|  |_| |__|  |__|  |_| \__\ |__|  \__/        
                                                                              
                      - O R C A' S   B I G   F R I E N D -                    
                                      &                                       
                       - I N T E G R A L  F E E D E R -                       
                                                                              
 v1 FN, 2020, v2 2021                                                         
------------------------------------------------------------------------------


Reading SHARK input file inpJ.SHARKINP.tmp ... ok
----------------------
SHARK INTEGRAL PACKAGE
----------------------

Number of atoms                             ...     73
Number of basis functions                   ...    509
Number of shells                            ...    335
Maximum angular momentum                    ...      1
Integral batch strategy                     ... SHARK/LIBINT Hybrid
RI-J (if used) integral strategy            ... SPLIT-RIJ (Revised 2003 algorithm where possible)
Printlevel                                  ...      1
Contraction scheme used                     ... SEGMENTED contraction
Coulomb Range Separation                    ... NOT USED
Exchange Range Separation                   ... NOT USED
Finite Nucleus Model                        ... NOT USED
Auxiliary Coulomb fitting basis             ... AVAILABLE
   # of basis functions in Aux-J            ...   1905
   # of shells in Aux-J                     ...    655
   Maximum angular momentum in Aux-J        ...      4
Auxiliary J/K fitting basis                 ... NOT available
Auxiliary Correlation fitting basis         ... NOT available
Auxiliary 'external' fitting basis          ... NOT available
Integral threshold                          ...     3.000000e-11
Primitive cut-off                           ...     1.000000e-12
Primitive pair pre-selection threshold      ...     1.000000e-12

Calculating pre-screening integrals         ... done (  0.0 sec) Dimension = 335
Organizing shell pair data                  ... done (  0.1 sec)
Shell pair information
Total number of shell pairs                 ...     56280
Shell pairs after pre-screening             ...     21484
Total number of primitive shell pairs       ...    145865
Primitive shell pairs kept                  ...     36946
          la=0 lb=0:  10810 shell pairs
          la=1 lb=0:   8831 shell pairs
          la=1 lb=1:   1843 shell pairs

Calculating one electron integrals          ... done (  0.0 sec)
Calculating RI/J V-Matrix + Cholesky decomp.... done (  0.2 sec)
Calculating Nuclear repulsion               ... done (  0.0 sec) ENN=   2751.536397279427 Eh

SHARK setup successfully completed in   0.4 seconds

Maximum memory used throughout the entire GTOINT-calculation: 46.0 MB


           ************************************************************
           *        Program running with 4 parallel MPI-processes     *
           *              working on a common directory               *
           ************************************************************
-------------------------------------------------------------------------------
                                 ORCA SCF
-------------------------------------------------------------------------------

------------
SCF SETTINGS
------------
Hamiltonian:
 Density Functional     Method          .... DFT(GTOs)
 Exchange Functional    Exchange        .... PBE
   PBE kappa parameter   XKappa         ....  0.804000
   PBE mue parameter    XMuePBE         ....  0.219520
 Correlation Functional Correlation     .... PBE
   PBE beta parameter  CBetaPBE         ....  0.066725
 LDA part of GGA corr.  LDAOpt          .... PW91-LDA
 Gradients option       PostSCFGGA      .... off
 Hybrid DFT is turned on
   Fraction HF Exchange ScalHFX         ....  0.250000
   Scaling of DF-GGA-X  ScalDFX         ....  0.750000
   Scaling of DF-GGA-C  ScalDFC         ....  1.000000
   Scaling of DF-LDA-C  ScalLDAC        ....  1.000000
   Perturbative correction              ....  0.000000
   Density functional embedding theory  .... OFF
   NL short-range parameter             ....  6.900000
 RI-approximation to the Coulomb term is turned on
   Number of AuxJ basis functions       .... 1905
   RIJ-COSX (HFX calculated with COS-X)).... on


General Settings:
 Integral files         IntName         .... inpJ
 Hartree-Fock type      HFTyp           .... RHF
 Total Charge           Charge          ....    0
 Multiplicity           Mult            ....    1
 Number of Electrons    NEL             ....  220
 Basis Dimension        Dim             ....  509
 Nuclear Repulsion      ENuc            ....   2751.5363972794 Eh

Convergence Acceleration:
 DIIS                   CNVDIIS         .... on
   Start iteration      DIISMaxIt       ....    12
   Startup error        DIISStart       ....  0.200000
   # of expansion vecs  DIISMaxEq       ....     5
   Bias factor          DIISBfac        ....   1.050
   Max. coefficient     DIISMaxC        ....  10.000
 Trust-Rad. Augm. Hess. CNVTRAH         .... auto
   Auto Start mean grad. ratio tolernc. ....  1.125000
   Auto Start start iteration           ....    20
   Auto Start num. interpolation iter.  ....    10
   Max. Number of Micro iterations      ....    16
   Max. Number of Macro iterations      .... Maxiter - #DIIS iter
   Number of Davidson start vectors     ....     2
   Converg. threshold I  (grad. norm)   ....   1.000e-04
   Converg. threshold II (energy diff.) ....   1.000e-07
   Grad. Scal. Fac. for Micro threshold ....   0.100
   Minimum threshold for Micro iter.    ....   0.010
   NR start threshold (gradient norm)   ....   0.001
   Initial trust radius                 ....   0.400
   Minimum AH scaling param. (alpha)    ....   1.000
   Maximum AH scaling param. (alpha)    .... 1000.000
   Orbital update algorithm             .... Taylor
   White noise on init. David. guess    .... on
   Maximum white noise                  ....   0.010
   Quad. conv. algorithm                .... NR
 SOSCF                  CNVSOSCF        .... off
 Level Shifting         CNVShift        .... on
   Level shift para.    LevelShift      ....    0.2500
   Turn off err/grad.   ShiftErr        ....    0.0010
 Zerner damping         CNVZerner       .... off
 Static damping         CNVDamp         .... on
   Fraction old density DampFac         ....    0.7000
   Max. Damping (<1)    DampMax         ....    0.9800
   Min. Damping (>=0)   DampMin         ....    0.0000
   Turn off err/grad.   DampErr         ....    0.1000
 Fernandez-Rico         CNVRico         .... off

SCF Procedure:
 Maximum # iterations   MaxIter         ....   125
 SCF integral mode      SCFMode         .... Direct
   Integral package                     .... SHARK and LIBINT hybrid scheme
 Reset frequency        DirectResetFreq ....    20
 Integral Threshold     Thresh          ....  3.000e-11 Eh
 Primitive CutOff       TCut            ....  1.000e-12 Eh

Convergence Tolerance:
 Convergence Check Mode ConvCheckMode   .... Total+1el-Energy
 Convergence forced     ConvForced      .... 0
 Energy Change          TolE            ....  1.000e-07 Eh
 1-El. energy change                    ....  1.000e-04 Eh
 DIIS Error             TolErr          ....  1.000e-07


Diagonalization of the overlap matrix:
Smallest eigenvalue                        ... 7.558e-03
Time for diagonalization                   ...    0.028 sec
Threshold for overlap eigenvalues          ... 1.000e-08
Number of eigenvalues below threshold      ... 0
Time for construction of square roots      ...    0.025 sec
Total time needed                          ...    0.054 sec

Time for model grid setup =    0.718 sec

------------------------------
INITIAL GUESS: MODEL POTENTIAL
------------------------------
Loading Hartree-Fock densities                     ... done
Calculating cut-offs                               ... done
Initializing the effective Hamiltonian             ... done
Setting up the integral package (SHARK)            ... done
Starting the Coulomb interaction                   ... done (   0.4 sec)
Reading the grid                                   ... done
Mapping shells                                     ... done
Starting the XC term evaluation                    ... done (   0.1 sec)
  promolecular density results
     # of electrons  =    219.989635192
     EX              =   -164.433105426
     EC              =     -7.324238324
     EX+EC           =   -171.757343750
Transforming the Hamiltonian                       ... done (   0.0 sec)
Diagonalizing the Hamiltonian                      ... done (   0.0 sec)
Back transforming the eigenvectors                 ... done (   0.0 sec)
Now organizing SCF variables                       ... done
                      ------------------
                      INITIAL GUESS DONE (   1.3 sec)
                      ------------------
-------------------
DFT GRID GENERATION
-------------------

General Integration Accuracy     IntAcc      ... 4.388
Radial Grid Type                 RadialGrid  ... OptM3 with GC (2021)
Angular Grid (max. ang.)         AngularGrid ... 4 (Lebedev-302)
Angular grid pruning method      GridPruning ... 4 (adaptive)
Weight generation scheme         WeightScheme... Becke
Basis function cutoff            BFCut       ... 1.0000e-11
Integration weight cutoff        WCut        ... 1.0000e-14
Angular grids for H and He will be reduced by one unit
Partially contracted basis set               ... off
Rotationally invariant grid construction     ... off

Total number of grid points                  ...   309938
Total number of batches                      ...     4876
Average number of points per batch           ...       63
Average number of grid points per atom       ...     4246
Time for grid setup =    2.804 sec

--------------------
COSX GRID GENERATION
--------------------

GRIDX 1
-------
General Integration Accuracy     IntAcc      ... 3.816
Radial Grid Type                 RadialGrid  ... OptM3 with GC (2021)
Angular Grid (max. ang.)         AngularGrid ... 1 (Lebedev-50)
Angular grid pruning method      GridPruning ... 4 (adaptive)
Weight generation scheme         WeightScheme... Becke
Basis function cutoff            BFCut       ... 1.0000e-11
Integration weight cutoff        WCut        ... 1.0000e-14
Angular grids for H and He will be reduced by one unit
Partially contracted basis set               ... on
Rotationally invariant grid construction     ... off

Total number of grid points                  ...    39431
Total number of batches                      ...      658
Average number of points per batch           ...       59
Average number of grid points per atom       ...      540
UseSFitting                                  ... on

GRIDX 2
-------
General Integration Accuracy     IntAcc      ... 4.020
Radial Grid Type                 RadialGrid  ... OptM3 with GC (2021)
Angular Grid (max. ang.)         AngularGrid ... 2 (Lebedev-110)
Angular grid pruning method      GridPruning ... 4 (adaptive)
Weight generation scheme         WeightScheme... Becke
Basis function cutoff            BFCut       ... 1.0000e-11
Integration weight cutoff        WCut        ... 1.0000e-14
Angular grids for H and He will be reduced by one unit
Partially contracted basis set               ... on
Rotationally invariant grid construction     ... off

Total number of grid points                  ...    81479
Total number of batches                      ...     1310
Average number of points per batch           ...       62
Average number of grid points per atom       ...     1116
UseSFitting                                  ... on

GRIDX 3
-------
General Integration Accuracy     IntAcc      ... 4.338
Radial Grid Type                 RadialGrid  ... OptM3 with GC (2021)
Angular Grid (max. ang.)         AngularGrid ... 3 (Lebedev-194)
Angular grid pruning method      GridPruning ... 4 (adaptive)
Weight generation scheme         WeightScheme... Becke
Basis function cutoff            BFCut       ... 1.0000e-11
Integration weight cutoff        WCut        ... 1.0000e-14
Angular grids for H and He will be reduced by one unit
Partially contracted basis set               ... on
Rotationally invariant grid construction     ... off

Total number of grid points                  ...   176472
Total number of batches                      ...     2792
Average number of points per batch           ...       63
Average number of grid points per atom       ...     2417
UseSFitting                                  ... on

Time for X-Grid setup             =    2.829 sec


--------------------
CPCM SOLVATION MODEL
--------------------
CPCM parameters:
  Epsilon                                         ...       4.9000
  Refrac                                          ...       1.4500
  Rsolv                                           ...       1.3000
  Surface type                                    ... GAUSSIAN VDW
  Epsilon function type                           ...         CPCM
Radii:
 Radius for C  used is    3.8550 Bohr (=   2.0400 Ang.)
 Radius for H  used is    2.4944 Bohr (=   1.3200 Ang.)
 Radius for O  used is    3.4469 Bohr (=   1.8240 Ang.)
Calculating surface                               ...        done! (  0.0s)
GEPOL surface points                              ...         3627
GEPOL Volume                                      ...    3598.9395
GEPOL Surface-area                                ...    1790.9119
Calculating surface distance matrix               ...        done! (  0.1s)
Performing Cholesky decomposition & store         ...        done! (  0.5s)
Overall time for CPCM initialization              ...                 0.6s
--------------
SCF ITERATIONS
--------------
ITER       Energy         Delta-E        Max-DP      RMS-DP      [F,P]     Damp
               ***  Starting incremental Fock matrix formation  ***

  HOMO= 109 E= -3.889 eV LUMO=  7.785 eV gap=  11.675 eV
  0  -1165.0075211553   0.000000000000 0.09742321  0.00106126  0.1940013 0.7000

  HOMO= 109 E= -4.739 eV LUMO=  7.088 eV gap=  11.827 eV
  1  -1165.2261464372  -0.218625281876 0.06537654  0.00078166  0.0944863 0.7000
                               ***Turning on DIIS***

  HOMO= 109 E= -5.339 eV LUMO=  6.530 eV gap=  11.869 eV
  2  -1165.3270331718  -0.100886734599 0.10350336  0.00138627  0.0376729 0.0000

  HOMO= 109 E= -5.906 eV LUMO=  5.987 eV gap=  11.893 eV
  3  -1165.4713907401  -0.144357568295 0.05149677  0.00056972  0.0453630 0.0000

  HOMO= 109 E= -5.985 eV LUMO=  5.908 eV gap=  11.893 eV
  4  -1165.5068983711  -0.035507631065 0.01205405  0.00013540  0.0063171 0.0000

  HOMO= 109 E= -5.932 eV LUMO=  5.968 eV gap=  11.900 eV
  5  -1165.5077647094  -0.000866338271 0.00279405  0.00003830  0.0043402 0.0000

  HOMO= 109 E= -5.919 eV LUMO=  5.982 eV gap=  11.900 eV
  6  -1165.5078429059  -0.000078196502 0.00115425  0.00001166  0.0010397 0.0000

  HOMO= 109 E= -5.920 eV LUMO= -0.822 eV gap=   5.098 eV
  7  -1165.5078474933  -0.000004587398 0.00048907  0.00000594  0.0002223 0.0000
               *** Restarting incremental Fock matrix formation ***
                                   *** Resetting DIIS ***

  HOMO= 109 E= -5.920 eV LUMO= -0.821 eV gap=   5.098 eV
  8  -1165.5080014207  -0.000153927404 0.00040927  0.00000278  0.0001158 0.0000

  HOMO= 109 E= -5.920 eV LUMO= -0.821 eV gap=   5.099 eV
  9  -1165.5080014767  -0.000000056032 0.00014318  0.00000124  0.0001479 0.0000

  HOMO= 109 E= -5.920 eV LUMO= -0.821 eV gap=   5.099 eV
 10  -1165.5080015873  -0.000000110545 0.00006768  0.00000042  0.0000435 0.0000

  HOMO= 109 E= -5.920 eV LUMO= -0.821 eV gap=   5.099 eV
 11  -1165.5080016350  -0.000000047695 0.00002455  0.00000018  0.0000222 0.0000

  HOMO= 109 E= -5.920 eV LUMO= -0.821 eV gap=   5.099 eV
 12  -1165.5080016142   0.000000020767 0.00000749  0.00000005  0.0000040 0.0000
                 **** Energy Check signals convergence ****

               *****************************************************
               *                     SUCCESS                       *
               *           SCF CONVERGED AFTER  13 CYCLES          *
               *****************************************************

Old exchange energy                            =    -42.067756864 Eh
New exchange energy                            =    -42.067860594 Eh
Exchange energy change after final integration =     -0.000103730 Eh
Total energy after final integration           =  -1165.508105352 Eh
Final COS-X integration done in                =    13.076 sec

----------------
TOTAL SCF ENERGY
----------------

Total Energy       :        -1165.50810535 Eh          -31715.08791 eV

Components:
Nuclear Repulsion  :         2751.53639728 Eh           74873.11185 eV
Electronic Energy  :        -3917.04450263 Eh         -106588.19976 eV
One Electron Energy:        -7045.04186856 Eh         -191705.33535 eV
Two Electron Energy:         3127.99736593 Eh           85117.13560 eV
Max COSX asymmetry :            0.00000306 Eh               0.00008 eV
CPCM Dielectric    :           -0.01544878 Eh              -0.42038 eV

Virial components:
Potential Energy   :        -2322.41291381 Eh          -63196.06821 eV
Kinetic Energy     :         1156.90480845 Eh           31480.98030 eV
Virial Ratio       :            2.00743648


DFT components:
N(Alpha)           :      110.000202134659 electrons
N(Beta)            :      110.000202134659 electrons
N(Total)           :      220.000404269317 electrons
E(X)               :     -125.746711317714 Eh       
E(C)               :       -7.326014741396 Eh       
E(XC)              :     -133.072726059110 Eh       
DFET-embed. en.    :        0.000000000000 Eh       
CPCM Solvation Model Properties:
Surface-charge          :           -0.03463463
Charge-correction       :           -0.00005103 Eh              -0.00139 eV
Free-energy (cav+disp)  :  This term is not implemented in the current solvation scheme

---------------
SCF CONVERGENCE
---------------

  Last Energy change         ...   -7.9767e-09  Tolerance :   1.0000e-07
  Last MAX-Density change    ...    0.0000e+00  Tolerance :   1.0000e-05
  Last RMS-Density change    ...    0.0000e+00  Tolerance :   1.0000e-06
  Last DIIS Error            ...    2.7578e-06  Tolerance :   1.0000e-07

             **** THE GBW FILE WAS UPDATED (inpJ.gbw) ****
             **** DENSITY inpJ.scfp WAS UPDATED ****
             **** ENERGY FILE WAS UPDATED (inpJ.en.tmp) ****
             **** THE GBW FILE WAS UPDATED (inpJ.gbw) ****
             **** DENSITY inpJ.scfp WAS UPDATED ****
----------------
ORBITAL ENERGIES
----------------

  NO   OCC          E(Eh)            E(eV) 
   0   2.0000     -19.215089      -522.8692 
   1   2.0000     -10.301386      -280.3150 
   2   2.0000     -10.269518      -279.4478 
   3   2.0000     -10.266765      -279.3729 
   4   2.0000     -10.261916      -279.2409 
   5   2.0000     -10.256612      -279.0966 
   6   2.0000     -10.253383      -279.0087 
   7   2.0000     -10.251988      -278.9708 
   8   2.0000     -10.249258      -278.8965 
   9   2.0000     -10.248852      -278.8854 
  10   2.0000     -10.248157      -278.8665 
  11   2.0000     -10.246623      -278.8248 
  12   2.0000     -10.246105      -278.8107 
  13   2.0000     -10.245672      -278.7989 
  14   2.0000     -10.243977      -278.7528 
  15   2.0000     -10.243908      -278.7509 
  16   2.0000     -10.243208      -278.7319 
  17   2.0000     -10.241908      -278.6965 
  18   2.0000     -10.241441      -278.6838 
  19   2.0000     -10.241102      -278.6746 
  20   2.0000     -10.239100      -278.6201 
  21   2.0000     -10.235349      -278.5180 
  22   2.0000     -10.234784      -278.5026 
  23   2.0000     -10.233567      -278.4695 
  24   2.0000     -10.225004      -278.2365 
  25   2.0000     -10.224447      -278.2214 
  26   2.0000     -10.224138      -278.2130 
  27   2.0000     -10.223561      -278.1972 
  28   2.0000     -10.220682      -278.1189 
  29   2.0000      -1.045838       -28.4587 
  30   2.0000      -0.901189       -24.5226 
  31   2.0000      -0.883697       -24.0466 
  32   2.0000      -0.859191       -23.3798 
  33   2.0000      -0.845656       -23.0115 
  34   2.0000      -0.822336       -22.3769 
  35   2.0000      -0.814334       -22.1592 
  36   2.0000      -0.795150       -21.6371 
  37   2.0000      -0.794798       -21.6276 
  38   2.0000      -0.776111       -21.1191 
  39   2.0000      -0.758006       -20.6264 
  40   2.0000      -0.740517       -20.1505 
  41   2.0000      -0.731928       -19.9168 
  42   2.0000      -0.714289       -19.4368 
  43   2.0000      -0.703024       -19.1303 
  44   2.0000      -0.699322       -19.0295 
  45   2.0000      -0.694065       -18.8865 
  46   2.0000      -0.669294       -18.2124 
  47   2.0000      -0.663303       -18.0494 
  48   2.0000      -0.635556       -17.2944 
  49   2.0000      -0.622062       -16.9272 
  50   2.0000      -0.619497       -16.8574 
  51   2.0000      -0.608998       -16.5717 
  52   2.0000      -0.597706       -16.2644 
  53   2.0000      -0.573262       -15.5992 
  54   2.0000      -0.557977       -15.1833 
  55   2.0000      -0.546597       -14.8737 
  56   2.0000      -0.541014       -14.7217 
  57   2.0000      -0.529828       -14.4174 
  58   2.0000      -0.515112       -14.0169 
  59   2.0000      -0.508869       -13.8470 
  60   2.0000      -0.500040       -13.6068 
  61   2.0000      -0.491947       -13.3866 
  62   2.0000      -0.480749       -13.0818 
  63   2.0000      -0.479570       -13.0498 
  64   2.0000      -0.476002       -12.9527 
  65   2.0000      -0.472739       -12.8639 
  66   2.0000      -0.464600       -12.6424 
  67   2.0000      -0.459101       -12.4928 
  68   2.0000      -0.456977       -12.4350 
  69   2.0000      -0.454760       -12.3746 
  70   2.0000      -0.448547       -12.2056 
  71   2.0000      -0.441836       -12.0230 
  72   2.0000      -0.433057       -11.7841 
  73   2.0000      -0.432519       -11.7694 
  74   2.0000      -0.430449       -11.7131 
  75   2.0000      -0.416335       -11.3291 
  76   2.0000      -0.414323       -11.2743 
  77   2.0000      -0.413468       -11.2510 
  78   2.0000      -0.408769       -11.1232 
  79   2.0000      -0.402389       -10.9496 
  80   2.0000      -0.401050       -10.9131 
  81   2.0000      -0.399046       -10.8586 
  82   2.0000      -0.397516       -10.8170 
  83   2.0000      -0.388388       -10.5686 
  84   2.0000      -0.386782       -10.5249 
  85   2.0000      -0.382982       -10.4215 
  86   2.0000      -0.378973       -10.3124 
  87   2.0000      -0.372275       -10.1301 
  88   2.0000      -0.367927       -10.0118 
  89   2.0000      -0.366940        -9.9849 
  90   2.0000      -0.362737        -9.8706 
  91   2.0000      -0.359785        -9.7902 
  92   2.0000      -0.354622        -9.6498 
  93   2.0000      -0.345015        -9.3883 
  94   2.0000      -0.341108        -9.2820 
  95   2.0000      -0.339687        -9.2434 
  96   2.0000      -0.334439        -9.1005 
  97   2.0000      -0.330506        -8.9935 
  98   2.0000      -0.329051        -8.9539 
  99   2.0000      -0.326931        -8.8962 
 100   2.0000      -0.325882        -8.8677 
 101   2.0000      -0.325526        -8.8580 
 102   2.0000      -0.320349        -8.7172 
 103   2.0000      -0.316182        -8.6037 
 104   2.0000      -0.311767        -8.4836 
 105   2.0000      -0.300792        -8.1850 
 106   2.0000      -0.280076        -7.6213 
 107   2.0000      -0.274810        -7.4780 
 108   2.0000      -0.256027        -6.9668 
 109   2.0000      -0.217548        -5.9198 
 110   0.0000      -0.030177        -0.8211 
 111   0.0000       0.021175         0.5762 
 112   0.0000       0.027775         0.7558 
 113   0.0000       0.082187         2.2364 
 114   0.0000       0.093116         2.5338 
 115   0.0000       0.098136         2.6704 
 116   0.0000       0.102049         2.7769 
 117   0.0000       0.105798         2.8789 
 118   0.0000       0.108575         2.9545 
 119   0.0000       0.117035         3.1847 
 120   0.0000       0.118560         3.2262 
 121   0.0000       0.123244         3.3536 
 122   0.0000       0.124573         3.3898 
 123   0.0000       0.130236         3.5439 
 124   0.0000       0.137257         3.7350 
 125   0.0000       0.138317         3.7638 
 126   0.0000       0.139764         3.8032 
 127   0.0000       0.142781         3.8853 
 128   0.0000       0.149409         4.0656 
 129   0.0000       0.153540         4.1780 
 130   0.0000       0.154653         4.2083 
 131   0.0000       0.157435         4.2840 
 132   0.0000       0.159570         4.3421 
 133   0.0000       0.162126         4.4117 
 134   0.0000       0.165946         4.5156 
 135   0.0000       0.166568         4.5325 
 136   0.0000       0.169539         4.6134 
 137   0.0000       0.174506         4.7486 
 138   0.0000       0.176706         4.8084 
 139   0.0000       0.178344         4.8530 
 140   0.0000       0.183088         4.9821 
 141   0.0000       0.184038         5.0079 
 142   0.0000       0.187066         5.0903 
 143   0.0000       0.189141         5.1468 
 144   0.0000       0.193234         5.2582 
 145   0.0000       0.194897         5.3034 
 146   0.0000       0.200561         5.4575 
 147   0.0000       0.202376         5.5069 
 148   0.0000       0.203486         5.5371 
 149   0.0000       0.207908         5.6575 
 150   0.0000       0.215282         5.8581 
 151   0.0000       0.218741         5.9523 
 152   0.0000       0.225250         6.1294 
 153   0.0000       0.228370         6.2143 
 154   0.0000       0.231393         6.2965 
 155   0.0000       0.234759         6.3881 
 156   0.0000       0.239794         6.5251 
 157   0.0000       0.244584         6.6555 
 158   0.0000       0.246814         6.7161 
 159   0.0000       0.250149         6.8069 
 160   0.0000       0.253044         6.8857 
 161   0.0000       0.259120         7.0510 
 162   0.0000       0.262024         7.1300 
 163   0.0000       0.266026         7.2389 
 164   0.0000       0.268336         7.3018 
 165   0.0000       0.274760         7.4766 
 166   0.0000       0.275841         7.5060 
 167   0.0000       0.282305         7.6819 
 168   0.0000       0.287016         7.8101 
 169   0.0000       0.292906         7.9704 
 170   0.0000       0.295861         8.0508 
 171   0.0000       0.302707         8.2371 
 172   0.0000       0.305046         8.3007 
 173   0.0000       0.310469         8.4483 
 174   0.0000       0.316891         8.6230 
 175   0.0000       0.319670         8.6986 
 176   0.0000       0.327777         8.9193 
 177   0.0000       0.335859         9.1392 
 178   0.0000       0.352525         9.5927 
 179   0.0000       0.357528         9.7288 
 180   0.0000       0.366554         9.9744 
 181   0.0000       0.379084        10.3154 
 182   0.0000       0.381259        10.3746 
 183   0.0000       0.409180        11.1344 
 184   0.0000       0.419797        11.4233 
 185   0.0000       0.463200        12.6043 
 186   0.0000       0.467450        12.7200 
 187   0.0000       0.490889        13.3578 
 188   0.0000       0.503821        13.7097 
 189   0.0000       0.518422        14.1070 
 190   0.0000       0.521681        14.1957 
 191   0.0000       0.524614        14.2755 
 192   0.0000       0.542142        14.7524 
 193   0.0000       0.543902        14.8003 
 194   0.0000       0.560372        15.2485 
 195   0.0000       0.575291        15.6545 
 196   0.0000       0.577753        15.7214 
 197   0.0000       0.582790        15.8585 
 198   0.0000       0.586625        15.9629 
 199   0.0000       0.604256        16.4426 
 200   0.0000       0.612052        16.6548 
 201   0.0000       0.625094        17.0097 
 202   0.0000       0.626556        17.0494 
 203   0.0000       0.639726        17.4078 
 204   0.0000       0.641122        17.4458 
 205   0.0000       0.642677        17.4881 
 206   0.0000       0.650254        17.6943 
 207   0.0000       0.659493        17.9457 
 208   0.0000       0.664983        18.0951 
 209   0.0000       0.667725        18.1697 
 210   0.0000       0.675582        18.3835 
 211   0.0000       0.688229        18.7277 
 212   0.0000       0.692144        18.8342 
 213   0.0000       0.696795        18.9608 
 214   0.0000       0.701622        19.0921 
 215   0.0000       0.711059        19.3489 
 216   0.0000       0.712483        19.3876 
 217   0.0000       0.718105        19.5406 
 218   0.0000       0.726066        19.7572 
 219   0.0000       0.727234        19.7890 
 220   0.0000       0.728402        19.8208 
 221   0.0000       0.736582        20.0434 
 222   0.0000       0.737836        20.0775 
 223   0.0000       0.741006        20.1638 
 224   0.0000       0.747858        20.3502 
 225   0.0000       0.749161        20.3857 
 226   0.0000       0.751633        20.4530 
 227   0.0000       0.759555        20.6685 
 228   0.0000       0.764002        20.7895 
 229   0.0000       0.766328        20.8528 
 230   0.0000       0.770558        20.9680 
 231   0.0000       0.775770        21.1098 
 232   0.0000       0.778018        21.1710 
 233   0.0000       0.779903        21.2222 
 234   0.0000       0.790091        21.4995 
 235   0.0000       0.798528        21.7291 
 236   0.0000       0.804763        21.8987 
 237   0.0000       0.806365        21.9423 
 238   0.0000       0.817239        22.2382 
 239   0.0000       0.822845        22.3908 
 240   0.0000       0.824099        22.4249 
 241   0.0000       0.827462        22.5164 
 242   0.0000       0.838117        22.8063 
 243   0.0000       0.840247        22.8643 
 244   0.0000       0.854177        23.2433 
 245   0.0000       0.855887        23.2899 
 246   0.0000       0.858647        23.3650 
 247   0.0000       0.863988        23.5103 
 248   0.0000       0.867074        23.5943 
 249   0.0000       0.871779        23.7223 
 250   0.0000       0.873081        23.7577 
 251   0.0000       0.876247        23.8439 
 252   0.0000       0.877046        23.8656 
 253   0.0000       0.877860        23.8878 
 254   0.0000       0.879654        23.9366 
 255   0.0000       0.880957        23.9720 
 256   0.0000       0.881845        23.9962 
 257   0.0000       0.886492        24.1227 
 258   0.0000       0.888510        24.1776 
 259   0.0000       0.892124        24.2759 
 260   0.0000       0.898020        24.4364 
 261   0.0000       0.901052        24.5189 
 262   0.0000       0.906815        24.6757 
 263   0.0000       0.913386        24.8545 
 264   0.0000       0.917570        24.9683 
 265   0.0000       0.919351        25.0168 
 266   0.0000       0.926444        25.2098 
 267   0.0000       0.930013        25.3069 
 268   0.0000       0.933181        25.3931 
 269   0.0000       0.934870        25.4391 
 270   0.0000       0.937577        25.5128 
 271   0.0000       0.941746        25.6262 
 272   0.0000       0.942767        25.6540 
 273   0.0000       0.945896        25.7391 
 274   0.0000       0.951412        25.8892 
 275   0.0000       0.959246        26.1024 
 276   0.0000       0.963981        26.2312 
 277   0.0000       0.969593        26.3840 
 278   0.0000       0.972626        26.4665 
 279   0.0000       0.978066        26.6145 
 280   0.0000       0.985611        26.8198 
 281   0.0000       0.998210        27.1627 
 282   0.0000       1.000506        27.2251 
 283   0.0000       1.010921        27.5086 
 284   0.0000       1.018632        27.7184 
 285   0.0000       1.026758        27.9395 
 286   0.0000       1.028981        28.0000 
 287   0.0000       1.039150        28.2767 
 288   0.0000       1.050108        28.5749 
 289   0.0000       1.063546        28.9406 
 290   0.0000       1.067414        29.0458 
 291   0.0000       1.083295        29.4780 
 292   0.0000       1.084725        29.5169 
 293   0.0000       1.091372        29.6977 
 294   0.0000       1.099106        29.9082 
 295   0.0000       1.103861        30.0376 
 296   0.0000       1.119045        30.4508 
 297   0.0000       1.131228        30.7823 
 298   0.0000       1.140955        31.0470 
 299   0.0000       1.146314        31.1928 
 300   0.0000       1.159285        31.5457 
 301   0.0000       1.166715        31.7479 
 302   0.0000       1.176238        32.0071 
 303   0.0000       1.206482        32.8300 
 304   0.0000       1.240264        33.7493 
 305   0.0000       1.247229        33.9388 
 306   0.0000       1.262064        34.3425 
 307   0.0000       1.272257        34.6199 
 308   0.0000       1.287116        35.0242 
 309   0.0000       1.307282        35.5729 
 310   0.0000       1.330169        36.1957 
 311   0.0000       1.342344        36.5270 
 312   0.0000       1.356367        36.9086 
 313   0.0000       1.372495        37.3475 
 314   0.0000       1.406311        38.2677 
 315   0.0000       1.525361        41.5072 
 316   0.0000       1.526218        41.5305 
 317   0.0000       1.564669        42.5768 
 318   0.0000       1.605881        43.6982 
 319   0.0000       1.657336        45.0984 
 320   0.0000       6.207770       168.9220 
 321   0.0000       6.239938       169.7973 
 322   0.0000       6.257476       170.2746 
 323   0.0000       6.266850       170.5297 
 324   0.0000       6.283150       170.9732 
 325   0.0000       6.287211       171.0837 
 326   0.0000       6.294125       171.2718 
 327   0.0000       6.304006       171.5407 
 328   0.0000       6.314701       171.8318 
 329   0.0000       6.337540       172.4532 
 330   0.0000       6.344038       172.6300 
 331   0.0000       6.353022       172.8745 
 332   0.0000       6.365126       173.2039 
 333   0.0000       6.372751       173.4114 
 334   0.0000       6.384919       173.7425 
 335   0.0000       6.392925       173.9603 
 336   0.0000       6.398993       174.1255 
 337   0.0000       6.415738       174.5811 
 338   0.0000       6.420497       174.7106 
 339   0.0000       6.427352       174.8971 
 340   0.0000       6.435076       175.1073 
 341   0.0000       6.445823       175.3998 
 342   0.0000       6.448830       175.4816 
 343   0.0000       6.454412       175.6335 
 344   0.0000       6.466789       175.9703 
 345   0.0000       6.467832       175.9986 
 346   0.0000       6.481528       176.3713 
 347   0.0000       6.492766       176.6771 
 348   0.0000       6.507790       177.0860 
 349   0.0000       6.510955       177.1721 
 350   0.0000       6.519705       177.4102 
 351   0.0000       6.524104       177.5299 
 352   0.0000       6.532381       177.7551 
 353   0.0000       6.542770       178.0378 
 354   0.0000       6.547188       178.1580 
 355   0.0000       6.551029       178.2626 
 356   0.0000       6.557130       178.4286 
 357   0.0000       6.563502       178.6020 
 358   0.0000       6.571387       178.8165 
 359   0.0000       6.573803       178.8823 
 360   0.0000       6.583549       179.1475 
 361   0.0000       6.585392       179.1976 
 362   0.0000       6.591974       179.3767 
 363   0.0000       6.601338       179.6315 
 364   0.0000       6.604880       179.7279 
 365   0.0000       6.606924       179.7836 
 366   0.0000       6.610879       179.8912 
 367   0.0000       6.612923       179.9468 
 368   0.0000       6.618491       180.0983 
 369   0.0000       6.621241       180.1731 
 370   0.0000       6.621959       180.1927 
 371   0.0000       6.627252       180.3367 
 372   0.0000       6.634353       180.5299 
 373   0.0000       6.638521       180.6434 
 374   0.0000       6.642839       180.7608 
[...]
     69 H        0.000      0.000      0.000      0.000      0.000      0.000
     70 H        0.000      0.000      0.000      0.000      0.003      0.036
     71 H        0.000      0.000      0.000     -0.000      0.001      0.020
     72 H        0.000      0.000      0.000      0.000      0.001      0.012
                 25 H       27 H       28 H       30 H       31 H       33 H  
      3 H        2.508     -0.107      0.068      0.000      0.000      2.429
      4 H        0.115     -0.004      0.004      0.008      0.000      0.102
      8 H       -0.342      0.012      0.000      0.000      0.000     -0.312
      9 H        0.000      0.000      0.000      0.000      0.000      0.136
     10 H        0.000      0.000      0.000      0.000      0.000      0.000
     11 H        0.000      0.000      0.000      0.000      0.000      0.000
     13 H       -0.102      0.004     -0.004      0.000      0.000     -0.105
     16 H       -0.375      0.012     -0.006     -0.022     -0.001     -0.346
     17 H       -0.368      0.011      0.000      0.000      0.000     -0.322
     19 H        0.944     -0.049      0.021      0.086      0.006      1.161
     21 H       -2.841      0.198      0.637     -0.215     -0.026     -2.618
     24 H      -14.129      4.365      2.274      0.712     -0.512     -0.127
     25 H        0.000     13.039      5.271     -0.634     -0.357     -2.377
     27 H       13.039      0.000    -13.590      3.998     13.008      0.071
     28 H        5.271    -13.590      0.000      2.660      4.113      0.284
     30 H       -0.634      3.998      2.660      0.000    -12.974      0.018
     31 H       -0.357     13.008      4.113    -12.974      0.000     -0.321
     33 H       -2.377      0.071      0.284      0.018     -0.321      0.000
     35 H        0.000      0.000      0.000      0.000      0.000      0.000
     37 H        0.272      0.005     -0.036      0.515     -0.037      6.547
     38 H        0.191      0.001     -0.030     -0.015      0.126     12.191
     40 H       -0.013      0.018      0.150     -0.003     -0.033     -0.237
     41 H        0.013      0.022     -0.025      0.013      0.077     -0.423
     42 H       -0.018      0.015     -0.015     -0.257     -0.368     -0.214
     45 H       -0.017     -0.228      0.014     -0.207     -0.475     -0.189
     46 H        0.014      0.047      0.071     -0.338      0.026      0.932
     47 H       -0.057     -0.126     -0.143     -0.157      1.836     -0.466
     48 H       -0.018      0.028      0.024      0.039      0.008     -0.023
     52 H        0.001      0.000      0.002     -0.014     -0.001      0.003
     53 H       -0.001     -0.000     -0.000     -0.002     -0.003     -0.007
     57 H        0.000      0.000      0.000      0.001      0.000      0.001
     58 H       -0.000      0.000      0.000     -0.000     -0.000     -0.000
     61 H        0.000      0.000      0.000     -0.000     -0.000      0.000
     62 H        0.000      0.000      0.000     -0.000     -0.000      0.000
     63 H        0.000      0.000      0.000      0.000      0.000      0.000
     64 H        0.000      0.000      0.000      0.000      0.000      0.000
     65 H        0.000      0.000      0.000      0.000      0.000      0.000
     66 H        0.000      0.000      0.000      0.000      0.000      0.000
     67 H        0.000      0.000      0.000      0.000      0.000      0.000
     68 H       -0.000      0.000     -0.000     -0.000      0.000     -0.000
     69 H        0.000      0.000      0.000     -0.000      0.000      0.000
     70 H        0.001     -0.010     -0.011      0.075     -0.046      0.005
     71 H        0.003     -0.007     -0.008     -0.476     -0.093      0.004
     72 H        0.000     -0.004     -0.005      0.059      0.008     -0.000
                 35 H       37 H       38 H       40 H       41 H       42 H  
      3 H       -0.078     -0.044     -0.039      0.000      0.000      0.000
      4 H       -0.167     -0.002     -0.002      0.000      0.000      0.000
      8 H        0.020      0.006      0.004      0.000      0.001      0.000
      9 H       -0.092     -0.002     -0.001      0.000     -0.000      0.000
     10 H       -0.180      0.000     -0.001      0.000      0.000      0.000
     11 H       -0.102     -0.000     -0.000      0.000      0.000      0.000
     13 H       13.756      0.002      0.001      0.000      0.000      0.000
     16 H        0.005      0.007      0.002     -0.000      0.001     -0.001
     17 H        0.007      0.005      0.005      0.000      0.002      0.000
     19 H       -0.005     -0.013      0.114      0.004     -0.009      0.006
     21 H       -0.004      0.044     -0.537     -0.009      0.058     -0.024
     24 H       -0.001     -0.053     -0.078     -0.020      0.065     -0.025
     25 H        0.000      0.272      0.191     -0.013      0.013     -0.018
     27 H        0.000      0.005      0.001      0.018      0.022      0.015
     28 H        0.000     -0.036     -0.030      0.150     -0.025     -0.015
     30 H        0.000      0.515     -0.015     -0.003      0.013     -0.257
     31 H        0.000     -0.037      0.126     -0.033      0.077     -0.368
     33 H        0.000      6.547     12.191     -0.237     -0.423     -0.214
     35 H        0.000      0.000      0.000      0.000      0.000      0.000
     37 H        0.000      0.000    -12.193      9.548      2.642     -0.261
     38 H        0.000    -12.193      0.000      6.578     11.566     -0.483
     40 H        0.000      9.548      6.578      0.000    -13.323      9.222
     41 H        0.000      2.642     11.566    -13.323      0.000      8.814
     42 H        0.000     -0.261     -0.483      9.222      8.814      0.000
     45 H        0.000      0.063      0.039     -0.082      0.006      1.127
     46 H        0.000     -0.173      0.010      0.052      0.039     -0.417
     47 H        0.000      0.063     -0.067     -0.112     -0.067     -0.095
     48 H        0.000      0.113     -0.006     -0.193     -0.422     10.525
     52 H        0.000     -0.015     -0.013      0.213     -0.166     -0.168
     53 H        0.000     -0.003     -0.006     -0.024      0.101      0.117
     57 H        0.000     -0.000      0.000      0.004     -0.003     -0.013
     58 H        0.000      0.000     -0.000     -0.006      0.000      0.001
     61 H        0.000      0.000      0.000     -0.000     -0.000      0.003
     62 H        0.000      0.000      0.000     -0.002      0.000      0.002
     63 H        0.000      0.000      0.000      0.006     -0.001     -0.013
     64 H        0.000      0.000      0.000      0.002      0.001     -0.007
     65 H        0.000     -0.000      0.000      0.000      0.000     -0.001
     66 H        0.000      0.000      0.000     -0.000     -0.000      0.001
     67 H        0.000      0.000      0.000      0.001      0.000     -0.001
     68 H        0.000     -0.000     -0.000     -0.000      0.000      0.000
     69 H        0.000      0.000      0.000     -0.001      0.001      0.000
     70 H        0.000      0.065      0.016     -0.050      0.002     -0.449
     71 H        0.000     -0.006      0.000      0.084      0.031     -0.201
     72 H        0.000     -0.021      0.037      0.020     -0.045     -0.352
                 45 H       46 H       47 H       48 H       52 H       53 H  
      3 H       -0.022      0.000      0.000      0.000      0.000      0.000
      4 H       -0.001     -0.001      0.001      0.000      0.000      0.000
      8 H        0.002      0.002     -0.003      0.000      0.000      0.000
      9 H       -0.001      0.000      0.001      0.000      0.000      0.000
     10 H       -0.001      0.000      0.000      0.000      0.000      0.000
     11 H       -0.000      0.000      0.000      0.000      0.000      0.000
     13 H        0.001      0.001     -0.001      0.000      0.000      0.000
     16 H        0.002      0.002     -0.004      0.000      0.000      0.000
     17 H        0.003      0.000     -0.004      0.000      0.000      0.000
     19 H       -0.010     -0.007      0.011      0.007      0.000      0.000
     21 H        0.033      0.015     -0.015     -0.018      0.001      0.000
     24 H       -0.023     -0.017     -0.023      0.005      0.000      0.000
     25 H       -0.017      0.014     -0.057     -0.018      0.001     -0.001
     27 H       -0.228      0.047     -0.126      0.028      0.000     -0.000
     28 H        0.014      0.071     -0.143      0.024      0.002     -0.000
     30 H       -0.207     -0.338     -0.157      0.039     -0.014     -0.002
     31 H       -0.475      0.026      1.836      0.008     -0.001     -0.003
     33 H       -0.189      0.932     -0.466     -0.023      0.003     -0.007
     35 H        0.000      0.000      0.000      0.000      0.000      0.000
     37 H        0.063     -0.173      0.063      0.113     -0.015     -0.003
     38 H        0.039      0.010     -0.067     -0.006     -0.013     -0.006
     40 H       -0.082      0.052     -0.112     -0.193      0.213     -0.024
     41 H        0.006      0.039     -0.067     -0.422     -0.166      0.101
     42 H        1.127     -0.417     -0.095     10.525     -0.168      0.117
     45 H        0.000    -12.906    -13.600     -0.177      0.020     -0.036
     46 H      -12.906      0.000    -12.948     -0.105      0.004     -0.010
     47 H      -13.600    -12.948      0.000     -0.205      0.006     -0.015
     48 H       -0.177     -0.105     -0.205      0.000      4.968     -2.301
     52 H        0.020      0.004      0.006      4.968      0.000     16.648
     53 H       -0.036     -0.010     -0.015     -2.301     16.648      0.000
     57 H        0.000      0.001      0.001      0.166     -0.806      9.872
     58 H        0.000     -0.000     -0.001     -0.096      0.137     -0.169
     61 H        0.000     -0.000     -0.000     -0.048      0.118     -0.162
     62 H        0.000     -0.000      0.000     -0.040      0.062     -0.336
     63 H        0.000      0.000      0.000      0.603     -0.291     -0.048
     64 H        0.000      0.000      0.000      0.076     -0.085      0.065
     65 H        0.000      0.000      0.000      0.013     -0.010      0.063
     66 H        0.000      0.000      0.000     -0.002      0.005      0.014
     67 H        0.000      0.000      0.000      0.016     -0.016     -0.006
     68 H        0.000     -0.000     -0.000     -0.016      0.040     -0.179
     69 H        0.000      0.000      0.000     -0.004      0.086     -0.018
     70 H       -0.030     -0.022     -0.011      1.955     -0.371     -0.234
     71 H       -0.060     -0.242     -0.019      5.143      0.823     -0.183
     72 H       -0.030     -0.042      0.030     12.531     -0.526     -0.171
                 57 H       58 H       61 H       62 H       63 H       64 H  
      3 H        0.000      0.000      0.000      0.000      0.000      0.000
      4 H        0.000      0.000      0.000      0.000      0.000      0.000
      8 H        0.000      0.000      0.000      0.000      0.000      0.000
      9 H        0.000      0.000      0.000      0.000      0.000      0.000
     10 H        0.000      0.000      0.000      0.000      0.000      0.000
     11 H        0.000      0.000      0.000      0.000      0.000      0.000
     13 H        0.000      0.000      0.000      0.000      0.000      0.000
     16 H        0.000      0.000      0.000      0.000      0.000      0.000
     17 H        0.000      0.000      0.000      0.000      0.000      0.000
     19 H        0.000      0.000      0.000      0.000      0.000      0.000
     21 H        0.000      0.000      0.000      0.000      0.000      0.000
     24 H        0.000      0.000      0.000      0.000      0.000      0.000
     25 H        0.000     -0.000      0.000      0.000      0.000      0.000
     27 H        0.000      0.000      0.000      0.000      0.000      0.000
     28 H        0.000      0.000      0.000      0.000      0.000      0.000
     30 H        0.001     -0.000     -0.000     -0.000      0.000      0.000
     31 H        0.000     -0.000     -0.000     -0.000      0.000      0.000
     33 H        0.001     -0.000      0.000      0.000      0.000      0.000
     35 H        0.000      0.000      0.000      0.000      0.000      0.000
     37 H       -0.000      0.000      0.000      0.000      0.000      0.000
     38 H        0.000     -0.000      0.000      0.000      0.000      0.000
     40 H        0.004     -0.006     -0.000     -0.002      0.006      0.002
     41 H       -0.003      0.000     -0.000      0.000     -0.001      0.001
     42 H       -0.013      0.001      0.003      0.002     -0.013     -0.007
     45 H        0.000      0.000      0.000      0.000      0.000      0.000
     46 H        0.001     -0.000     -0.000     -0.000      0.000      0.000
     47 H        0.001     -0.001     -0.000      0.000      0.000      0.000
     48 H        0.166     -0.096     -0.048     -0.040      0.603      0.076
     52 H       -0.806      0.137      0.118      0.062     -0.291     -0.085
     53 H        9.872     -0.169     -0.162     -0.336     -0.048      0.065
     57 H        0.000      3.146      4.070     13.133      2.811     -0.165
     58 H        3.146      0.000      0.317     -0.563     -0.448      4.521
     61 H        4.070      0.317      0.000    -13.019    -13.110     -0.077
     62 H       13.133     -0.563    -13.019      0.000    -12.311      0.062
     63 H        2.811     -0.448    -13.110    -12.311      0.000     -0.159
     64 H       -0.165      4.521     -0.077      0.062     -0.159      0.000
     65 H       -0.319      2.631      0.036      0.035      0.001    -12.740
     66 H       -0.264     13.202     -0.106      0.030     -0.303    -13.064
     67 H       -0.528     13.155     -0.093     -0.150      0.007     -0.210
     68 H       -0.391      3.116      0.037     -0.003      0.057     -0.158
     69 H        0.501      3.864     -0.121     -0.095      0.050     -0.213
     70 H        0.093      0.001     -0.000      0.002     -0.009     -0.004
     71 H        0.232     -0.001     -0.002      0.000     -0.012      0.000
     72 H        0.073      0.001     -0.001     -0.003     -0.007      0.000
                 65 H       66 H       67 H       68 H       69 H       70 H  
      3 H        0.000      0.000      0.000      0.000      0.000      0.000
      4 H        0.000      0.000      0.000      0.000      0.000      0.000
      8 H        0.000      0.000      0.000      0.000      0.000      0.000
      9 H        0.000      0.000      0.000      0.000      0.000      0.000
     10 H        0.000      0.000      0.000      0.000      0.000      0.000
     11 H        0.000      0.000      0.000      0.000      0.000      0.000
     13 H        0.000      0.000      0.000      0.000      0.000      0.000
     16 H        0.000      0.000      0.000      0.000      0.000      0.000
     17 H        0.000      0.000      0.000      0.000      0.000      0.000
     19 H        0.000      0.000      0.000      0.000      0.000      0.000
     21 H        0.000      0.000      0.000      0.000      0.000      0.003
     24 H        0.000      0.000      0.000      0.000      0.000      0.036
     25 H        0.000      0.000      0.000     -0.000      0.000      0.001
     27 H        0.000      0.000      0.000      0.000      0.000     -0.010
     28 H        0.000      0.000      0.000     -0.000      0.000     -0.011
     30 H        0.000      0.000      0.000     -0.000     -0.000      0.075
     31 H        0.000      0.000      0.000      0.000      0.000     -0.046
     33 H        0.000      0.000      0.000     -0.000      0.000      0.005
     35 H        0.000      0.000      0.000      0.000      0.000      0.000
     37 H       -0.000      0.000      0.000     -0.000      0.000      0.065
     38 H        0.000      0.000      0.000     -0.000      0.000      0.016
     40 H        0.000     -0.000      0.001     -0.000     -0.001     -0.050
     41 H        0.000     -0.000      0.000      0.000      0.001      0.002
     42 H       -0.001      0.001     -0.001      0.000      0.000     -0.449
     45 H        0.000      0.000      0.000      0.000      0.000     -0.030
     46 H        0.000      0.000      0.000     -0.000      0.000     -0.022
     47 H        0.000      0.000      0.000     -0.000      0.000     -0.011
     48 H        0.013     -0.002      0.016     -0.016     -0.004      1.955
     52 H       -0.010      0.005     -0.016      0.040      0.086     -0.371
     53 H        0.063      0.014     -0.006     -0.179     -0.018     -0.234
     57 H       -0.319     -0.264     -0.528     -0.391      0.501      0.093
     58 H        2.631     13.202     13.155      3.116      3.864      0.001
     61 H        0.036     -0.106     -0.093      0.037     -0.121     -0.000
     62 H        0.035      0.030     -0.150     -0.003     -0.095      0.002
     63 H        0.001     -0.303      0.007      0.057      0.050     -0.009
     64 H      -12.740    -13.064     -0.210     -0.158     -0.213     -0.004
     65 H        0.000    -12.031     -0.268      2.830      0.002     -0.000
     66 H      -12.031      0.000     -0.330     -0.241     -0.209      0.001
     67 H       -0.268     -0.330      0.000    -12.031    -13.042      0.000
     68 H        2.830     -0.241    -12.031      0.000    -13.046     -0.002
     69 H        0.002     -0.209    -13.042    -13.046      0.000     -0.001
     70 H       -0.000      0.001      0.000     -0.002     -0.001      0.000
     71 H        0.000      0.000     -0.000     -0.000     -0.000    -13.644
     72 H        0.001      0.000     -0.000     -0.000     -0.001    -12.357
                 71 H       72 H  
      3 H        0.000      0.000
      4 H        0.000      0.000
      8 H        0.000      0.000
      9 H        0.000      0.000
     10 H        0.000      0.000
     11 H        0.000      0.000
     13 H        0.000      0.000
     16 H        0.000      0.000
     17 H        0.000      0.000
     19 H       -0.000      0.000
     21 H        0.001      0.001
     24 H        0.020      0.012
     25 H        0.003      0.000
     27 H       -0.007     -0.004
     28 H       -0.008     -0.005
     30 H       -0.476      0.059
     31 H       -0.093      0.008
     33 H        0.004     -0.000
     35 H        0.000      0.000
     37 H       -0.006     -0.021
     38 H        0.000      0.037
     40 H        0.084      0.020
     41 H        0.031     -0.045
     42 H       -0.201     -0.352
     45 H       -0.060     -0.030
     46 H       -0.242     -0.042
     47 H       -0.019      0.030
     48 H        5.143     12.531
     52 H        0.823     -0.526
     53 H       -0.183     -0.171
     57 H        0.232      0.073
     58 H       -0.001      0.001
     61 H       -0.002     -0.001
     62 H        0.000     -0.003
     63 H       -0.012     -0.007
     64 H        0.000      0.000
     65 H        0.000      0.001
     66 H        0.000      0.000
     67 H       -0.000     -0.000
     68 H       -0.000     -0.000
     69 H       -0.000     -0.001
     70 H      -13.644    -12.357
     71 H        0.000    -12.713
     72 H      -12.713      0.000

Maximum memory used throughout the entire EPRNMR-calculation: 969.6 MB

Timings for individual modules:

Sum of individual times         ...      404.239 sec (=   6.737 min)
GTO integral calculation        ...        0.598 sec (=   0.010 min)   0.1 %
SCF iterations                  ...      102.606 sec (=   1.710 min)  25.4 %
EPR/NMR calculation             ...      301.035 sec (=   5.017 min)  74.5 %
                             ****ORCA TERMINATED NORMALLY****
TOTAL RUN TIME: 0 days 0 hours 6 minutes 44 seconds 673 msec
