
                                 *****************
                                 * O   R   C   A *
                                 *****************

                                            #,                                       
                                            ###                                      
                                            ####                                     
                                            #####                                    
                                            ######                                   
                                           ########,                                 
                                     ,,################,,,,,                         
                               ,,#################################,,                 
                          ,,##########################################,,             
                       ,#########################################, ''#####,          
                    ,#############################################,,   '####,        
                  ,##################################################,,,,####,       
                ,###########''''           ''''###############################       
              ,#####''   ,,,,##########,,,,          '''####'''          '####       
            ,##' ,,,,###########################,,,                        '##       
           ' ,,###''''                  '''############,,,                           
         ,,##''                                '''############,,,,        ,,,,,,###''
      ,#''                                            '''#######################'''  
     '                                                          ''''####''''         
             ,#######,   #######,   ,#######,      ##                                
            ,#'     '#,  ##    ##  ,#'     '#,    #''#        ######   ,####,        
            ##       ##  ##   ,#'  ##            #'  '#       #        #'  '#        
            ##       ##  #######   ##           ,######,      #####,   #    #        
            '#,     ,#'  ##    ##  '#,     ,#' ,#      #,         ##   #,  ,#        
             '#######'   ##     ##  '#######'  #'      '#     #####' # '####'        



                  #######################################################
                  #                        -***-                        #
                  #          Department of theory and spectroscopy      #
                  #    Directorship and core code : Frank Neese         #
                  #        Max Planck Institute fuer Kohlenforschung    #
                  #                Kaiser Wilhelm Platz 1               #
                  #                 D-45470 Muelheim/Ruhr               #
                  #                      Germany                        #
                  #                                                     #
                  #                  All rights reserved                #
                  #                        -***-                        #
                  #######################################################


                         Program Version 5.0.2 -  RELEASE  -


 With contributions from (in alphabetic order):
   Daniel Aravena         : Magnetic Suceptibility
   Michael Atanasov       : Ab Initio Ligand Field Theory (pilot matlab implementation)
   Alexander A. Auer      : GIAO ZORA, VPT2 properties, NMR spectrum
   Ute Becker             : Parallelization
   Giovanni Bistoni       : ED, misc. LED, open-shell LED, HFLD
   Martin Brehm           : Molecular dynamics
   Dmytro Bykov           : SCF Hessian
   Vijay G. Chilkuri      : MRCI spin determinant printing, contributions to CSF-ICE
   Dipayan Datta          : RHF DLPNO-CCSD density
   Achintya Kumar Dutta   : EOM-CC, STEOM-CC
   Dmitry Ganyushin       : Spin-Orbit,Spin-Spin,Magnetic field MRCI
   Miquel Garcia          : C-PCM and meta-GGA Hessian, CC/C-PCM, Gaussian charge scheme
   Yang Guo               : DLPNO-NEVPT2, F12-NEVPT2, CIM, IAO-localization
   Andreas Hansen         : Spin unrestricted coupled pair/coupled cluster methods
   Benjamin Helmich-Paris : MC-RPA, TRAH-SCF, COSX integrals
   Lee Huntington         : MR-EOM, pCC
   Robert Izsak           : Overlap fitted RIJCOSX, COSX-SCS-MP3, EOM
   Marcus Kettner         : VPT2
   Christian Kollmar      : KDIIS, OOCD, Brueckner-CCSD(T), CCSD density, CASPT2, CASPT2-K
   Simone Kossmann        : Meta GGA functionals, TD-DFT gradient, OOMP2, MP2 Hessian
   Martin Krupicka        : Initial AUTO-CI
   Lucas Lang             : DCDCAS
   Marvin Lechner         : AUTO-CI (C++ implementation), FIC-MRCC
   Dagmar Lenk            : GEPOL surface, SMD
   Dimitrios Liakos       : Extrapolation schemes; Compound Job, initial MDCI parallelization
   Dimitrios Manganas     : Further ROCIS development; embedding schemes
   Dimitrios Pantazis     : SARC Basis sets
   Anastasios Papadopoulos: AUTO-CI, single reference methods and gradients
   Taras Petrenko         : DFT Hessian,TD-DFT gradient, ASA, ECA, R-Raman, ABS, FL, XAS/XES, NRVS
   Peter Pinski           : DLPNO-MP2, DLPNO-MP2 Gradient
   Christoph Reimann      : Effective Core Potentials
   Marius Retegan         : Local ZFS, SOC
   Christoph Riplinger    : Optimizer, TS searches, QM/MM, DLPNO-CCSD(T), (RO)-DLPNO pert. Triples
   Tobias Risthaus        : Range-separated hybrids, TD-DFT gradient, RPA, STAB
   Michael Roemelt        : Original ROCIS implementation
   Masaaki Saitow         : Open-shell DLPNO-CCSD energy and density
   Barbara Sandhoefer     : DKH picture change effects
   Avijit Sen             : IP-ROCIS
   Kantharuban Sivalingam : CASSCF convergence, NEVPT2, FIC-MRCI
   Bernardo de Souza      : ESD, SOC TD-DFT
   Georgi Stoychev        : AutoAux, RI-MP2 NMR, DLPNO-MP2 response
   Willem Van den Heuvel  : Paramagnetic NMR
   Boris Wezisla          : Elementary symmetry handling
   Frank Wennmohs         : Technical directorship


 We gratefully acknowledge several colleagues who have allowed us to
 interface, adapt or use parts of their codes:
   Stefan Grimme, W. Hujo, H. Kruse, P. Pracht,  : VdW corrections, initial TS optimization,
                  C. Bannwarth, S. Ehlert          DFT functionals, gCP, sTDA/sTD-DF
   Ed Valeev, F. Pavosevic, A. Kumar             : LibInt (2-el integral package), F12 methods
   Garnet Chan, S. Sharma, J. Yang, R. Olivares  : DMRG
   Ulf Ekstrom                                   : XCFun DFT Library
   Mihaly Kallay                                 : mrcc  (arbitrary order and MRCC methods)
   Jiri Pittner, Ondrej Demel                    : Mk-CCSD
   Frank Weinhold                                : gennbo (NPA and NBO analysis)
   Christopher J. Cramer and Donald G. Truhlar   : smd solvation model
   Lars Goerigk                                  : TD-DFT with DH, B97 family of functionals
   V. Asgeirsson, H. Jonsson                     : NEB implementation
   FAccTs GmbH                                   : IRC, NEB, NEB-TS, DLPNO-Multilevel, CI-OPT
                                                   MM, QMMM, 2- and 3-layer-ONIOM, Crystal-QMMM,
                                                   LR-CPCM, SF, NACMEs, symmetry and pop. for TD-DFT,
                                                   nearIR, NL-DFT gradient (VV10), updates on ESD,
                                                   ML-optimized integration grids
   S Lehtola, MJT Oliveira, MAL Marques          : LibXC Library
   Liviu Ungur et al                             : ANISO software


 Your calculation uses the libint2 library for the computation of 2-el integrals
 For citations please refer to: http://libint.valeyev.net

 Your ORCA version has been built with support for libXC version: 5.1.0
 For citations please refer to: https://tddft.org/programs/libxc/

 This ORCA versions uses:
   CBLAS   interface :  Fast vector & matrix operations
   LAPACKE interface :  Fast linear algebra routines
   SCALAPACK package :  Parallel linear algebra routines
   Shared memory     :  Shared parallel matrices
   BLAS/LAPACK       :  OpenBLAS 0.3.15  USE64BITINT DYNAMIC_ARCH NO_AFFINITY Zen SINGLE_THREADED
        Core in use  :  Zen
   Copyright (c) 2011-2014, The OpenBLAS Project


Your calculation utilizes the atom-pairwise dispersion correction
based on tight binding partial charges (D4)
Cite in your paper:
E.Caldeweyher, C.Bannwarth, S.Grimme, J.Chem.Phys., (2017), 147, 034112.
E.Caldeweyher, S.Ehlert, A.Hansen, H.Neugebauer, S.Grimme, J.Chem.Phys., (2018), in progress.
   

================================================================================

----- Orbital basis set information -----
Your calculation utilizes the basis: pcSseg-1
   F. Jensen, J. Chem. Theory Comput. 11, 132 (2015).

----- AuxJ basis set information -----
Your calculation utilizes the auxiliary basis: def2/J
   F. Weigend, Phys. Chem. Chem. Phys. 8, 1057 (2006).

================================================================================
                                        WARNINGS
                       Please study these warnings very carefully!
================================================================================



WARNING: Found flag for RIJCOSX approximation but no HF exchange needed!
  ===> : RIJCOSX  will be disabled and Split-RI-J is turned on

INFO   : the flag for use of the SHARK integral package has been found!

================================================================================
                                       INPUT FILE
================================================================================
NAME = inpS
|  1> ! revTPSS
|  2> ! D4
|  3> ! pcSseg-1
|  4> ! def2/J RIJCOSX
|  5> ! DEFGRID2
|  6> ! scfconv7
|  7> ! smallprint printgap noloewdin
|  8> ! NOSOSCF
|  9> %MaxCore 4000
| 10> %output
| 11>        print[P_BondOrder_M] 1
| 12>        print[P_Mayer] 1
| 13>        print[P_basis] 2
| 14> end
| 15> %pal
| 16>     nprocs 4
| 17> end
| 18> ! CPCM(chloroform)
| 19> *xyz 0 1
| 20> C   -4.9485479300   0.2760527700   0.4379437600
| 21> C   -6.3677465100  -0.1512026600   0.1459411200
| 22> C   -6.9695601500   0.6356804800  -1.0246347700
| 23> H   -6.9983490400   0.0458312100   1.0297037800
| 24> H   -6.4128324900  -1.2255759900  -0.0634426700
| 25> C   -4.7708980800   1.7372810100   0.5757037400
| 26> C   -5.4135265500   2.5521036800  -0.5238576600
| 27> C   -6.8709295400   2.1340634300  -0.7623598500
| 28> H   -4.8484812800   2.3865309500  -1.4537844900
| 29> H   -5.3509512100   3.6199449600  -0.2894049500
| 30> H   -7.2908331000   2.6864744900  -1.6111344200
| 31> H   -7.4742465200   2.3767586300   0.1255004700
| 32> O   -8.3188693500   0.2271794600  -1.2848583700
| 33> H   -6.4174941900   0.3895513700  -1.9425737300
| 34> C   -3.9501707400  -0.6357387600   0.5117417500
| 35> C   -4.1371779200   2.3072669200   1.6070136600
| 36> H   -3.7038159100   1.7106680000   2.4049093600
| 37> H   -4.0478095400   3.3885495500   1.6800839100
| 38> C   -2.5435191600  -0.3569369200   0.6862407600
| 39> H   -4.2412202600  -1.6775151000   0.3845303700
| 40> C   -1.5590123200  -1.2687941100   0.8384413000
| 41> H   -2.2632340700   0.6939096400   0.6816520900
| 42> C   -1.7487425300  -2.7623877100   0.9173032800
| 43> C   -0.8482497600  -3.5072475400  -0.0855551100
| 44> H   -2.7915751400  -3.0570722800   0.7719301200
| 45> H   -1.4686877200  -3.0833699000   1.9335782100
| 46> C    0.6211960700  -3.0722548600   0.0010137000
| 47> H   -1.2255516400  -3.3359540200  -1.1016136100
| 48> H   -0.9223843300  -4.5864254600   0.0963745500
| 49> C    0.7760622900  -1.5511125900  -0.1371784400
| 50> H    1.1931472300  -3.6035480500  -0.7663714700
| 51> H    1.0325748700  -3.3759047200   0.9755148400
| 52> C   -0.1149393300  -0.8906142000   0.9625324700
| 53> H    0.2421809600  -1.3365739200   1.9094498800
| 54> C    0.3166711000   0.5720840200   0.9652157800
| 55> H   -8.8425836800   0.4335331000  -0.4990934800
| 56> C    1.8370871500   0.5026587400   0.6784837200
| 57> H    0.0854104100   1.0684168600   1.9135344700
| 58> H   -0.1970552200   1.1302545600   0.1746628200
| 59> C    2.1591711000  -0.9657220100   0.2647470600
| 60> H    2.4276307100   0.7971426500   1.5517017200
| 61> H    2.1079539600   1.1920338700  -0.1303502800
| 62> H    2.4826616300  -1.5183083100   1.1616235100
| 63> C    3.3268964000  -1.0432386700  -0.7486048300
| 64> C    0.3634699100  -1.0780693900  -1.5373026500
| 65> H   -0.7075364100  -1.2240178100  -1.7078654700
| 66> H    0.9072143100  -1.6336606700  -2.3092164200
| 67> H    0.5748143000  -0.0140099600  -1.6829386600
| 68> H    3.0243400100  -0.4561641700  -1.6316865800
| 69> C    3.6399902100  -2.4669958600  -1.2067436500
| 70> C    4.5276825000  -0.3463848600  -0.1528788100
| 71> C    5.6702964300  -0.9156492300   0.2336651500
| 72> H    4.4203454800   0.7299246800  -0.0048662100
| 73> H    5.8163024500  -1.9878042400   0.0953808900
| 74> C    6.8140261600  -0.1741589900   0.8715034500
| 75> C    8.1228419700  -0.4875519000   0.1328667900
| 76> C    6.8834206800  -0.4555377000   2.3982783800
| 77> H    6.6119263700   0.9026461700   0.7683648200
| 78> H    5.8825645400  -0.2134550100   2.7871426600
| 79> C    7.8874337900   0.4634362500   3.0990189500
| 80> C    7.1722299500  -1.9198739600   2.7378670600
| 81> H    8.0400337400  -0.1951893100  -0.9192181400
| 82> H    8.3469498700  -1.5597494000   0.1609624700
| 83> H    8.9737878000   0.0491640300   0.5641837900
| 84> H    7.8052523900   0.3612224900   4.1869158000
| 85> H    7.7121208000   1.5146944400   2.8427552000
| 86> H    8.9185112900   0.2140951000   2.8239312300
| 87> H    8.1750915600  -2.2143728900   2.4076796400
| 88> H    6.4482676800  -2.5984422800   2.2747551600
| 89> H    7.1261303700  -2.0720342900   3.8219284300
| 90> H    4.5511648900  -2.4844210100  -1.8143182100
| 91> H    2.8281919400  -2.8712932700  -1.8146226000
| 92> H    3.7885004800  -3.1378073300  -0.3522931800
| 93> *
| 94> %eprnmr
| 95>  Nuclei = all H { shift }
| 96>  origin giao
| 97>  giao_2el giao_2el_same_as_scf
| 98>  giao_1el giao_1el_analytic
| 99> end
|100> 
|101>                          ****END OF INPUT****
================================================================================

                       ****************************
                       * Single Point Calculation *
                       ****************************

---------------------------------
CARTESIAN COORDINATES (ANGSTROEM)
---------------------------------
  C     -4.948548    0.276053    0.437944
  C     -6.367747   -0.151203    0.145941
  C     -6.969560    0.635680   -1.024635
  H     -6.998349    0.045831    1.029704
  H     -6.412832   -1.225576   -0.063443
  C     -4.770898    1.737281    0.575704
  C     -5.413527    2.552104   -0.523858
  C     -6.870930    2.134063   -0.762360
  H     -4.848481    2.386531   -1.453784
  H     -5.350951    3.619945   -0.289405
  H     -7.290833    2.686474   -1.611134
  H     -7.474247    2.376759    0.125500
  O     -8.318869    0.227179   -1.284858
  H     -6.417494    0.389551   -1.942574
  C     -3.950171   -0.635739    0.511742
  C     -4.137178    2.307267    1.607014
  H     -3.703816    1.710668    2.404909
  H     -4.047810    3.388550    1.680084
  C     -2.543519   -0.356937    0.686241
  H     -4.241220   -1.677515    0.384530
  C     -1.559012   -1.268794    0.838441
  H     -2.263234    0.693910    0.681652
  C     -1.748743   -2.762388    0.917303
  C     -0.848250   -3.507248   -0.085555
  H     -2.791575   -3.057072    0.771930
  H     -1.468688   -3.083370    1.933578
  C      0.621196   -3.072255    0.001014
  H     -1.225552   -3.335954   -1.101614
  H     -0.922384   -4.586425    0.096375
  C      0.776062   -1.551113   -0.137178
  H      1.193147   -3.603548   -0.766371
  H      1.032575   -3.375905    0.975515
  C     -0.114939   -0.890614    0.962532
  H      0.242181   -1.336574    1.909450
  C      0.316671    0.572084    0.965216
  H     -8.842584    0.433533   -0.499093
  C      1.837087    0.502659    0.678484
  H      0.085410    1.068417    1.913534
  H     -0.197055    1.130255    0.174663
  C      2.159171   -0.965722    0.264747
  H      2.427631    0.797143    1.551702
  H      2.107954    1.192034   -0.130350
  H      2.482662   -1.518308    1.161624
  C      3.326896   -1.043239   -0.748605
  C      0.363470   -1.078069   -1.537303
  H     -0.707536   -1.224018   -1.707865
  H      0.907214   -1.633661   -2.309216
  H      0.574814   -0.014010   -1.682939
  H      3.024340   -0.456164   -1.631687
  C      3.639990   -2.466996   -1.206744
  C      4.527682   -0.346385   -0.152879
  C      5.670296   -0.915649    0.233665
  H      4.420345    0.729925   -0.004866
  H      5.816302   -1.987804    0.095381
  C      6.814026   -0.174159    0.871503
  C      8.122842   -0.487552    0.132867
  C      6.883421   -0.455538    2.398278
  H      6.611926    0.902646    0.768365
  H      5.882565   -0.213455    2.787143
  C      7.887434    0.463436    3.099019
  C      7.172230   -1.919874    2.737867
  H      8.040034   -0.195189   -0.919218
  H      8.346950   -1.559749    0.160962
  H      8.973788    0.049164    0.564184
  H      7.805252    0.361222    4.186916
  H      7.712121    1.514694    2.842755
  H      8.918511    0.214095    2.823931
  H      8.175092   -2.214373    2.407680
  H      6.448268   -2.598442    2.274755
  H      7.126130   -2.072034    3.821928
  H      4.551165   -2.484421   -1.814318
  H      2.828192   -2.871293   -1.814623
  H      3.788500   -3.137807   -0.352293

----------------------------
CARTESIAN COORDINATES (A.U.)
----------------------------
  NO LB      ZA    FRAG     MASS         X           Y           Z
   0 C     6.0000    0    12.011   -9.351400    0.521664    0.827594
   1 C     6.0000    0    12.011  -12.033297   -0.285732    0.275789
   2 C     6.0000    0    12.011  -13.170560    1.201262   -1.936279
   3 H     1.0000    0     1.008  -13.224963    0.086608    1.945858
   4 H     1.0000    0     1.008  -12.118497   -2.316003   -0.119889
   5 C     6.0000    0    12.011   -9.015691    3.282985    1.087922
   6 C     6.0000    0    12.011  -10.230083    4.822777   -0.989948
   7 C     6.0000    0    12.011  -12.984175    4.032795   -1.440651
   8 H     1.0000    0     1.008   -9.162302    4.509890   -2.747255
   9 H     1.0000    0     1.008  -10.111832    6.840705   -0.546896
  10 H     1.0000    0     1.008  -13.777678    5.076701   -3.044603
  11 H     1.0000    0     1.008  -14.124279    4.491423    0.237162
  12 O     8.0000    0    15.999  -15.720385    0.429307   -2.428030
  13 H     1.0000    0     1.008  -12.127306    0.736145   -3.670932
  14 C     6.0000    0    12.011   -7.464741   -1.201372    0.967052
  15 C     6.0000    0    12.011   -7.818133    4.360103    3.036816
  16 H     1.0000    0     1.008   -6.999198    3.232694    4.544620
  17 H     1.0000    0     1.008   -7.649251    6.403431    3.174898
  18 C     6.0000    0    12.011   -4.806555   -0.674513    1.296807
  19 H     1.0000    0     1.008   -8.014745   -3.170044    0.726657
  20 C     6.0000    0    12.011   -2.946106   -2.397673    1.584424
  21 H     1.0000    0     1.008   -4.276893    1.311299    1.288136
  22 C     6.0000    0    12.011   -3.304644   -5.220156    1.733452
  23 C     6.0000    0    12.011   -1.602960   -6.627737   -0.161676
  24 H     1.0000    0     1.008   -5.275312   -5.777029    1.458737
  25 H     1.0000    0     1.008   -2.775418   -5.826725    3.653933
  26 C     6.0000    0    12.011    1.173890   -5.805720    0.001916
  27 H     1.0000    0     1.008   -2.315957   -6.304039   -2.081748
  28 H     1.0000    0     1.008   -1.743054   -8.667088    0.182122
  29 C     6.0000    0    12.011    1.466545   -2.931178   -0.259230
  30 H     1.0000    0     1.008    2.254722   -6.809719   -1.448232
  31 H     1.0000    0     1.008    1.951284   -6.379535    1.843456
  32 C     6.0000    0    12.011   -0.217204   -1.683017    1.818923
  33 H     1.0000    0     1.008    0.457656   -2.525759    3.608337
  34 C     6.0000    0    12.011    0.598422    1.081082    1.823993
  35 H     1.0000    0     1.008  -16.710061    0.819259   -0.943150
  36 C     6.0000    0    12.011    3.471592    0.949887    1.282148
  37 H     1.0000    0     1.008    0.161402    2.019015    3.616056
  38 H     1.0000    0     1.008   -0.372380    2.135872    0.330065
  39 C     6.0000    0    12.011    4.080242   -1.824950    0.500299
  40 H     1.0000    0     1.008    4.587557    1.506381    2.932291
  41 H     1.0000    0     1.008    3.983456    2.252618   -0.246326
  42 H     1.0000    0     1.008    4.691551   -2.869187    2.195150
  43 C     6.0000    0    12.011    6.286923   -1.971435   -1.414658
  44 C     6.0000    0    12.011    0.686859   -2.037256   -2.905081
  45 H     1.0000    0     1.008   -1.337050   -2.313058   -3.227398
  46 H     1.0000    0     1.008    1.714387   -3.087171   -4.363787
  47 H     1.0000    0     1.008    1.086242   -0.026475   -3.180293
  48 H     1.0000    0     1.008    5.715174   -0.862025   -3.083441
  49 C     6.0000    0    12.011    6.878585   -4.661947   -2.280415
  50 C     6.0000    0    12.011    8.556080   -0.654573   -0.288899
  51 C     6.0000    0    12.011   10.715307   -1.730326    0.441563
  52 H     1.0000    0     1.008    8.353242    1.379358   -0.009196
  53 H     1.0000    0     1.008   10.991219   -3.756406    0.180244
  54 C     6.0000    0    12.011   12.876643   -0.329113    1.646903
  55 C     6.0000    0    12.011   15.349947   -0.921340    0.251082
  56 C     6.0000    0    12.011   13.007780   -0.860841    4.532089
  57 H     1.0000    0     1.008   12.494730    1.705754    1.451999
  58 H     1.0000    0     1.008   11.116436   -0.403372    5.266936
  59 C     6.0000    0    12.011   14.905090    0.875768    5.856297
  60 C     6.0000    0    12.011   13.553550   -3.628036    5.173819
  61 H     1.0000    0     1.008   15.193462   -0.368854   -1.737071
  62 H     1.0000    0     1.008   15.773449   -2.947499    0.304175
  63 H     1.0000    0     1.008   16.958001    0.092907    1.066153
  64 H     1.0000    0     1.008   14.749789    0.682612    7.912124
  65 H     1.0000    0     1.008   14.573796    2.862358    5.372029
  66 H     1.0000    0     1.008   16.853544    0.404581    5.336457
  67 H     1.0000    0     1.008   15.448684   -4.184558    4.549855
  68 H     1.0000    0     1.008   12.185460   -4.910344    4.298664
  69 H     1.0000    0     1.008   13.466435   -3.915577    7.222398
  70 H     1.0000    0     1.008    8.600455   -4.694875   -3.428565
  71 H     1.0000    0     1.008    5.344508   -5.425958   -3.429140
  72 H     1.0000    0     1.008    7.159228   -5.929597   -0.665738

--------------------------------
INTERNAL COORDINATES (ANGSTROEM)
--------------------------------
 C      0   0   0     0.000000000000     0.00000000     0.00000000
 C      1   0   0     1.510608272752     0.00000000     0.00000000
 C      2   1   0     1.533496869105   111.78470434     0.00000000
 H      2   1   3     1.103412133330   109.36543402   241.46135576
 H      2   1   3     1.095514659565   110.67021595   122.92096160
 C      1   2   3     1.478419849254   114.23313344    50.27179211
 C      6   1   2     1.511933400111   114.44511507   312.17202824
 C      3   2   1     1.524358093015   110.34407100   305.13628712
 H      7   6   1     1.100660890203   108.37116668   290.04605499
 H      7   6   1     1.095065635327   110.21456008   172.84137804
 H      8   3   2     1.096309832844   109.71284162   179.20184155
 H      8   3   2     1.100539997587   108.66908447   296.67744760
 O      3   2   1     1.433605497528   111.20546370   180.40871108
 H      3   2   1     1.099076110770   108.99565981    65.22627620
 C      1   2   3     1.354092667073   120.84864347   232.42190513
 C      6   1   2     1.337940704919   123.35355984   129.92278403
 H     16   6   1     1.086448549695   121.40523992     0.68040161
 H     16   6   1     1.087427282497   120.95281781   181.35040713
 C     15   1   2     1.444593035424   126.48166979   175.19931908
 H     15   1   2     1.089123730748   116.14788563   357.91749647
 C     19  15   1     1.350519254708   126.38024428   175.81237996
 H     19  15   1     1.087593343227   115.90682742   355.09686584
 C     21  19  15     1.507659977063   125.66515008   357.08427032
 C     23  21  19     1.539944267032   111.80984809   127.85246883
 H     23  21  19     1.093376515169   112.33835040     3.70934719
 H     23  21  19     1.101941466798   107.74783849   246.53150184
 C     24  23  21     1.534921443535   112.70622527    50.76721954
 H     24  23  21     1.097302626474   109.05291639   288.68180916
 H     24  23  21     1.096913542022   109.16811267   172.70196113
 C     27  24  23     1.535237577457   111.85692412   306.17384975
 H     27  24  23     1.094660030467   108.85168615   182.62713182
 H     27  24  23     1.100494537210   109.24534285    66.17197847
 C     21  19  15     1.497920379475   122.79598304   177.62867752
 H     33  21  19     1.105923846724   106.28595921   124.09159240
 C     33  21  19     1.525051096268   121.00636167     1.89850752
 H     13   3   2     0.966584184924   107.55178023    62.71798346
 C     35  33  21     1.548773743590   103.56290973   196.48920420
 H     35  33  21     1.095050744306   112.11546473    74.56325099
 H     35  33  21     1.095647327450   110.77173829   314.91858648
 C     30  27  24     1.554739920052   116.07400990   166.11843221
 H     37  35  33     1.094519138723   111.70970747   248.88142552
 H     37  35  33     1.096731205984   110.53711822   130.33385445
 H     40  30  27     1.101991428511   106.42380528   320.49442783
 C     40  30  27     1.548054670160   118.87952105    80.71657146
 C     30  27  24     1.534389176359   111.12942030   294.26132100
 H     45  30  27     1.094279285350   111.36378624    66.37175150
 H     45  30  27     1.095532067654   110.67923866   306.27227398
 H     45  30  27     1.094576981836   111.66560802   186.34403287
 H     44  40  30     1.102737600186   106.89314567    62.18198863
 C     44  40  30     1.528071807321   113.42004860   303.03372117
 C     44  40  30     1.510755434003   108.56200901   177.00395147
 C     51  44  40     1.333808362920   126.74844792   112.23217019
 H     51  44  40     1.091728533801   115.47150758   294.07917324
 H     52  51  44     1.090851346384   119.82835429     2.30017740
 C     52  51  44     1.504913010193   124.30496405   182.49484115
 C     55  52  51     1.535186651857   110.08569629   231.35631479
 C     55  52  51     1.554037086019   111.16943043   104.79612863
 H     55  52  51     1.100450478086   107.62750747   348.99546733
 H     57  55  52     1.100696356873   105.46593807   306.07778156
 C     57  55  52     1.530879744550   111.73428832   189.44256098
 C     57  55  52     1.530690023608   113.55323236    63.73840833
 H     56  55  52     1.095087113850   110.07660871    59.25049703
 H     56  55  52     1.095728614705   111.21010301   300.17322448
 H     56  55  52     1.094626488625   111.90559644   179.15921063
 H     60  57  55     1.095774151675   110.44232849   170.96032021
 H     60  57  55     1.096152150054   111.33387913    50.94333146
 H     60  57  55     1.095885520383   111.44291312   290.21613874
 H     61  57  55     1.096122603046   111.27367383    65.70700600
 H     61  57  55     1.095010942965   111.97829178   304.57344902
 H     61  57  55     1.095658245635   110.14652408   184.71142168
 H     50  44  40     1.095303510122   110.58418775   187.50386355
 H     50  44  40     1.091782782774   111.07624030    67.99618430
 H     50  44  40     1.096416405506   111.35584592   307.65355908

---------------------------
INTERNAL COORDINATES (A.U.)
---------------------------
 C      0   0   0     0.000000000000     0.00000000     0.00000000
 C      1   0   0     2.854635931136     0.00000000     0.00000000
 C      2   1   0     2.897889109835   111.78470434     0.00000000
 H      2   1   3     2.085146744839   109.36543402   241.46135576
 H      2   1   3     2.070222682275   110.67021595   122.92096160
 C      1   2   3     2.793808626043   114.23313344    50.27179211
 C      6   1   2     2.857140058938   114.44511507   312.17202824
 C      3   2   1     2.880619325825   110.34407100   305.13628712
 H      7   6   1     2.079947648802   108.37116668   290.04605499
 H      7   6   1     2.069374149437   110.21456008   172.84137804
 H      8   3   2     2.071725341999   109.71284162   179.20184155
 H      8   3   2     2.079719194867   108.66908447   296.67744760
 O      3   2   1     2.709121774412   111.20546370   180.40871108
 H      3   2   1     2.076952849691   108.99565981    65.22627620
 C      1   2   3     2.558864300718   120.84864347   232.42190513
 C      6   1   2     2.528341515723   123.35355984   129.92278403
 H     16   6   1     2.053090217520   121.40523992     0.68040161
 H     16   6   1     2.054939754473   120.95281781   181.35040713
 C     15   1   2     2.729885211921   126.48166979   175.19931908
 H     15   1   2     2.058145577068   116.14788563   357.91749647
 C     19  15   1     2.552111529986   126.38024428   175.81237996
 H     19  15   1     2.055253563776   115.90682742   355.09686584
 C     21  19  15     2.849064459723   125.66515008   357.08427032
 C     23  21  19     2.910072926192   111.80984809   127.85246883
 H     23  21  19     2.066182174931   112.33835040     3.70934719
 H     23  21  19     2.082367587859   107.74783849   246.53150184
 C     24  23  21     2.900581165364   112.70622527    50.76721954
 H     24  23  21     2.073601450069   109.05291639   288.68180916
 H     24  23  21     2.072866187012   109.16811267   172.70196113
 C     27  24  23     2.901178571898   111.85692412   306.17384975
 H     27  24  23     2.068607667332   108.85168615   182.62713182
 H     27  24  23     2.079633287203   109.24534285    66.17197847
 C     21  19  15     2.830659287628   122.79598304   177.62867752
 H     33  21  19     2.089893195281   106.28595921   124.09159240
 C     33  21  19     2.881928912183   121.00636167     1.89850752
 H     13   3   2     1.826579394886   107.55178023    62.71798346
 C     35  33  21     2.926758218792   103.56290973   196.48920420
 H     35  33  21     2.069346009485   112.11546473    74.56325099
 H     35  33  21     2.070473388244   110.77173829   314.91858648
 C     30  27  24     2.938032658372   116.07400990   166.11843221
 H     37  35  33     2.068341420521   111.70970747   248.88142552
 H     37  35  33     2.072521621834   110.53711822   130.33385445
 H     40  30  27     2.082462001815   106.42380528   320.49442783
 C     40  30  27     2.925399366940   118.87952105    80.71657146
 C     30  27  24     2.899575326172   111.12942030   294.26132100
 H     45  30  27     2.067888163335   111.36378624    66.37175150
 H     45  30  27     2.070255578795   110.67923866   306.27227398
 H     45  30  27     2.068450728164   111.66560802   186.34403287
 H     44  40  30     2.083872061928   106.89314567    62.18198863
 C     44  40  30     2.887637228802   113.42004860   303.03372117
 C     44  40  30     2.854914025599   108.56200901   177.00395147
 C     51  44  40     2.520532521052   126.74844792   112.23217019
 H     51  44  40     2.063067941472   115.47150758   294.07917324
 H     52  51  44     2.061410297485   119.82835429     2.30017740
 C     52  51  44     2.843873444640   124.30496405   182.49484115
 C     55  52  51     2.901082336461   110.08569629   231.35631479
 C     55  52  51     2.936704494534   111.16943043   104.79612863
 H     55  52  51     2.079550027525   107.62750747   348.99546733
 H     57  55  52     2.080014671095   105.46593807   306.07778156
 C     57  55  52     2.892943461167   111.73428832   189.44256098
 C     57  55  52     2.892584940544   113.55323236    63.73840833
 H     56  55  52     2.069414737963   110.07660871    59.25049703
 H     56  55  52     2.070626998893   111.21010301   300.17322448
 H     56  55  52     2.068544282437   111.90559644   179.15921063
 H     60  57  55     2.070713051296   110.44232849   170.96032021
 H     60  57  55     2.071427364712   111.33387913    50.94333146
 H     60  57  55     2.070923507653   111.44291312   290.21613874
 H     61  57  55     2.071371528959   111.27367383    65.70700600
 H     61  57  55     2.069270795850   111.97829178   304.57344902
 H     61  57  55     2.070494020623   110.14652408   184.71142168
 H     50  44  40     2.069823667653   110.58418775   187.50386355
 H     50  44  40     2.063170457172   111.07624030    67.99618430
 H     50  44  40     2.071926735144   111.35584592   307.65355908

---------------------
BASIS SET INFORMATION
---------------------
There are 3 groups of distinct atoms

 Group   1 Type C   : 8s5p1d contracted to 3s3p1d pattern {521/311/1}
 Group   2 Type H   : 4s2p contracted to 2s1p pattern {31/2}
 Group   3 Type O   : 8s5p1d contracted to 3s3p1d pattern {521/311/1}

Atom   0C    basis set group =>   1
Atom   1C    basis set group =>   1
Atom   2C    basis set group =>   1
Atom   3H    basis set group =>   2
Atom   4H    basis set group =>   2
Atom   5C    basis set group =>   1
Atom   6C    basis set group =>   1
Atom   7C    basis set group =>   1
Atom   8H    basis set group =>   2
Atom   9H    basis set group =>   2
Atom  10H    basis set group =>   2
Atom  11H    basis set group =>   2
Atom  12O    basis set group =>   3
Atom  13H    basis set group =>   2
Atom  14C    basis set group =>   1
Atom  15C    basis set group =>   1
Atom  16H    basis set group =>   2
Atom  17H    basis set group =>   2
Atom  18C    basis set group =>   1
Atom  19H    basis set group =>   2
Atom  20C    basis set group =>   1
Atom  21H    basis set group =>   2
Atom  22C    basis set group =>   1
Atom  23C    basis set group =>   1
Atom  24H    basis set group =>   2
Atom  25H    basis set group =>   2
Atom  26C    basis set group =>   1
Atom  27H    basis set group =>   2
Atom  28H    basis set group =>   2
Atom  29C    basis set group =>   1
Atom  30H    basis set group =>   2
Atom  31H    basis set group =>   2
Atom  32C    basis set group =>   1
Atom  33H    basis set group =>   2
Atom  34C    basis set group =>   1
Atom  35H    basis set group =>   2
Atom  36C    basis set group =>   1
Atom  37H    basis set group =>   2
Atom  38H    basis set group =>   2
Atom  39C    basis set group =>   1
Atom  40H    basis set group =>   2
Atom  41H    basis set group =>   2
Atom  42H    basis set group =>   2
Atom  43C    basis set group =>   1
Atom  44C    basis set group =>   1
Atom  45H    basis set group =>   2
Atom  46H    basis set group =>   2
Atom  47H    basis set group =>   2
Atom  48H    basis set group =>   2
Atom  49C    basis set group =>   1
Atom  50C    basis set group =>   1
Atom  51C    basis set group =>   1
Atom  52H    basis set group =>   2
Atom  53H    basis set group =>   2
Atom  54C    basis set group =>   1
Atom  55C    basis set group =>   1
Atom  56C    basis set group =>   1
Atom  57H    basis set group =>   2
Atom  58H    basis set group =>   2
Atom  59C    basis set group =>   1
Atom  60C    basis set group =>   1
Atom  61H    basis set group =>   2
Atom  62H    basis set group =>   2
Atom  63H    basis set group =>   2
Atom  64H    basis set group =>   2
Atom  65H    basis set group =>   2
Atom  66H    basis set group =>   2
Atom  67H    basis set group =>   2
Atom  68H    basis set group =>   2
Atom  69H    basis set group =>   2
Atom  70H    basis set group =>   2
Atom  71H    basis set group =>   2
Atom  72H    basis set group =>   2

-------------------------
BASIS SET IN INPUT FORMAT
-------------------------

 # Basis set for element : H 
 NewGTO H 
 S 3 
   1      12.2518000000      0.0372173893
   2       1.8687100000      0.2538082070
   3       0.4182080000      0.7973867639
 S 1 
   1       0.1061000000      1.0000000000
 P 2 
   1       9.0000000000      0.0402678705
   2       1.0000000000      0.9880231245
  end;

 # Basis set for element : C 
 NewGTO C 
 S 5 
   1    1243.2000000000      0.0056300977
   2     187.1450000000      0.0419506039
   3      42.5126000000      0.1846643605
   4      11.7393000000      0.4665574214
   5       3.5054800000      0.4482347783
 S 2 
   1       5.3908900000     -0.1481148174
   2       0.4933410000      1.0519817143
 S 1 
   1       0.1497410000      1.0000000000
 P 3 
   1      59.6736000000      0.0113906672
   2       9.1805600000      0.1672414929
   3       1.9365800000      0.9041087436
 P 1 
   1       0.5262960000      1.0000000000
 P 1 
   1       0.1363190000      1.0000000000
 D 1 
   1       0.8000000000      1.0000000000
  end;

 # Basis set for element : O 
 NewGTO O 
 S 5 
   1    2288.6400000000      0.0054511382
   2     344.4160000000      0.0407189228
   3      78.2538000000      0.1813694209
   4      21.7195000000      0.4655368202
   5       6.5590700000      0.4512113212
 S 2 
   1      10.4656000000     -0.1502112012
   2       0.9643510000      1.0528679834
 S 1 
   1       0.2851270000      1.0000000000
 P 3 
   1     110.8840000000      0.0113058003
   2      17.0590000000      0.1699226452
   3       3.6899900000      0.9008060328
 P 1 
   1       0.9929960000      1.0000000000
 P 1 
   1       0.2449240000      1.0000000000
 D 1 
   1       1.0000000000      1.0000000000
  end;

---------------------------------
AUXILIARY/J BASIS SET INFORMATION
---------------------------------
There are 3 groups of distinct atoms

 Group   1 Type C   : 12s5p4d2f1g contracted to 6s4p3d1f1g pattern {711111/2111/211/2/1}
 Group   2 Type H   : 5s2p1d contracted to 3s1p1d pattern {311/2/1}
 Group   3 Type O   : 12s5p4d2f1g contracted to 6s4p3d1f1g pattern {711111/2111/211/2/1}

Atom   0C    basis set group =>   1
Atom   1C    basis set group =>   1
Atom   2C    basis set group =>   1
Atom   3H    basis set group =>   2
Atom   4H    basis set group =>   2
Atom   5C    basis set group =>   1
Atom   6C    basis set group =>   1
Atom   7C    basis set group =>   1
Atom   8H    basis set group =>   2
Atom   9H    basis set group =>   2
Atom  10H    basis set group =>   2
Atom  11H    basis set group =>   2
Atom  12O    basis set group =>   3
Atom  13H    basis set group =>   2
Atom  14C    basis set group =>   1
Atom  15C    basis set group =>   1
Atom  16H    basis set group =>   2
Atom  17H    basis set group =>   2
Atom  18C    basis set group =>   1
Atom  19H    basis set group =>   2
Atom  20C    basis set group =>   1
Atom  21H    basis set group =>   2
Atom  22C    basis set group =>   1
Atom  23C    basis set group =>   1
Atom  24H    basis set group =>   2
Atom  25H    basis set group =>   2
Atom  26C    basis set group =>   1
Atom  27H    basis set group =>   2
Atom  28H    basis set group =>   2
Atom  29C    basis set group =>   1
Atom  30H    basis set group =>   2
Atom  31H    basis set group =>   2
Atom  32C    basis set group =>   1
Atom  33H    basis set group =>   2
Atom  34C    basis set group =>   1
Atom  35H    basis set group =>   2
Atom  36C    basis set group =>   1
Atom  37H    basis set group =>   2
Atom  38H    basis set group =>   2
Atom  39C    basis set group =>   1
Atom  40H    basis set group =>   2
Atom  41H    basis set group =>   2
Atom  42H    basis set group =>   2
Atom  43C    basis set group =>   1
Atom  44C    basis set group =>   1
Atom  45H    basis set group =>   2
Atom  46H    basis set group =>   2
Atom  47H    basis set group =>   2
Atom  48H    basis set group =>   2
Atom  49C    basis set group =>   1
Atom  50C    basis set group =>   1
Atom  51C    basis set group =>   1
Atom  52H    basis set group =>   2
Atom  53H    basis set group =>   2
Atom  54C    basis set group =>   1
Atom  55C    basis set group =>   1
Atom  56C    basis set group =>   1
Atom  57H    basis set group =>   2
Atom  58H    basis set group =>   2
Atom  59C    basis set group =>   1
Atom  60C    basis set group =>   1
Atom  61H    basis set group =>   2
Atom  62H    basis set group =>   2
Atom  63H    basis set group =>   2
Atom  64H    basis set group =>   2
Atom  65H    basis set group =>   2
Atom  66H    basis set group =>   2
Atom  67H    basis set group =>   2
Atom  68H    basis set group =>   2
Atom  69H    basis set group =>   2
Atom  70H    basis set group =>   2
Atom  71H    basis set group =>   2
Atom  72H    basis set group =>   2

-------------------------------------
AUXILIARY/J BASIS SET IN INPUT FORMAT
-------------------------------------

 # Auxiliary/J basis set for element : H 
 NewAuxJGTO H 
 S 3 
   1      15.6752927000      0.1007184237
   2       3.6063578000      0.3404257499
   3       1.2080016000      0.6491996172
 S 1 
   1       0.4726794000      1.0000000000
 S 1 
   1       0.2018100000      1.0000000000
 P 2 
   1       2.0281365000      0.5596620919
   2       0.5358730000      0.5596620919
 D 1 
   1       2.2165124000      1.0000000000
  end;

 # Auxiliary/J basis set for element : C 
 NewAuxJGTO C 
 S 7 
   1    1861.0916331000      0.0134602335
   2     642.9939764000      0.0299160374
   3     235.1105725000      0.1008649584
   4      90.7028894000      0.2370970548
   5      36.7794552000      0.3924037254
   6      15.6046273000      0.3195862154
   7       6.8907294000      0.0530104441
 S 1 
   1       3.1478850000     -1.0000000000
 S 1 
   1       1.4777287000      1.0000000000
 S 1 
   1       0.7076466000      1.0000000000
 S 1 
   1       0.3430122000      1.0000000000
 S 1 
   1       0.1669453000      1.0000000000
 P 2 
   1      13.5472892000     -0.6769313712
   2       5.4669419000     -0.3779500978
 P 1 
   1       2.1751721000      1.0000000000
 P 1 
   1       0.8582194000      1.0000000000
 P 1 
   1       0.3376720000      1.0000000000
 D 2 
   1       5.9287253000     -0.3533329857
   2       1.9809209000     -0.7456525731
 D 1 
   1       0.8055417000     -1.0000000000
 D 1 
   1       0.3531244000     -1.0000000000
 F 2 
   1       1.6755626000      0.6311076882
   2       0.5997536000      0.4968166032
 G 1 
   1       1.0024600000     -1.0000000000
  end;

 # Auxiliary/J basis set for element : O 
 NewAuxJGTO O 
 S 7 
   1    2876.8216605000      0.0168151159
   2    1004.7443032000      0.0340137548
   3     369.7579954000      0.1194951309
   4     142.9442404000      0.2664627624
   5      57.8366425000      0.4202764046
   6      24.3864983000      0.2765077335
   7      10.6622662000      0.0057008815
 S 1 
   1       4.8070437000     -1.0000000000
 S 1 
   1       2.2210770000      1.0000000000
 S 1 
   1       1.0447795000      1.0000000000
 S 1 
   1       0.4968425000      1.0000000000
 S 1 
   1       0.2371384000      1.0000000000
 P 2 
   1      64.2613382000     -0.2731534179
   2      16.3006076000     -0.8168011598
 P 1 
   1       4.3550542000      1.0000000000
 P 1 
   1       1.2019554000      1.0000000000
 P 1 
   1       0.3354196000      1.0000000000
 D 2 
   1       9.2146611000     -0.4661230638
   2       2.8435251000     -0.6600908911
 D 1 
   1       0.9955759000     -1.0000000000
 D 1 
   1       0.3649441000     -1.0000000000
 F 2 
   1       2.6420115000      0.5931563945
   2       0.7345613000      0.5931563945
 G 1 
   1       1.3931000000     -1.0000000000
  end;



           ************************************************************
           *        Program running with 4 parallel MPI-processes     *
           *              working on a common directory               *
           ************************************************************
------------------------------------------------------------------------------
                           ORCA GTO INTEGRAL CALCULATION
                           -- RI-GTO INTEGRALS CHOSEN --
------------------------------------------------------------------------------
------------------------------------------------------------------------------
                   ___                                                        
                  /   \      - P O W E R E D   B Y -                         
                 /     \                                                     
                 |  |  |   _    _      __       _____    __    __             
                 |  |  |  | |  | |    /  \     |  _  \  |  |  /  |          
                  \  \/   | |  | |   /    \    | | | |  |  | /  /          
                 / \  \   | |__| |  /  /\  \   | |_| |  |  |/  /          
                |  |  |   |  __  | /  /__\  \  |    /   |      \           
                |  |  |   | |  | | |   __   |  |    \   |  |\   \          
                \     /   | |  | | |  |  |  |  | |\  \  |  | \   \       
                 \___/    |_|  |_| |__|  |__|  |_| \__\ |__|  \__/        
                                                                              
                      - O R C A' S   B I G   F R I E N D -                    
                                      &                                       
                       - I N T E G R A L  F E E D E R -                       
                                                                              
 v1 FN, 2020, v2 2021                                                         
------------------------------------------------------------------------------


Reading SHARK input file inpS.SHARKINP.tmp ... ok
----------------------
SHARK INTEGRAL PACKAGE
----------------------

Number of atoms                             ...     73
Number of basis functions                   ...    713
Number of shells                            ...    335
Maximum angular momentum                    ...      2
Integral batch strategy                     ... SHARK/LIBINT Hybrid
RI-J (if used) integral strategy            ... SPLIT-RIJ (Revised 2003 algorithm where possible)
Printlevel                                  ...      1
Contraction scheme used                     ... SEGMENTED contraction
Coulomb Range Separation                    ... NOT USED
Exchange Range Separation                   ... NOT USED
Finite Nucleus Model                        ... NOT USED
Auxiliary Coulomb fitting basis             ... AVAILABLE
   # of basis functions in Aux-J            ...   1905
   # of shells in Aux-J                     ...    655
   Maximum angular momentum in Aux-J        ...      4
Auxiliary J/K fitting basis                 ... NOT available
Auxiliary Correlation fitting basis         ... NOT available
Auxiliary 'external' fitting basis          ... NOT available
Integral threshold                          ...     3.000000e-11
Primitive cut-off                           ...     1.000000e-12
Primitive pair pre-selection threshold      ...     1.000000e-12

Calculating pre-screening integrals         ... done (  0.0 sec) Dimension = 335
Organizing shell pair data                  ... done (  0.2 sec)
Shell pair information
Total number of shell pairs                 ...     56280
Shell pairs after pre-screening             ...     31207
Total number of primitive shell pairs       ...    225367
Primitive shell pairs kept                  ...     73433
          la=0 lb=0:   9534 shell pairs
          la=1 lb=0:  12828 shell pairs
          la=1 lb=1:   4194 shell pairs
          la=2 lb=0:   2729 shell pairs
          la=2 lb=1:   1730 shell pairs
          la=2 lb=2:    192 shell pairs

Calculating one electron integrals          ... done (  0.1 sec)
Calculating RI/J V-Matrix + Cholesky decomp.... done (  0.1 sec)
Calculating Nuclear repulsion               ... done (  0.0 sec) ENN=   2751.536397279427 Eh

SHARK setup successfully completed in   0.6 seconds

Maximum memory used throughout the entire GTOINT-calculation: 60.8 MB


           ************************************************************
           *        Program running with 4 parallel MPI-processes     *
           *              working on a common directory               *
           ************************************************************
-------------------------------------------------------------------------------
                                 ORCA SCF
-------------------------------------------------------------------------------

------------
SCF SETTINGS
------------
Hamiltonian:
 Density Functional     Method          .... DFT(GTOs)
 Exchange Functional    Exchange        .... revTPSS
 Correlation Functional Correlation     .... revTPSS
 LDA part of GGA corr.  LDAOpt          .... PW91-LDA
 Gradients option       PostSCFGGA      .... off
   Density functional embedding theory  .... OFF
 RI-approximation to the Coulomb term is turned on
   Number of AuxJ basis functions       .... 1905


General Settings:
 Integral files         IntName         .... inpS
 Hartree-Fock type      HFTyp           .... RHF
 Total Charge           Charge          ....    0
 Multiplicity           Mult            ....    1
 Number of Electrons    NEL             ....  220
 Basis Dimension        Dim             ....  713
 Nuclear Repulsion      ENuc            ....   2751.5363972794 Eh

Convergence Acceleration:
 DIIS                   CNVDIIS         .... on
   Start iteration      DIISMaxIt       ....    12
   Startup error        DIISStart       ....  0.200000
   # of expansion vecs  DIISMaxEq       ....     5
   Bias factor          DIISBfac        ....   1.050
   Max. coefficient     DIISMaxC        ....  10.000
 Trust-Rad. Augm. Hess. CNVTRAH         .... auto
   Auto Start mean grad. ratio tolernc. ....  1.125000
   Auto Start start iteration           ....    20
   Auto Start num. interpolation iter.  ....    10
   Max. Number of Micro iterations      ....    16
   Max. Number of Macro iterations      .... Maxiter - #DIIS iter
   Number of Davidson start vectors     ....     2
   Converg. threshold I  (grad. norm)   ....   1.000e-04
   Converg. threshold II (energy diff.) ....   1.000e-07
   Grad. Scal. Fac. for Micro threshold ....   0.100
   Minimum threshold for Micro iter.    ....   0.010
   NR start threshold (gradient norm)   ....   0.001
   Initial trust radius                 ....   0.400
   Minimum AH scaling param. (alpha)    ....   1.000
   Maximum AH scaling param. (alpha)    .... 1000.000
   Orbital update algorithm             .... Taylor
   White noise on init. David. guess    .... on
   Maximum white noise                  ....   0.010
   Quad. conv. algorithm                .... NR
 SOSCF                  CNVSOSCF        .... off
 Level Shifting         CNVShift        .... on
   Level shift para.    LevelShift      ....    0.2500
   Turn off err/grad.   ShiftErr        ....    0.0010
 Zerner damping         CNVZerner       .... off
 Static damping         CNVDamp         .... on
   Fraction old density DampFac         ....    0.7000
   Max. Damping (<1)    DampMax         ....    0.9800
   Min. Damping (>=0)   DampMin         ....    0.0000
   Turn off err/grad.   DampErr         ....    0.1000
 Fernandez-Rico         CNVRico         .... off

SCF Procedure:
 Maximum # iterations   MaxIter         ....   125
 SCF integral mode      SCFMode         .... Direct
   Integral package                     .... SHARK and LIBINT hybrid scheme
 Reset frequency        DirectResetFreq ....    20
 Integral Threshold     Thresh          ....  3.000e-11 Eh
 Primitive CutOff       TCut            ....  1.000e-12 Eh

Convergence Tolerance:
 Convergence Check Mode ConvCheckMode   .... Total+1el-Energy
 Convergence forced     ConvForced      .... 0
 Energy Change          TolE            ....  1.000e-07 Eh
 1-El. energy change                    ....  1.000e-04 Eh
 DIIS Error             TolErr          ....  1.000e-07


Diagonalization of the overlap matrix:
Smallest eigenvalue                        ... 5.066e-04
Time for diagonalization                   ...    0.060 sec
Threshold for overlap eigenvalues          ... 1.000e-08
Number of eigenvalues below threshold      ... 0
Time for construction of square roots      ...    0.066 sec
Total time needed                          ...    0.127 sec

Time for model grid setup =    0.861 sec

------------------------------
INITIAL GUESS: MODEL POTENTIAL
------------------------------
Loading Hartree-Fock densities                     ... done
Calculating cut-offs                               ... done
Initializing the effective Hamiltonian             ... done
Setting up the integral package (SHARK)            ... done
Starting the Coulomb interaction                   ... done (   0.6 sec)
Reading the grid                                   ... done
Mapping shells                                     ... done
Starting the XC term evaluation                    ... done (   0.4 sec)
  promolecular density results
     # of electrons  =    219.989635192
     EX              =   -164.433105426
     EC              =     -7.324238324
     EX+EC           =   -171.757343750
Transforming the Hamiltonian                       ... done (   0.1 sec)
Diagonalizing the Hamiltonian                      ... done (   0.1 sec)
Back transforming the eigenvectors                 ... done (   0.0 sec)
Now organizing SCF variables                       ... done
                      ------------------
                      INITIAL GUESS DONE (   2.1 sec)
                      ------------------
-------------------
DFT GRID GENERATION
-------------------

General Integration Accuracy     IntAcc      ... 4.388
Radial Grid Type                 RadialGrid  ... OptM3 with GC (2021)
Angular Grid (max. ang.)         AngularGrid ... 4 (Lebedev-302)
Angular grid pruning method      GridPruning ... 4 (adaptive)
Weight generation scheme         WeightScheme... Becke
Basis function cutoff            BFCut       ... 1.0000e-11
Integration weight cutoff        WCut        ... 1.0000e-14
Angular grids for H and He will be reduced by one unit
Partially contracted basis set               ... off
Rotationally invariant grid construction     ... off

Total number of grid points                  ...   309938
Total number of batches                      ...     4876
Average number of points per batch           ...       63
Average number of grid points per atom       ...     4246
Time for grid setup =    3.055 sec


--------------------
CPCM SOLVATION MODEL
--------------------
CPCM parameters:
  Epsilon                                         ...       4.9000
  Refrac                                          ...       1.4500
  Rsolv                                           ...       1.3000
  Surface type                                    ... GAUSSIAN VDW
  Epsilon function type                           ...         CPCM
Radii:
 Radius for C  used is    3.8550 Bohr (=   2.0400 Ang.)
 Radius for H  used is    2.4944 Bohr (=   1.3200 Ang.)
 Radius for O  used is    3.4469 Bohr (=   1.8240 Ang.)
Calculating surface                               ...        done! (  0.0s)
GEPOL surface points                              ...         3627
GEPOL Volume                                      ...    3598.9395
GEPOL Surface-area                                ...    1790.9119
Calculating surface distance matrix               ...        done! (  0.1s)
Performing Cholesky decomposition & store         ...        done! (  0.5s)
Overall time for CPCM initialization              ...                 0.6s
--------------
SCF ITERATIONS
--------------
ITER       Energy         Delta-E        Max-DP      RMS-DP      [F,P]     Damp
               ***  Starting incremental Fock matrix formation  ***

  HOMO= 109 E= -1.865 eV LUMO=  7.826 eV gap=   9.691 eV
  0  -1167.5237078959   0.000000000000 0.05343071  0.00082873  0.2621807 0.7000

  HOMO= 109 E= -3.349 eV LUMO=  6.713 eV gap=  10.061 eV
  1  -1167.8966489869  -0.372941091013 0.02889511  0.00061214  0.1023715 0.7000
                               ***Turning on DIIS***

  HOMO= 109 E= -4.325 eV LUMO=  5.822 eV gap=  10.147 eV
  2  -1168.0430589689  -0.146409981942 0.05167189  0.00101192  0.0307957 0.0000

  HOMO= 109 E= -4.954 eV LUMO=  5.229 eV gap=  10.183 eV
  3  -1168.2401504221  -0.197091453268 0.02314895  0.00047128  0.0537111 0.0000

  HOMO= 109 E= -4.990 eV LUMO=  5.193 eV gap=  10.183 eV
  4  -1168.3071914373  -0.067041015148 0.00756000  0.00015344  0.0103993 0.0000

  HOMO= 109 E= -4.941 eV LUMO=  5.249 eV gap=  10.190 eV
  5  -1168.3102775069  -0.003086069643 0.00305094  0.00005675  0.0091448 0.0000

  HOMO= 109 E= -4.922 eV LUMO=  5.266 eV gap=  10.188 eV
  6  -1168.3105464229  -0.000268915948 0.00121396  0.00001927  0.0027892 0.0000

  HOMO= 109 E= -4.923 eV LUMO= -1.539 eV gap=   3.385 eV
  7  -1168.3105662159  -0.000019793031 0.00070450  0.00001172  0.0005844 0.0000

  HOMO= 109 E= -4.922 eV LUMO= -1.537 eV gap=   3.385 eV
  8  -1168.3105692078  -0.000002991935 0.00026009  0.00000286  0.0003966 0.0000

  HOMO= 109 E= -4.920 eV LUMO= -1.535 eV gap=   3.385 eV
  9  -1168.3105698155  -0.000000607634 0.00016011  0.00000156  0.0002643 0.0000

  HOMO= 109 E= -4.920 eV LUMO= -1.536 eV gap=   3.385 eV
 10  -1168.3105700780  -0.000000262550 0.00006511  0.00000071  0.0001014 0.0000

  HOMO= 109 E= -4.920 eV LUMO= -1.536 eV gap=   3.385 eV
 11  -1168.3105701108  -0.000000032781 0.00002555  0.00000028  0.0000370 0.0000

  HOMO= 109 E= -4.920 eV LUMO= -1.536 eV gap=   3.385 eV
 12  -1168.3105700879   0.000000022937 0.00001340  0.00000012  0.0000193 0.0000

  HOMO= 109 E= -4.920 eV LUMO= -1.536 eV gap=   3.385 eV
 13  -1168.3105701245  -0.000000036606 0.00000649  0.00000006  0.0000081 0.0000
                 **** Energy Check signals convergence ****

               *****************************************************
               *                     SUCCESS                       *
               *           SCF CONVERGED AFTER  14 CYCLES          *
               *****************************************************


----------------
TOTAL SCF ENERGY
----------------

Total Energy       :        -1168.31057014 Eh          -31791.34685 eV

Components:
Nuclear Repulsion  :         2751.53639728 Eh           74873.11185 eV
Electronic Energy  :        -3919.84696742 Eh         -106664.45870 eV
One Electron Energy:        -7049.40211659 Eh         -191823.98374 eV
Two Electron Energy:         3129.55514917 Eh           85159.52504 eV
CPCM Dielectric    :           -0.01045076 Eh              -0.28438 eV

Virial components:
Potential Energy   :        -2330.41717879 Eh          -63413.87533 eV
Kinetic Energy     :         1162.10660865 Eh           31622.52848 eV
Virial Ratio       :            2.00533855


DFT components:
N(Alpha)           :      110.000185415127 electrons
N(Beta)            :      110.000185415127 electrons
N(Total)           :      220.000370830253 electrons
E(X)               :     -169.584838452362 Eh       
E(C)               :       -7.441491501336 Eh       
E(XC)              :     -177.026329953698 Eh       
DFET-embed. en.    :        0.000000000000 Eh       
CPCM Solvation Model Properties:
Surface-charge          :           -0.04559425
Charge-correction       :           -0.00002162 Eh              -0.00059 eV
Free-energy (cav+disp)  :  This term is not implemented in the current solvation scheme

---------------
SCF CONVERGENCE
---------------

  Last Energy change         ...   -1.5373e-08  Tolerance :   1.0000e-07
  Last MAX-Density change    ...    3.0788e-06  Tolerance :   1.0000e-05
  Last RMS-Density change    ...    2.8319e-08  Tolerance :   1.0000e-06
  Last DIIS Error            ...    3.7607e-06  Tolerance :   1.0000e-07

             **** THE GBW FILE WAS UPDATED (inpS.gbw) ****
             **** DENSITY inpS.scfp WAS UPDATED ****
             **** ENERGY FILE WAS UPDATED (inpS.en.tmp) ****
             **** THE GBW FILE WAS UPDATED (inpS.gbw) ****
             **** DENSITY inpS.scfp WAS UPDATED ****
----------------
ORBITAL ENERGIES
----------------

  NO   OCC          E(Eh)            E(eV) 
   0   2.0000     -18.905676      -514.4496 
   1   2.0000     -10.057157      -273.6692 
   2   2.0000     -10.015990      -272.5489 
   3   2.0000     -10.013532      -272.4821 
   4   2.0000     -10.013478      -272.4806 
   5   2.0000     -10.011831      -272.4358 
   6   2.0000     -10.011808      -272.4351 
   7   2.0000     -10.010322      -272.3947 
   8   2.0000     -10.008586      -272.3475 
   9   2.0000     -10.008451      -272.3438 
  10   2.0000     -10.007905      -272.3289 
  11   2.0000     -10.007193      -272.3096 
  12   2.0000     -10.007182      -272.3093 
  13   2.0000     -10.006812      -272.2992 
  14   2.0000     -10.006664      -272.2952 
  15   2.0000     -10.006016      -272.2775 
  16   2.0000     -10.004222      -272.2287 
  17   2.0000     -10.001108      -272.1440 
  18   2.0000     -10.000543      -272.1286 
  19   2.0000     -10.000286      -272.1216 
  20   2.0000      -9.999857      -272.1100 
  21   2.0000      -9.998651      -272.0771 
  22   2.0000      -9.997966      -272.0585 
  23   2.0000      -9.996592      -272.0211 
  24   2.0000      -9.995978      -272.0044 
  25   2.0000      -9.995814      -271.9999 
  26   2.0000      -9.995542      -271.9925 
  27   2.0000      -9.995279      -271.9854 
  28   2.0000      -9.995060      -271.9794 
  29   2.0000      -0.955942       -26.0125 
  30   2.0000      -0.807631       -21.9768 
  31   2.0000      -0.791148       -21.5282 
  32   2.0000      -0.769744       -20.9458 
  33   2.0000      -0.756676       -20.5902 
  34   2.0000      -0.734622       -19.9901 
  35   2.0000      -0.728131       -19.8135 
  36   2.0000      -0.708757       -19.2863 
  37   2.0000      -0.708144       -19.2696 
  38   2.0000      -0.692857       -18.8536 
  39   2.0000      -0.675906       -18.3923 
  40   2.0000      -0.658330       -17.9141 
  41   2.0000      -0.652164       -17.7463 
  42   2.0000      -0.635928       -17.3045 
  43   2.0000      -0.629363       -17.1258 
  44   2.0000      -0.623481       -16.9658 
  45   2.0000      -0.616556       -16.7773 
  46   2.0000      -0.591250       -16.0887 
  47   2.0000      -0.588316       -16.0089 
  48   2.0000      -0.561392       -15.2763 
  49   2.0000      -0.549195       -14.9444 
  50   2.0000      -0.547746       -14.9049 
  51   2.0000      -0.537822       -14.6349 
  52   2.0000      -0.527351       -14.3499 
  53   2.0000      -0.502787       -13.6815 
  54   2.0000      -0.490214       -13.3394 
  55   2.0000      -0.481422       -13.1002 
  56   2.0000      -0.472874       -12.8675 
  57   2.0000      -0.464250       -12.6329 
  58   2.0000      -0.451370       -12.2824 
  59   2.0000      -0.444579       -12.0976 
  60   2.0000      -0.433889       -11.8067 
  61   2.0000      -0.429977       -11.7003 
  62   2.0000      -0.419956       -11.4276 
  63   2.0000      -0.415127       -11.2962 
  64   2.0000      -0.413663       -11.2563 
  65   2.0000      -0.408416       -11.1136 
  66   2.0000      -0.403762       -10.9869 
  67   2.0000      -0.396813       -10.7978 
  68   2.0000      -0.395649       -10.7662 
  69   2.0000      -0.394837       -10.7441 
  70   2.0000      -0.386855       -10.5269 
  71   2.0000      -0.382356       -10.4044 
  72   2.0000      -0.375845       -10.2273 
  73   2.0000      -0.374341       -10.1863 
  74   2.0000      -0.371649       -10.1131 
  75   2.0000      -0.360481        -9.8092 
  76   2.0000      -0.358512        -9.7556 
  77   2.0000      -0.357147        -9.7185 
  78   2.0000      -0.353522        -9.6198 
  79   2.0000      -0.347993        -9.4694 
  80   2.0000      -0.346682        -9.4337 
  81   2.0000      -0.344575        -9.3764 
  82   2.0000      -0.343038        -9.3345 
  83   2.0000      -0.335792        -9.1374 
  84   2.0000      -0.331933        -9.0324 
  85   2.0000      -0.329247        -8.9593 
  86   2.0000      -0.325328        -8.8526 
  87   2.0000      -0.320628        -8.7247 
  88   2.0000      -0.318357        -8.6629 
  89   2.0000      -0.313288        -8.5250 
  90   2.0000      -0.309233        -8.4147 
  91   2.0000      -0.309137        -8.4120 
  92   2.0000      -0.302860        -8.2412 
  93   2.0000      -0.296144        -8.0585 
  94   2.0000      -0.289714        -7.8835 
  95   2.0000      -0.286549        -7.7974 
  96   2.0000      -0.284332        -7.7371 
  97   2.0000      -0.281634        -7.6636 
  98   2.0000      -0.279908        -7.6167 
  99   2.0000      -0.279176        -7.5968 
 100   2.0000      -0.276253        -7.5172 
 101   2.0000      -0.273369        -7.4388 
 102   2.0000      -0.272450        -7.4137 
 103   2.0000      -0.266895        -7.2626 
 104   2.0000      -0.261338        -7.1114 
 105   2.0000      -0.250429        -6.8145 
 106   2.0000      -0.233540        -6.3549 
 107   2.0000      -0.227445        -6.1891 
 108   2.0000      -0.212449        -5.7810 
 109   2.0000      -0.180816        -4.9203 
 110   0.0000      -0.056434        -1.5356 
 111   0.0000      -0.013223        -0.3598 
 112   0.0000      -0.005533        -0.1506 
 113   0.0000       0.029729         0.8090 
 114   0.0000       0.040230         1.0947 
 115   0.0000       0.042702         1.1620 
 116   0.0000       0.047834         1.3016 
 117   0.0000       0.048886         1.3303 
 118   0.0000       0.050820         1.3829 
 119   0.0000       0.053412         1.4534 
 120   0.0000       0.058761         1.5990 
 121   0.0000       0.067242         1.8298 
 122   0.0000       0.070868         1.9284 
 123   0.0000       0.074458         2.0261 
 124   0.0000       0.075725         2.0606 
 125   0.0000       0.077239         2.1018 
 126   0.0000       0.084717         2.3053 
 127   0.0000       0.087035         2.3684 
 128   0.0000       0.090308         2.4574 
 129   0.0000       0.092611         2.5201 
 130   0.0000       0.098187         2.6718 
 131   0.0000       0.100002         2.7212 
 132   0.0000       0.101683         2.7669 
 133   0.0000       0.105043         2.8584 
 134   0.0000       0.108305         2.9471 
 135   0.0000       0.113305         3.0832 
 136   0.0000       0.115787         3.1507 
 137   0.0000       0.119822         3.2605 
 138   0.0000       0.120287         3.2732 
 139   0.0000       0.125129         3.4049 
 140   0.0000       0.126435         3.4405 
 141   0.0000       0.128119         3.4863 
 142   0.0000       0.130318         3.5461 
 143   0.0000       0.132006         3.5921 
 144   0.0000       0.135567         3.6890 
 145   0.0000       0.137006         3.7281 
 146   0.0000       0.143038         3.8923 
 147   0.0000       0.145527         3.9600 
 148   0.0000       0.148105         4.0301 
 149   0.0000       0.150923         4.1068 
 150   0.0000       0.153026         4.1641 
 151   0.0000       0.157845         4.2952 
 152   0.0000       0.161004         4.3811 
 153   0.0000       0.165018         4.4904 
 154   0.0000       0.168267         4.5788 
 155   0.0000       0.170564         4.6413 
 156   0.0000       0.175429         4.7737 
 157   0.0000       0.178099         4.8463 
 158   0.0000       0.179593         4.8870 
 159   0.0000       0.185717         5.0536 
 160   0.0000       0.189760         5.1636 
 161   0.0000       0.190574         5.1858 
 162   0.0000       0.194952         5.3049 
 163   0.0000       0.196498         5.3470 
 164   0.0000       0.199797         5.4368 
 165   0.0000       0.203349         5.5334 
 166   0.0000       0.205892         5.6026 
 167   0.0000       0.209660         5.7052 
 168   0.0000       0.215329         5.8594 
 169   0.0000       0.216418         5.8890 
 170   0.0000       0.225487         6.1358 
 171   0.0000       0.229114         6.2345 
 172   0.0000       0.229784         6.2527 
 173   0.0000       0.230899         6.2831 
 174   0.0000       0.239439         6.5155 
 175   0.0000       0.243483         6.6255 
 176   0.0000       0.250910         6.8276 
 177   0.0000       0.256378         6.9764 
 178   0.0000       0.265214         7.2168 
 179   0.0000       0.269391         7.3305 
 180   0.0000       0.274600         7.4722 
 181   0.0000       0.287154         7.8139 
 182   0.0000       0.287291         7.8176 
 183   0.0000       0.293666         7.9910 
 184   0.0000       0.295365         8.0373 
 185   0.0000       0.330316         8.9883 
 186   0.0000       0.331248         9.0137 
 187   0.0000       0.338480         9.2105 
 188   0.0000       0.344701         9.3798 
 189   0.0000       0.346017         9.4156 
 190   0.0000       0.351688         9.5699 
 191   0.0000       0.361486         9.8365 
 192   0.0000       0.367300         9.9947 
 193   0.0000       0.370216        10.0741 
 194   0.0000       0.372331        10.1316 
 195   0.0000       0.377569        10.2742 
 196   0.0000       0.381559        10.3828 
 197   0.0000       0.384466        10.4618 
 198   0.0000       0.392355        10.6765 
 199   0.0000       0.398254        10.8370 
 200   0.0000       0.400687        10.9033 
 201   0.0000       0.406046        11.0491 
 202   0.0000       0.410125        11.1601 
 203   0.0000       0.414649        11.2832 
 204   0.0000       0.421774        11.4771 
 205   0.0000       0.430610        11.7175 
 206   0.0000       0.431127        11.7316 
 207   0.0000       0.435894        11.8613 
 208   0.0000       0.444347        12.0913 
 209   0.0000       0.453843        12.3497 
 210   0.0000       0.457087        12.4380 
 211   0.0000       0.469152        12.7663 
 212   0.0000       0.469747        12.7825 
 213   0.0000       0.474031        12.8990 
 214   0.0000       0.476398        12.9635 
 215   0.0000       0.478495        13.0205 
 216   0.0000       0.488662        13.2972 
 217   0.0000       0.489711        13.3257 
 218   0.0000       0.498790        13.5728 
 219   0.0000       0.504377        13.7248 
 220   0.0000       0.509573        13.8662 
 221   0.0000       0.512733        13.9522 
 222   0.0000       0.517871        14.0920 
 223   0.0000       0.526342        14.3225 
 224   0.0000       0.529733        14.4148 
 225   0.0000       0.534430        14.5426 
 226   0.0000       0.539155        14.6712 
 227   0.0000       0.541835        14.7441 
 228   0.0000       0.546917        14.8824 
 229   0.0000       0.550082        14.9685 
 230   0.0000       0.551909        15.0182 
 231   0.0000       0.555486        15.1156 
 232   0.0000       0.556507        15.1433 
 233   0.0000       0.564580        15.3630 
 234   0.0000       0.566058        15.4032 
 235   0.0000       0.569279        15.4909 
 236   0.0000       0.570279        15.5181 
 237   0.0000       0.574462        15.6319 
 238   0.0000       0.575568        15.6620 
 239   0.0000       0.577763        15.7217 
 240   0.0000       0.581920        15.8348 
 241   0.0000       0.585014        15.9190 
 242   0.0000       0.585617        15.9354 
 243   0.0000       0.586343        15.9552 
 244   0.0000       0.593806        16.1583 
 245   0.0000       0.594760        16.1843 
 246   0.0000       0.595926        16.2160 
 247   0.0000       0.597580        16.2610 
 248   0.0000       0.598229        16.2787 
 249   0.0000       0.604028        16.4364 
 250   0.0000       0.605223        16.4690 
 251   0.0000       0.606470        16.5029 
 252   0.0000       0.610844        16.6219 
 253   0.0000       0.612343        16.6627 
 254   0.0000       0.614277        16.7153 
 255   0.0000       0.616613        16.7789 
 256   0.0000       0.620968        16.8974 
 257   0.0000       0.624949        17.0057 
 258   0.0000       0.627166        17.0660 
 259   0.0000       0.629227        17.1221 
 260   0.0000       0.630677        17.1616 
 261   0.0000       0.633328        17.2337 
 262   0.0000       0.639088        17.3905 
 263   0.0000       0.640426        17.4269 
 264   0.0000       0.643082        17.4991 
 265   0.0000       0.644516        17.5382 
 266   0.0000       0.648828        17.6555 
 267   0.0000       0.651797        17.7363 
 268   0.0000       0.653348        17.7785 
 269   0.0000       0.659531        17.9467 
 270   0.0000       0.661294        17.9947 
 271   0.0000       0.663095        18.0437 
 272   0.0000       0.665408        18.1067 
 273   0.0000       0.666661        18.1408 
 274   0.0000       0.672484        18.2992 
 275   0.0000       0.673659        18.3312 
 276   0.0000       0.680008        18.5039 
 277   0.0000       0.683980        18.6120 
 278   0.0000       0.685633        18.6570 
 279   0.0000       0.691322        18.8118 
 280   0.0000       0.694179        18.8896 
 281   0.0000       0.697705        18.9855 
 282   0.0000       0.704570        19.1723 
 283   0.0000       0.705148        19.1881 
 284   0.0000       0.707850        19.2616 
 285   0.0000       0.710556        19.3352 
 286   0.0000       0.714577        19.4446 
 287   0.0000       0.718538        19.5524 
 288   0.0000       0.725426        19.7399 
 289   0.0000       0.727851        19.8058 
 290   0.0000       0.736513        20.0415 
 291   0.0000       0.744717        20.2648 
 292   0.0000       0.746948        20.3255 
 293   0.0000       0.750772        20.4295 
 294   0.0000       0.757304        20.6073 
 295   0.0000       0.767910        20.8959 
 296   0.0000       0.769010        20.9258 
 297   0.0000       0.777403        21.1542 
 298   0.0000       0.779153        21.2018 
 299   0.0000       0.786953        21.4141 
 300   0.0000       0.794394        21.6166 
 301   0.0000       0.802120        21.8268 
 302   0.0000       0.811139        22.0722 
 303   0.0000       0.819873        22.3099 
 304   0.0000       0.835407        22.7326 
 305   0.0000       0.848874        23.0990 
 306   0.0000       0.853634        23.2286 
 307   0.0000       0.882357        24.0101 
 308   0.0000       0.887447        24.1487 
 309   0.0000       0.898768        24.4567 
 310   0.0000       0.915886        24.9225 
 311   0.0000       0.923001        25.1161 
 312   0.0000       0.941976        25.6325 
 313   0.0000       0.950697        25.8698 
 314   0.0000       0.954373        25.9698 
 315   0.0000       0.971757        26.4429 
 316   0.0000       0.985551        26.8182 
 317   0.0000       1.023753        27.8577 
 318   0.0000       1.035279        28.1714 
 319   0.0000       1.040310        28.3083 
 320   0.0000       1.048446        28.5297 
 321   0.0000       1.062590        28.9145 
 322   0.0000       1.078433        29.3457 
 323   0.0000       1.110178        30.2095 
 324   0.0000       1.122191        30.5364 
 325   0.0000       1.139856        31.0171 
 326   0.0000       1.144033        31.1307 
 327   0.0000       1.158413        31.5220 
 328   0.0000       1.173152        31.9231 
 329   0.0000       1.179769        32.1031 
 330   0.0000       1.199549        32.6414 
 331   0.0000       1.201958        32.7069 
 332   0.0000       1.212192        32.9854 
 333   0.0000       1.250272        34.0216 
 334   0.0000       1.251615        34.0582 
 335   0.0000       1.266952        34.4755 
 336   0.0000       1.275581        34.7103 
 337   0.0000       1.284949        34.9653 
 338   0.0000       1.300561        35.3901 
 339   0.0000       1.316179        35.8150 
 340   0.0000       1.328833        36.1594 
 341   0.0000       1.342948        36.5435 
 342   0.0000       1.349938        36.7337 
 343   0.0000       1.353500        36.8306 
 344   0.0000       1.361445        37.0468 
 345   0.0000       1.377165        37.4746 
 346   0.0000       1.380592        37.5678 
 347   0.0000       1.386231        37.7213 
 348   0.0000       1.404168        38.2094 
 349   0.0000       1.411069        38.3971 
 350   0.0000       1.421053        38.6688 
 351   0.0000       1.431787        38.9609 
 352   0.0000       1.433841        39.0168 
 353   0.0000       1.449484        39.4425 
 354   0.0000       1.453302        39.5464 
 355   0.0000       1.463578        39.8260 
 356   0.0000       1.473704        40.1015 
 357   0.0000       1.492146        40.6034 
 358   0.0000       1.500353        40.8267 
 359   0.0000       1.508640        41.0522 
 360   0.0000       1.516158        41.2567 
 361   0.0000       1.521055        41.3900 
 362   0.0000       1.536690        41.8155 
 363   0.0000       1.538810        41.8731 
 364   0.0000       1.548590        42.1393 
 365   0.0000       1.560898        42.4742 
 366   0.0000       1.573375        42.8137 
 367   0.0000       1.577692        42.9312 
 368   0.0000       1.592191        43.3257 
 369   0.0000       1.600457        43.5506 
 370   0.0000       1.606985        43.7283 
 371   0.0000       1.617671        44.0191 
 372   0.0000       1.625978        44.2451 
 373   0.0000       1.635337        44.4998 
 374   0.0000       1.641945        44.6796 
 375   0.0000       1.650906        44.9234 
 376   0.0000       1.666979        45.3608 
 377   0.0000       1.671223        45.4763 
 378   0.0000       1.678197        45.6661 
 379   0.0000       1.686596        45.8946 
 380   0.0000       1.689934        45.9854 
 381   0.0000       1.693912        46.0937 
 382   0.0000       1.702554        46.3288 
 383   0.0000       1.707243        46.4564 
 384   0.0000       1.713819        46.6354 
 385   0.0000       1.722472        46.8708 
 386   0.0000       1.727992        47.0211 
 387   0.0000       1.729445        47.0606 
 388   0.0000       1.736337        47.2481 
 389   0.0000       1.739337        47.3298 
 390   0.0000       1.743026        47.4301 
 391   0.0000       1.748972        47.5919 
 392   0.0000       1.760460        47.9046 
 393   0.0000       1.763242        47.9803 
 394   0.0000       1.769653        48.1547 
 395   0.0000       1.771841        48.2142 
 396   0.0000       1.779649        48.4267 
 397   0.0000       1.781536        48.4781 
 398   0.0000       1.789389        48.6917 
 399   0.0000       1.791547        48.7505 
 400   0.0000       1.796435        48.8835 
 401   0.0000       1.802636        49.0522 
 402   0.0000       1.806805        49.1657 
 403   0.0000       1.813340        49.3435 
 404   0.0000       1.819227        49.5037 
 405   0.0000       1.819993        49.5245 
 406   0.0000       1.827985        49.7420 
 407   0.0000       1.835376        49.9431 
 408   0.0000       1.841403        50.1071 
 409   0.0000       1.846475        50.2451 
 410   0.0000       1.849242        50.3204 
 411   0.0000       1.866005        50.7766 
 412   0.0000       1.875004        51.0214 
 413   0.0000       1.881472        51.1975 
 414   0.0000       1.884894        51.2906 
 415   0.0000       1.891044        51.4579 
 416   0.0000       1.899881        51.6984 
 417   0.0000       1.903925        51.8084 
 418   0.0000       1.906082        51.8671 
 419   0.0000       1.910731        51.9936 
 420   0.0000       1.921921        52.2981 
 421   0.0000       1.936152        52.6854 
 422   0.0000       1.944477        52.9119 
 423   0.0000       1.948694        53.0267 
 424   0.0000       1.952761        53.1373 
 425   0.0000       1.956607        53.2420 
 426   0.0000       1.966454        53.5099 
 427   0.0000       1.970141        53.6103 
 428   0.0000       1.971589        53.6497 
 429   0.0000       1.981236        53.9122 
 430   0.0000       1.984709        54.0067 
 431   0.0000       1.988564        54.1116 
 432   0.0000       1.990605        54.1671 
 433   0.0000       1.995633        54.3039 
 434   0.0000       1.998173        54.3730 
 435   0.0000       2.006327        54.5949 
 436   0.0000       2.011738        54.7422 
 437   0.0000       2.012788        54.7708 
 438   0.0000       2.016463        54.8707 
 439   0.0000       2.019634        54.9570 
 440   0.0000       2.021413        55.0054 
 441   0.0000       2.029357        55.2216 
 442   0.0000       2.039979        55.5107 
 443   0.0000       2.040657        55.5291 
[...]

 --------------
 Nucleus  47H :
 --------------

Diamagnetic contribution to the shielding tensor (ppm) : 
            30.772          3.765        -0.032
             1.279         46.499        -5.333
            -0.244         -4.846        44.084

Paramagnetic contribution to the shielding tensor (ppm): 
            -2.331         -3.840         0.954
            -0.978        -12.798         2.029
             0.589          1.411       -12.410

Total shielding tensor (ppm): 
            28.442         -0.075         0.922
             0.301         33.701        -3.304
             0.346         -3.434        31.674


 Diagonalized sT*s matrix:
 
 sDSO            31.853           39.143           50.358  iso=      40.452
 sPSO            -3.736           -9.660          -14.142  iso=      -9.179
        ---------------  ---------------  ---------------
 Total           28.116           29.484           36.216  iso=      31.272

 --------------
 Nucleus  48H :
 --------------

Diamagnetic contribution to the shielding tensor (ppm) : 
            35.208          0.051        -1.445
             0.662         30.823        -8.504
            -7.891         -7.409        51.760

Paramagnetic contribution to the shielding tensor (ppm): 
            -4.436          0.199         1.530
            -0.938         -2.560         6.155
             8.944          4.646       -21.331

Total shielding tensor (ppm): 
            30.773          0.251         0.085
            -0.276         28.262        -2.349
             1.053         -2.763        30.429


 Diagonalized sT*s matrix:
 
 sDSO            30.373           38.780           48.637  iso=      39.264
 sPSO            -3.825           -8.141          -16.361  iso=      -9.442
        ---------------  ---------------  ---------------
 Total           26.548           30.639           32.277  iso=      29.821

 --------------
 Nucleus  52H :
 --------------

Diamagnetic contribution to the shielding tensor (ppm) : 
            39.277          0.671        -1.547
             5.525         44.415        -3.668
             0.068         -0.448        35.527

Paramagnetic contribution to the shielding tensor (ppm): 
            -6.902         -0.032         2.946
            -4.270        -21.983         3.398
             1.463         -0.034       -12.796

Total shielding tensor (ppm): 
            32.375          0.639         1.399
             1.255         22.432        -0.271
             1.530         -0.483        22.731


 Diagonalized sT*s matrix:
 
 sDSO            38.135           41.611           39.474  iso=      39.740
 sPSO           -16.216          -18.661           -6.805  iso=     -13.894
        ---------------  ---------------  ---------------
 Total           21.919           22.951           32.668  iso=      25.846

 --------------
 Nucleus  53H :
 --------------

Diamagnetic contribution to the shielding tensor (ppm) : 
            37.930         -5.610        -0.703
             2.341         44.762        -2.943
            -4.276         -0.457        46.316

Paramagnetic contribution to the shielding tensor (ppm): 
            -6.336          6.024         4.391
            -0.272        -23.365         3.727
             8.078          1.001       -20.423

Total shielding tensor (ppm): 
            31.594          0.414         3.688
             2.069         21.397         0.785
             3.802          0.544        25.893


 Diagonalized sT*s matrix:
 
 sDSO            45.176           46.606           37.227  iso=      43.003
 sPSO           -23.939          -22.568           -3.618  iso=     -16.708
        ---------------  ---------------  ---------------
 Total           21.237           24.038           33.610  iso=      26.295

 --------------
 Nucleus  57H :
 --------------

Diamagnetic contribution to the shielding tensor (ppm) : 
            35.028          0.134        -0.237
             2.693         53.308         4.195
            -1.513         -1.027        27.102

Paramagnetic contribution to the shielding tensor (ppm): 
            -4.888         -0.874         2.213
            -4.850        -21.454        -5.305
             3.060         -0.764         0.476

Total shielding tensor (ppm): 
            30.140         -0.740         1.976
            -2.158         31.854        -1.110
             1.547         -1.792        27.578


 Diagonalized sT*s matrix:
 
 sDSO            29.672           43.015           42.751  iso=      38.479
 sPSO            -3.082          -13.506           -9.278  iso=      -8.622
        ---------------  ---------------  ---------------
 Total           26.590           29.509           33.473  iso=      29.857

 --------------
 Nucleus  58H :
 --------------

Diamagnetic contribution to the shielding tensor (ppm) : 
            39.820         -1.877        -7.200
             3.066         34.770         3.297
            13.006          3.270        45.703

Paramagnetic contribution to the shielding tensor (ppm): 
            -5.267          0.148         6.505
            -4.477         -8.114        -2.199
           -13.973         -1.718       -15.820

Total shielding tensor (ppm): 
            34.553         -1.729        -0.695
            -1.410         26.656         1.098
            -0.967          1.552        29.883


 Diagonalized sT*s matrix:
 
 sDSO            33.916           47.631           38.745  iso=      40.097
 sPSO            -7.911          -17.623           -3.667  iso=      -9.734
        ---------------  ---------------  ---------------
 Total           26.005           30.008           35.078  iso=      30.364

 --------------
 Nucleus  61H :
 --------------

Diamagnetic contribution to the shielding tensor (ppm) : 
            32.586         -0.530        -3.063
             3.917         26.813        -4.712
           -25.585         -4.847        27.652

Paramagnetic contribution to the shielding tensor (ppm): 
            -2.219          0.831         0.824
            -3.227          0.120         2.617
            23.124          2.366         8.348

Total shielding tensor (ppm): 
            30.367          0.301        -2.240
             0.689         26.933        -2.096
            -2.461         -2.481        36.001


 Diagonalized sT*s matrix:
 
 sDSO            24.571           23.573           38.906  iso=      29.017
 sPSO             1.816            5.971           -1.538  iso=       2.083
        ---------------  ---------------  ---------------
 Total           26.387           29.545           37.369  iso=      31.100

 --------------
 Nucleus  62H :
 --------------

Diamagnetic contribution to the shielding tensor (ppm) : 
            32.648         -5.792        -1.607
            -6.081         42.537         4.546
            -6.986          1.170        14.697

Paramagnetic contribution to the shielding tensor (ppm): 
            -2.258          2.155        -0.036
             3.332         -9.191        -3.950
             4.741         -0.077        14.350

Total shielding tensor (ppm): 
            30.390         -3.637        -1.643
            -2.749         33.346         0.596
            -2.246          1.092        29.048


 Diagonalized sT*s matrix:
 
 sDSO            20.486           24.073           45.324  iso=      29.961
 sPSO             6.828            5.544           -9.471  iso=       0.967
        ---------------  ---------------  ---------------
 Total           27.313           29.617           35.854  iso=      30.928

 --------------
 Nucleus  63H :
 --------------

Diamagnetic contribution to the shielding tensor (ppm) : 
            41.270          5.599         3.142
             9.929         34.290        -2.209
            -2.317         -4.944         7.317

Paramagnetic contribution to the shielding tensor (ppm): 
            -5.381         -1.325        -2.580
            -6.069         -7.299         3.405
             1.594          6.061        21.902

Total shielding tensor (ppm): 
            35.889          4.274         0.562
             3.860         26.992         1.196
            -0.723          1.117        29.218


 Diagonalized sT*s matrix:
 
 sDSO            30.208            7.225           45.445  iso=      27.626
 sPSO            -5.094           22.279           -7.963  iso=       3.074
        ---------------  ---------------  ---------------
 Total           25.114           29.504           37.482  iso=      30.700

 --------------
 Nucleus  64H :
 --------------

Diamagnetic contribution to the shielding tensor (ppm) : 
            24.701         -1.176         2.732
             8.572         15.126         6.307
            18.438          5.647        37.937

Paramagnetic contribution to the shielding tensor (ppm): 
             2.716          2.153        -0.405
            -7.227         12.793        -4.146
           -16.834         -3.704        -1.134

Total shielding tensor (ppm): 
            27.417          0.976         2.327
             1.345         27.919         2.161
             1.605          1.942        36.803


 Diagonalized sT*s matrix:
 
 sDSO            17.443           17.100           43.221  iso=      25.921
 sPSO             9.030           10.855           -5.509  iso=       4.792
        ---------------  ---------------  ---------------
 Total           26.473           27.954           37.713  iso=      30.713

 --------------
 Nucleus  65H :
 --------------

Diamagnetic contribution to the shielding tensor (ppm) : 
            26.713          0.334         2.684
            13.230         41.316        11.510
            12.399         -0.262        21.650

Paramagnetic contribution to the shielding tensor (ppm): 
             0.892          1.319        -1.406
           -12.782         -4.253       -10.534
           -10.717          2.184         6.193

Total shielding tensor (ppm): 
            27.605          1.654         1.278
             0.448         37.063         0.976
             1.682          1.922        27.843


 Diagonalized sT*s matrix:
 
 sDSO            16.825           28.591           44.262  iso=      29.893
 sPSO             9.410            0.236           -6.813  iso=       0.944
        ---------------  ---------------  ---------------
 Total           26.235           28.827           37.449  iso=      30.837

 --------------
 Nucleus  66H :
 --------------

Diamagnetic contribution to the shielding tensor (ppm) : 
            40.844          0.203         3.753
             2.204         21.730         2.960
            10.540         -3.013        14.502

Paramagnetic contribution to the shielding tensor (ppm): 
            -5.052          0.658        -3.103
            -0.857          5.702        -1.778
            -9.225          4.332        14.695

Total shielding tensor (ppm): 
            35.792          0.861         0.650
             1.346         27.432         1.182
             1.315          1.319        29.197


 Diagonalized sT*s matrix:
 
 sDSO            20.703           14.031           42.343  iso=      25.692
 sPSO             6.048           15.515           -6.218  iso=       5.115
        ---------------  ---------------  ---------------
 Total           26.751           29.545           36.125  iso=      30.807

 --------------
 Nucleus  67H :
 --------------

Diamagnetic contribution to the shielding tensor (ppm) : 
            35.177         -8.422        -1.393
           -11.286         28.621        -4.966
            13.692          1.008        22.763

Paramagnetic contribution to the shielding tensor (ppm): 
            -1.877          4.756         0.352
             6.987          2.381         4.310
           -14.159         -2.042         6.182

Total shielding tensor (ppm): 
            33.300         -3.666        -1.040
            -4.299         31.002        -0.656
            -0.468         -1.035        28.945


 Diagonalized sT*s matrix:
 
 sDSO            23.893           20.618           42.050  iso=      28.854
 sPSO             3.360            9.079           -5.753  iso=       2.229
        ---------------  ---------------  ---------------
 Total           27.253           29.697           36.297  iso=      31.082

 --------------
 Nucleus  68H :
 --------------

Diamagnetic contribution to the shielding tensor (ppm) : 
            30.079          4.424         0.613
            -1.356         42.412       -12.549
            16.548          3.028        34.724

Paramagnetic contribution to the shielding tensor (ppm): 
            -0.075         -0.924         2.685
             5.669         -8.835        13.147
           -13.015         -3.897        -6.312

Total shielding tensor (ppm): 
            30.004          3.500         3.298
             4.313         33.577         0.598
             3.534         -0.870        28.412


 Diagonalized sT*s matrix:
 
 sDSO            22.971           44.531           39.713  iso=      35.738
 sPSO             1.884          -13.898           -3.207  iso=      -5.074
        ---------------  ---------------  ---------------
 Total           24.855           30.632           36.506  iso=      30.665

 --------------
 Nucleus  69H :
 --------------

Diamagnetic contribution to the shielding tensor (ppm) : 
            22.899         -1.546        -0.900
           -11.556         25.168       -13.908
            14.170         -6.318        40.479

Paramagnetic contribution to the shielding tensor (ppm): 
             4.313          1.940         1.168
            11.636          4.899         9.802
           -13.799          2.659        -4.574

Total shielding tensor (ppm): 
            27.212          0.394         0.268
             0.080         30.067        -4.106
             0.371         -3.658        35.905


 Diagonalized sT*s matrix:
 
 sDSO            24.105           18.610           45.830  iso=      29.515
 sPSO             2.983            9.640           -7.984  iso=       1.546
        ---------------  ---------------  ---------------
 Total           27.088           28.250           37.846  iso=      31.061

 --------------
 Nucleus  70H :
 --------------

Diamagnetic contribution to the shielding tensor (ppm) : 
            34.212         -7.028        -8.722
            -6.473         24.252         4.818
           -20.572          2.390        41.759

Paramagnetic contribution to the shielding tensor (ppm): 
            -0.168          5.885         4.779
             4.835          3.241        -1.988
            16.337          1.228       -11.098

Total shielding tensor (ppm): 
            34.044         -1.143        -3.943
            -1.638         27.493         2.830
            -4.235          3.618        30.661


 Diagonalized sT*s matrix:
 
 sDSO            26.326           20.950           52.948  iso=      33.408
 sPSO            -0.993            8.251          -15.283  iso=      -2.675
        ---------------  ---------------  ---------------
 Total           25.333           29.201           37.665  iso=      30.733

 --------------
 Nucleus  71H :
 --------------

Diamagnetic contribution to the shielding tensor (ppm) : 
            31.704          2.841         5.252
            -3.011         36.255         9.242
            -3.230          6.200        43.339

Paramagnetic contribution to the shielding tensor (ppm): 
             1.525         -2.055        -4.556
             4.299         -7.145        -4.395
             4.172         -1.541       -14.735

Total shielding tensor (ppm): 
            33.228          0.786         0.696
             1.288         29.110         4.847
             0.942          4.659        28.604


 Diagonalized sT*s matrix:
 
 sDSO            32.266           37.855           41.177  iso=      37.099
 sPSO            -8.171           -5.761           -6.424  iso=      -6.785
        ---------------  ---------------  ---------------
 Total           24.095           32.094           34.753  iso=      30.314

 --------------
 Nucleus  72H :
 --------------

Diamagnetic contribution to the shielding tensor (ppm) : 
            28.075         -5.715        -0.069
            -6.508         40.138        -2.510
            -1.241         -8.536        45.043

Paramagnetic contribution to the shielding tensor (ppm): 
             3.393          4.394         1.173
             4.780         -7.206        -0.195
             1.930          5.973       -16.803

Total shielding tensor (ppm): 
            31.468         -1.321         1.104
            -1.728         32.932        -2.705
             0.689         -2.563        28.240


 Diagonalized sT*s matrix:
 
 sDSO            40.512           26.728           46.016  iso=      37.752
 sPSO           -13.463            3.871          -11.025  iso=      -6.872
        ---------------  ---------------  ---------------
 Total           27.050           30.599           34.992  iso=      30.880



--------------------------------
CHEMICAL SHIELDING SUMMARY (ppm)
--------------------------------


  Nucleus  Element    Isotropic     Anisotropy
  -------  -------  ------------   ------------
      3       H           29.634          5.416 
      4       H           29.131          5.320 
      8       H           29.567          6.406 
      9       H           29.424          7.784 
     10       H           29.629          8.809 
     11       H           30.530          6.223 
     13       H           28.185          2.735 
     16       H           26.854          5.154 
     17       H           26.515          5.024 
     19       H           25.448         10.816 
     21       H           25.697         15.028 
     24       H           28.892         10.018 
     25       H           30.000          9.343 
     27       H           30.225          7.175 
     28       H           30.150         11.685 
     30       H           29.720          8.338 
     31       H           30.441          6.717 
     33       H           29.849          3.988 
     35       H           31.120         14.863 
     37       H           30.337         10.883 
     38       H           30.230          9.626 
     40       H           29.861          9.890 
     41       H           30.260          7.917 
     42       H           30.790          6.012 
     45       H           31.053          8.277 
     46       H           31.294          9.302 
     47       H           31.272          7.416 
     48       H           29.821          3.683 
     52       H           25.846         10.233 
     53       H           26.295         10.972 
     57       H           29.857          5.424 
     58       H           30.364          7.071 
     61       H           31.100          9.403 
     62       H           30.928          7.388 
     63       H           30.700         10.173 
     64       H           30.713         10.499 
     65       H           30.837          9.918 
     66       H           30.807          7.977 
     67       H           31.082          7.821 
     68       H           30.665          8.762 
     69       H           31.061         10.177 
     70       H           30.733         10.398 
     71       H           30.314          6.659 
     72       H           30.880          6.167 



Maximum memory used throughout the entire EPRNMR-calculation: 140.1 MB

Timings for individual modules:

Sum of individual times         ...      148.535 sec (=   2.476 min)
GTO integral calculation        ...        0.816 sec (=   0.014 min)   0.5 %
SCF iterations                  ...      103.519 sec (=   1.725 min)  69.7 %
EPR/NMR calculation             ...       44.200 sec (=   0.737 min)  29.8 %
                             ****ORCA TERMINATED NORMALLY****
TOTAL RUN TIME: 0 days 0 hours 2 minutes 29 seconds 41 msec
