
                                 *****************
                                 * O   R   C   A *
                                 *****************

                                            #,                                       
                                            ###                                      
                                            ####                                     
                                            #####                                    
                                            ######                                   
                                           ########,                                 
                                     ,,################,,,,,                         
                               ,,#################################,,                 
                          ,,##########################################,,             
                       ,#########################################, ''#####,          
                    ,#############################################,,   '####,        
                  ,##################################################,,,,####,       
                ,###########''''           ''''###############################       
              ,#####''   ,,,,##########,,,,          '''####'''          '####       
            ,##' ,,,,###########################,,,                        '##       
           ' ,,###''''                  '''############,,,                           
         ,,##''                                '''############,,,,        ,,,,,,###''
      ,#''                                            '''#######################'''  
     '                                                          ''''####''''         
             ,#######,   #######,   ,#######,      ##                                
            ,#'     '#,  ##    ##  ,#'     '#,    #''#        ,####,   ,####,        
            ##       ##  ##   ,#'  ##            #'  '#       #'       #'  '#        
            ##       ##  #######   ##           ,######,      #####,   #    #        
            '#,     ,#'  ##    ##  '#,     ,#' ,#      #,     #,   #   #,  ,#        
             '#######'   ##     ##  '#######'  #'      '#     '####' # '####'        



                #########################################################
                #                        -***-                          #
                #          Department of theory and spectroscopy        #
                #                                                       #
                #                      Frank Neese                      #
                #                                                       #
                #     Directorship, Architecture, Infrastructure        #
                #                    SHARK, DRIVERS                     #
                #        Core code/Algorithms in most modules           #
                #                                                       #
                #        Max Planck Institute fuer Kohlenforschung      #
                #                Kaiser Wilhelm Platz 1                 #
                #                 D-45470 Muelheim/Ruhr                 #
                #                      Germany                          #
                #                                                       #
                #                  All rights reserved                  #
                #                        -***-                          #
                #########################################################


                         Program Version 6.0.0  -   RELEASE  -


 With contributions from (in alphabetic order):
   Daniel Aravena         : Magnetic Suceptibility
   Michael Atanasov       : Ab Initio Ligand Field Theory (pilot matlab implementation)
   Alexander A. Auer      : GIAO ZORA, VPT2 properties, NMR spectrum
   Ute Becker             : All parallelization in ORCA, NUMFREQ, NUMCALC
   Giovanni Bistoni       : ED, misc. LED, open-shell LED, HFLD
   Martin Brehm           : Molecular dynamics
   Dmytro Bykov           : pre 5.0 version of the SCF Hessian
   Marcos Casanova-Páez   : Triplet and SCS-CIS(D). UHF-(DLPNO)-IP/EA/STEOM-CCSD. UHF-CVS-IP/STEOM-CCSD
   Vijay G. Chilkuri      : MRCI spin determinant printing, contributions to CSF-ICE
   Pauline Colinet        : FMM embedding
   Dipayan Datta          : RHF DLPNO-CCSD density
   Achintya Kumar Dutta   : EOM-CC, STEOM-CC
   Nicolas Foglia         : Exact transition moments, OPA infrastructure, MCD improvements
   Dmitry Ganyushin       : Spin-Orbit,Spin-Spin,Magnetic field MRCI
   Miquel Garcia          : C-PCM and meta-GGA Hessian, CCSD/C-PCM, Gaussian charge scheme
   Tiago L. C. Gouveia    : GS-ROHF, GS-ROCIS
   Yang Guo               : DLPNO-NEVPT2, F12-NEVPT2, CIM, IAO-localization
   Andreas Hansen         : Spin unrestricted coupled pair/coupled cluster methods
   Ingolf Harden          : AUTO-CI MPn and infrastructure 
   Benjamin Helmich-Paris : MC-RPA, TRAH-(SCF,CASSCF), AVAS, COSX integrals, SCF dyn. polar.
   Lee Huntington         : MR-EOM, pCC
   Robert Izsak           : Overlap fitted RIJCOSX, COSX-SCS-MP3, EOM
   Riya Kayal             : Wick's Theorem for AUTO-CI, AUTO-CI UHF-CCSDT
   Emily Kempfer          : AUTO-CI, RHF CISDT and CCSDT
   Christian Kollmar      : KDIIS, OOCD, Brueckner-CCSD(T), CCSD density, CASPT2, CASPT2-K, improved NEVPT2
   Axel Koslowski         : Symmetry handling
   Simone Kossmann        : Meta GGA functionals, TD-DFT gradient, OOMP2, (MP2 Hessian; deprecated post 5.0)
   Lucas Lang             : DCDCAS
   Marvin Lechner         : AUTO-CI (C++ implementation), FIC-MRCC
   Spencer Leger          : CASSCF response
   Dagmar Lenk            : GEPOL surface, SMD, ORCA-2-JSON
   Dimitrios Liakos       : Extrapolation schemes; Compound Job, initial MDCI parallelization
   Dimitrios Manganas     : Further ROCIS development; embedding schemes. LFT, Crystal Embedding
   Dimitrios Pantazis     : SARC Basis sets
   Anastasios Papadopoulos: AUTO-CI, single reference methods and gradients
   Taras Petrenko         : pre 6.0 DFT Hessian and TD-DFT gradient, (ASA, deprecated), ECA, 1-Electron XAS/XES, NRVS
   Peter Pinski           : DLPNO-MP2, DLPNO-MP2 Gradient
   Christoph Reimann      : Effective Core Potentials
   Marius Retegan         : Local ZFS, SOC
   Christoph Riplinger    : Optimizer, TS searches, QM/MM, DLPNO-CCSD(T), (RO)-DLPNO pert. Triples
   Michael Roemelt        : Original ROCIS implementation
   Masaaki Saitow         : Open-shell DLPNO-CCSD energy and density
   Barbara Sandhoefer     : DKH picture change effects
   Kantharuban Sivalingam : CASSCF convergence/infrastructure, NEVPT2 and variants, FIC-MRCI
   Bernardo de Souza      : ESD, SOC TD-DFT
   Georgi Stoychev        : AutoAux, RI-MP2 NMR, DLPNO-MP2 response, X2C
   Van Anh Tran           : RI-MP2 g-tensors
   Willem Van den Heuvel  : Paramagnetic NMR
   Zikuan Wang            : NOTCH, Electric field optimization 
   Frank Wennmohs         : Technical directorship and infrastructure
   Hang Xu                : AUTO-CI-Response properties 


 We gratefully acknowledge several colleagues who have allowed us to
 interface, adapt or use parts of their codes:
   Stefan Grimme, W. Hujo, H. Kruse, P. Pracht,  : VdW corrections, initial TS optimization,
                  C. Bannwarth, S. Ehlert,         DFT functionals, gCP, sTDA/sTD-DF
                  L. Wittmann, M. Mueller
   Ed Valeev, F. Pavosevic, A. Kumar             : LibInt (2-el integral package), F12 methods
   Garnet Chan, S. Sharma, J. Yang, R. Olivares  : DMRG
   Ulf Ekstrom                                   : XCFun DFT Library
   Mihaly Kallay                                 : mrcc  (arbitrary order and MRCC methods)
   Frank Weinhold                                : gennbo (NPA and NBO analysis)
   Simon Mueller                                 : openCOSMO-RS
   Christopher J. Cramer and Donald G. Truhlar   : smd solvation model
   Lars Goerigk                                  : TD-DFT with DH, B97 family of functionals
   V. Asgeirsson, H. Jonsson                     : NEB implementation
   FAccTs GmbH                                   : IRC, NEB, NEB-TS, DLPNO-Multilevel, CI-OPT
                                                   MM, QMMM, 2- and 3-layer-ONIOM, Crystal-QMMM,
                                                   LR-CPCM, SF, NACMEs, symmetry and pop. for TD-DFT,
                                                   nearIR, NL-DFT gradient (VV10), updates on ESD,
                                                   ML-optimized integration grids, MBIS, APM,
                                                   GOAT, DOCKER, SOLVATOR, interface openCOSMO-RS
   S Lehtola, MJT Oliveira, MAL Marques          : LibXC Library
   Liviu Ungur et al                             : ANISO software


 Your calculation uses the libint2 library for the computation of 2-el integrals
 For citations please refer to: http://libint.valeyev.net

 Your ORCA version has been built with support for libXC version: 6.2.2
 For citations please refer to: https://libxc.gitlab.io

 This ORCA versions uses:
   CBLAS   interface :  Fast vector & matrix operations
   LAPACKE interface :  Fast linear algebra routines
   SCALAPACK package :  Parallel linear algebra routines
   Shared memory     :  Shared parallel matrices
   BLAS/LAPACK       :  OpenBLAS 0.3.27  USE64BITINT DYNAMIC_ARCH NO_AFFINITY Zen SINGLE_THREADED
        Core in use  :  Zen
   Copyright (c) 2011-2014, The OpenBLAS Project


NOTE: MaxCore=8000 MB was set to SCF,MP2,MDCI,CIPSI,MRCI and CIS
      => If you want to overwrite this, your respective input block should be placed after the MaxCore statement
Your calculation utilizes the atom-pairwise dispersion correction
based on EEQ partial charges (D4)


================================================================================

----- Orbital basis set information -----
Your calculation utilizes the basis: pcJ-0
   F. Jensen, Theor. Chem. Acc. 126, 371 (2010).

----- AuxJ basis set information -----
Your calculation utilizes the auxiliary basis: def2/J
   F. Weigend, Phys. Chem. Chem. Phys. 8, 1057 (2006).

================================================================================
                                        WARNINGS
                       Please study these warnings very carefully!
================================================================================

WARNING: Old DensityContainer found on disk!
         Will remove this file - 
         If you want to keep old densities, please start your calculation with a different basename. 


================================================================================
                                       INPUT FILE
================================================================================
NAME = inpJ
|  1> ! pbe0
|  2> ! D4
|  3> ! pcJ-0
|  4> ! def2/J RIJCOSX
|  5> ! DEFGRID2
|  6> ! scfconv7
|  7> ! smallprint printgap noloewdin
|  8> ! NOSOSCF
|  9> %MaxCore 8000
| 10> %output
| 11>        print[P_BondOrder_M] 1
| 12>        print[P_Mayer] 1
| 13>        print[P_basis] 2
| 14> end
| 15> %pal
| 16>     nprocs 4
| 17> end
| 18> ! CPCM(chloroform)
| 19> *xyz 0 1
| 20> C   -5.2123473700  -0.0201258400   0.3276534500
| 21> C   -6.5661991200  -0.4161844900  -0.2133023600
| 22> C   -7.1255627800   0.6401706200  -1.1736403000
| 23> H   -7.2804766000  -0.5087938600   0.6224618400
| 24> H   -6.5124796000  -1.3878945500  -0.7163228500
| 25> C   -5.1570455800   1.3490720800   0.8826709800
| 26> C   -5.7651191700   2.4093742300  -0.0071349100
| 27> C   -7.1626906800   2.0057282300  -0.4966614500
| 28> H   -5.1147431200   2.5385283000  -0.8855645700
| 29> H   -5.8011409000   3.3696390200   0.5178799200
| 30> H   -7.5511264400   2.7543472600  -1.1971307200
| 31> H   -7.8544381300   1.9578191100   0.3579206000
| 32> O   -8.4133094200   0.2570185700  -1.6743245000
| 33> H   -6.4812629900   0.6927910800  -2.0624119100
| 34> C   -4.1572436600  -0.8649908300   0.2461603000
| 35> C   -4.6537753600   1.6337296100   2.0891728200
| 36> H   -4.2443131100   0.8572014300   2.7292070800
| 37> H   -4.6508256500   2.6531121000   2.4678085800
| 38> C   -2.7954851300  -0.5776644100   0.6338103100
| 39> H   -4.3569198200  -1.8405096600  -0.1951144500
| 40> C   -1.7618780400  -1.4468177900   0.6340651000
| 41> H   -2.5955634600   0.4454743400   0.9438885600
| 42> C   -1.8470768900  -2.9118461700   0.2890886500
| 43> C   -0.8080447400  -3.3128595600  -0.7744059800
| 44> H   -2.8484769200  -3.2012929600  -0.0405441100
| 45> H   -1.6381031200  -3.4855478800   1.2064330100
| 46> C    0.6108364600  -2.8469889500  -0.4215928900
| 47> H   -1.1052628300  -2.8915717100  -1.7430561200
| 48> H   -0.8170978700  -4.4032811800  -0.8932709300
| 49> C    0.6610558200  -1.3387297600  -0.1371834100
| 50> H    1.2878441800  -3.1232361500  -1.2362929700
| 51> H    0.9560635000  -3.3807487500   0.4766774700
| 52> C   -0.3661479600  -1.0477773300   1.0031020300
| 53> H   -0.0592083300  -1.7171188500   1.8282728400
| 54> C   -0.0469440000   0.3785606200   1.4380555300
| 55> H   -9.0126094400   0.1926245600  -0.9187510800
| 56> C    1.4929015500   0.4642639500   1.3019690600
| 57> H   -0.3963934000   0.5884133200   2.4544321900
| 58> H   -0.5306630300   1.1036231300   0.7740231800
| 59> C    1.9590127800  -0.8135348700   0.5379856300
| 60> H    1.9820394100   0.5301629000   2.2789076600
| 61> H    1.7800686800   1.3647145700   0.7455259400
| 62> H    2.2568124300  -1.5738864700   1.2778428200
| 63> C    3.2019834500  -0.5418747000  -0.3448129400
| 64> C    0.3273674600  -0.5274067600  -1.3964669600
| 65> H   -0.7149693300  -0.6701714100  -1.6977297400
| 66> H    0.9648494200  -0.8321992200  -2.2336709200
| 67> H    0.4772662800   0.5454813400  -1.2386935600
| 68> H    2.9206531800   0.2565985600  -1.0515381200
| 69> C    3.6510968300  -1.7568236000  -1.1543899700
| 70> C    4.2988175900   0.0210922100   0.5292480100
| 71> C    5.4735552100  -0.5526197700   0.7950121600
| 72> H    4.0677025500   0.9786302400   0.9939485000
| 73> H    5.7063646800  -1.5126526300   0.3369488500
| 74> C    6.5576116600   0.0138789200   1.6808834500
| 75> C    6.0542096000   1.1176892800   2.6139874700
| 76> C    7.7746888100   0.4847791500   0.8357957600
| 77> H    6.9237449500  -0.8189992700   2.3060582200
| 78> H    7.4244412100   1.3289106500   0.2204412400
| 79> C    8.2825565800  -0.6143589800  -0.1030388500
| 80> C    8.9253415200   0.9730452500   1.7217881200
| 81> H    5.1383342200   0.8048781200   3.1260237200
| 82> H    5.8342639500   2.0384478700   2.0601268000
| 83> H    6.7979454500   1.3580273100   3.3778360300
| 84> H    9.1783693500  -0.2774231600  -0.6358135000
| 85> H    7.5355861200  -0.8956144500  -0.8509389200
| 86> H    8.5508716600  -1.5144553700   0.4656302800
| 87> H    9.2314978100   0.1842227100   2.4213312700
| 88> H    8.6577239500   1.8585198000   2.3048778100
| 89> H    9.7955485900   1.2313510000   1.1084140800
| 90> H    4.5962010300  -1.5510741000  -1.6687211900
| 91> H    2.9113723800  -2.0158747100  -1.9141430300
| 92> H    3.7969356900  -2.6339188200  -0.5128998100
| 93> *
| 94> %eprnmr
| 95>  Nuclei = all C { ssfc }
| 96>  SpinSpinRThresh 8.0
| 97> end
| 98> 
| 99>                          ****END OF INPUT****
================================================================================

                       ****************************
                       * Single Point Calculation *
                       ****************************

---------------------------------
CARTESIAN COORDINATES (ANGSTROEM)
---------------------------------
  C     -5.212347   -0.020126    0.327653
  C     -6.566199   -0.416184   -0.213302
  C     -7.125563    0.640171   -1.173640
  H     -7.280477   -0.508794    0.622462
  H     -6.512480   -1.387895   -0.716323
  C     -5.157046    1.349072    0.882671
  C     -5.765119    2.409374   -0.007135
  C     -7.162691    2.005728   -0.496661
  H     -5.114743    2.538528   -0.885565
  H     -5.801141    3.369639    0.517880
  H     -7.551126    2.754347   -1.197131
  H     -7.854438    1.957819    0.357921
  O     -8.413309    0.257019   -1.674324
  H     -6.481263    0.692791   -2.062412
  C     -4.157244   -0.864991    0.246160
  C     -4.653775    1.633730    2.089173
  H     -4.244313    0.857201    2.729207
  H     -4.650826    2.653112    2.467809
  C     -2.795485   -0.577664    0.633810
  H     -4.356920   -1.840510   -0.195114
  C     -1.761878   -1.446818    0.634065
  H     -2.595563    0.445474    0.943889
  C     -1.847077   -2.911846    0.289089
  C     -0.808045   -3.312860   -0.774406
  H     -2.848477   -3.201293   -0.040544
  H     -1.638103   -3.485548    1.206433
  C      0.610836   -2.846989   -0.421593
  H     -1.105263   -2.891572   -1.743056
  H     -0.817098   -4.403281   -0.893271
  C      0.661056   -1.338730   -0.137183
  H      1.287844   -3.123236   -1.236293
  H      0.956063   -3.380749    0.476677
  C     -0.366148   -1.047777    1.003102
  H     -0.059208   -1.717119    1.828273
  C     -0.046944    0.378561    1.438056
  H     -9.012609    0.192625   -0.918751
  C      1.492902    0.464264    1.301969
  H     -0.396393    0.588413    2.454432
  H     -0.530663    1.103623    0.774023
  C      1.959013   -0.813535    0.537986
  H      1.982039    0.530163    2.278908
  H      1.780069    1.364715    0.745526
  H      2.256812   -1.573886    1.277843
  C      3.201983   -0.541875   -0.344813
  C      0.327367   -0.527407   -1.396467
  H     -0.714969   -0.670171   -1.697730
  H      0.964849   -0.832199   -2.233671
  H      0.477266    0.545481   -1.238694
  H      2.920653    0.256599   -1.051538
  C      3.651097   -1.756824   -1.154390
  C      4.298818    0.021092    0.529248
  C      5.473555   -0.552620    0.795012
  H      4.067703    0.978630    0.993949
  H      5.706365   -1.512653    0.336949
  C      6.557612    0.013879    1.680883
  C      6.054210    1.117689    2.613987
  C      7.774689    0.484779    0.835796
  H      6.923745   -0.818999    2.306058
  H      7.424441    1.328911    0.220441
  C      8.282557   -0.614359   -0.103039
  C      8.925342    0.973045    1.721788
  H      5.138334    0.804878    3.126024
  H      5.834264    2.038448    2.060127
  H      6.797945    1.358027    3.377836
  H      9.178369   -0.277423   -0.635813
  H      7.535586   -0.895614   -0.850939
  H      8.550872   -1.514455    0.465630
  H      9.231498    0.184223    2.421331
  H      8.657724    1.858520    2.304878
  H      9.795549    1.231351    1.108414
  H      4.596201   -1.551074   -1.668721
  H      2.911372   -2.015875   -1.914143
  H      3.796936   -2.633919   -0.512900

----------------------------
CARTESIAN COORDINATES (A.U.)
----------------------------
  NO LB      ZA    FRAG     MASS         X           Y           Z
   0 C     6.0000    0    12.011   -9.849909   -0.038032    0.619175
   1 C     6.0000    0    12.011  -12.408318   -0.786475   -0.403083
   2 C     6.0000    0    12.011  -13.465362    1.209747   -2.217859
   3 H     1.0000    0     1.008  -13.758107   -0.961481    1.176282
   4 H     1.0000    0     1.008  -12.306803   -2.622741   -1.353654
   5 C     6.0000    0    12.011   -9.745404    2.549377    1.668006
   6 C     6.0000    0    12.011  -10.894496    4.553057   -0.013483
   7 C     6.0000    0    12.011  -13.535524    3.790277   -0.938554
   8 H     1.0000    0     1.008   -9.665464    4.797123   -1.673475
   9 H     1.0000    0     1.008  -10.962568    6.367695    0.978651
  10 H     1.0000    0     1.008  -14.269561    5.204962   -2.262249
  11 H     1.0000    0     1.008  -14.842737    3.699742    0.676372
  12 O     8.0000    0    15.999  -15.898851    0.485695   -3.164015
  13 H     1.0000    0     1.008  -12.247812    1.309185   -3.897394
  14 C     6.0000    0    12.011   -7.856052   -1.634596    0.465176
  15 C     6.0000    0    12.011   -8.794361    3.087302    3.947964
  16 H     1.0000    0     1.008   -8.020589    1.619876    5.157454
  17 H     1.0000    0     1.008   -8.788787    5.013655    4.663482
  18 C     6.0000    0    12.011   -5.282701   -1.091628    1.197728
  19 H     1.0000    0     1.008   -8.233385   -3.478059   -0.368713
  20 C     6.0000    0    12.011   -3.329467   -2.734089    1.198209
  21 H     1.0000    0     1.008   -4.904904    0.841825    1.783691
  22 C     6.0000    0    12.011   -3.490469   -5.502592    0.546298
  23 C     6.0000    0    12.011   -1.526983   -6.260397   -1.463415
  24 H     1.0000    0     1.008   -5.382841   -6.049567   -0.076617
  25 H     1.0000    0     1.008   -3.095566   -6.586731    2.279828
  26 C     6.0000    0    12.011    1.154314   -5.380029   -0.796695
  27 H     1.0000    0     1.008   -2.088644   -5.464279   -3.293899
  28 H     1.0000    0     1.008   -1.544091   -8.320996   -1.688037
  29 C     6.0000    0    12.011    1.249214   -2.529833   -0.259239
  30 H     1.0000    0     1.008    2.433673   -5.902061   -2.336255
  31 H     1.0000    0     1.008    1.806698   -6.388689    0.900790
  32 C     6.0000    0    12.011   -0.691919   -1.980012    1.895588
  33 H     1.0000    0     1.008   -0.111888   -3.244884    3.454935
  34 C     6.0000    0    12.011   -0.088711    0.715376    2.717531
  35 H     1.0000    0     1.008  -17.031364    0.364008   -1.736188
  36 C     6.0000    0    12.011    2.821175    0.877332    2.460365
  37 H     1.0000    0     1.008   -0.749075    1.111940    4.638205
  38 H     1.0000    0     1.008   -1.002808    2.085545    1.462692
  39 C     6.0000    0    12.011    3.701998   -1.537358    1.016646
  40 H     1.0000    0     1.008    3.745512    1.001863    4.306511
  41 H     1.0000    0     1.008    3.363842    2.578937    1.408840
  42 H     1.0000    0     1.008    4.264757   -2.974214    2.414773
  43 C     6.0000    0    12.011    6.050872   -1.023995   -0.651602
  44 C     6.0000    0    12.011    0.618635   -0.996654   -2.638940
  45 H     1.0000    0     1.008   -1.351096   -1.266440   -3.208244
  46 H     1.0000    0     1.008    1.823301   -1.572629   -4.221026
  47 H     1.0000    0     1.008    0.901903    1.030810   -2.340792
  48 H     1.0000    0     1.008    5.519235    0.484901   -1.987119
  49 C     6.0000    0    12.011    6.899573   -3.319915   -2.181481
  50 C     6.0000    0    12.011    8.123588    0.039859    1.000134
  51 C     6.0000    0    12.011   10.343520   -1.044300    1.502355
  52 H     1.0000    0     1.008    7.686844    1.849343    1.878290
  53 H     1.0000    0     1.008   10.783466   -2.858499    0.636741
  54 C     6.0000    0    12.011   12.392090    0.026227    3.176409
  55 C     6.0000    0    12.011   11.440798    2.112127    4.939720
  56 C     6.0000    0    12.011   14.692033    0.916100    1.579425
  57 H     1.0000    0     1.008   13.083982   -1.547684    4.357818
  58 H     1.0000    0     1.008   14.030161    2.511277    0.416574
  59 C     6.0000    0    12.011   15.651764   -1.160970   -0.194715
  60 C     6.0000    0    12.011   16.866451    1.838789    3.253708
  61 H     1.0000    0     1.008    9.710044    1.520999    5.907329
  62 H     1.0000    0     1.008   11.025161    3.852108    3.893075
  63 H     1.0000    0     1.008   12.846255    2.566300    6.383185
  64 H     1.0000    0     1.008   17.344604   -0.524254   -1.201513
  65 H     1.0000    0     1.008   14.240194   -1.692466   -1.608042
  66 H     1.0000    0     1.008   16.158806   -2.861906    0.879914
  67 H     1.0000    0     1.008   17.445003    0.348130    4.575653
  68 H     1.0000    0     1.008   16.360727    3.512093    4.355588
  69 H     1.0000    0     1.008   18.510904    2.326916    2.094599
  70 H     1.0000    0     1.008    8.685561   -2.931105   -3.153426
  71 H     1.0000    0     1.008    5.501696   -3.809451   -3.617206
  72 H     1.0000    0     1.008    7.175169   -4.977385   -0.969240

--------------------------------
INTERNAL COORDINATES (ANGSTROEM)
--------------------------------
 C      0   0   0     0.000000000000     0.00000000     0.00000000
 C      1   0   0     1.510764774408     0.00000000     0.00000000
 C      2   1   0     1.533304529947   111.75092890     0.00000000
 H      2   1   3     1.103299873946   109.32487313   241.46200815
 H      2   1   3     1.095507115857   110.67106144   122.91414450
 C      1   2   3     1.478447053741   114.25048657    50.25350203
 C      6   1   2     1.511869260892   114.42531658   312.15474322
 C      3   2   1     1.524606975760   110.35557853   305.11341739
 H      7   6   1     1.100594588293   108.32279094   290.22714544
 H      7   6   1     1.095009864643   110.24677369   172.96284272
 H      8   3   2     1.096343919552   109.66537035   179.22568758
 H      8   3   2     1.100509108796   108.73085943   296.68509919
 O      3   2   1     1.433799696743   111.23874824   180.32825300
 H      3   2   1     1.099002323449   109.00332626    65.15260557
 C      1   2   3     1.354135083247   120.87263617   232.41491384
 C      6   1   2     1.337892938036   123.34314645   130.04161741
 H     16   6   1     1.086415759497   121.39706385     0.58582932
 H     16   6   1     1.087434779864   120.96187488   181.25764178
 C     15   1   2     1.444719798408   126.45536694   175.25681727
 H     15   1   2     1.089142305461   116.12687095   357.99432599
 C     19  15   1     1.350470762135   126.40365942   175.37195299
 H     19  15   1     1.087625899384   115.90278124   354.70518518
 C     21  19  15     1.507506467416   125.60253108   356.88923496
 C     23  21  19     1.539941679328   111.89924311   128.22086654
 H     23  21  19     1.093269967021   112.21343036     4.09804290
 H     23  21  19     1.101963866662   107.74191736   246.96943242
 C     24  23  21     1.534515024837   112.70808114    50.54656915
 H     24  23  21     1.097317246426   109.08057828   288.46446204
 H     24  23  21     1.096918476854   109.15550511   172.48752957
 C     27  24  23     1.535661590537   111.77710375   306.10682808
 H     27  24  23     1.094709180011   108.91187205   182.54287077
 H     27  24  23     1.100441217375   109.29905402    66.05685574
 C     21  19  15     1.497826425404   122.80510950   177.57265380
 H     33  21  19     1.105955185591   106.33230972   123.88607442
 C     33  21  19     1.524964151333   120.96454665     1.57406392
 H     13   3   2     0.966539339865   107.56028266    61.89656510
 C     35  33  21     1.548221207045   103.58524856   196.53335169
 H     35  33  21     1.095068287300   112.15851789    74.54057177
 H     35  33  21     1.095736603951   110.71150893   314.91927345
 C     30  27  24     1.554469419149   116.07704673   166.60642157
 H     37  35  33     1.094535310470   111.67561724   249.40938797
 H     37  35  33     1.096770361291   110.51519494   130.86873929
 H     40  30  27     1.101910998564   106.50840240   321.01860129
 C     40  30  27     1.548582787467   118.80731787    81.31441037
 C     30  27  24     1.534727334489   111.10852744   294.75848008
 H     45  30  27     1.094352316071   111.34652551    66.86767967
 H     45  30  27     1.095532821799   110.69850150   306.82327853
 H     45  30  27     1.094737857711   111.71972601   186.86892616
 H     44  40  30     1.102799504806   106.71319143    62.66986763
 C     44  40  30     1.527487684143   113.49095470   303.66733175
 C     44  40  30     1.511277412238   108.55288925   177.24210943
 C     51  44  40     1.334085640154   126.44838874   115.53681806
 H     51  44  40     1.089146356564   114.85081128   297.18666882
 H     52  51  44     1.088891793325   118.92178046     1.36607074
 C     52  51  44     1.510253983608   125.98710508   180.60610485
 C     55  52  51     1.530520845005   113.08176858    17.81434782
 C     55  52  51     1.554733745519   110.89659590   251.39318364
 H     55  52  51     1.103894541371   106.69400238   136.32274294
 H     57  55  52     1.101767922878   106.66564171    65.53138001
 C     57  55  52     1.532137306366   112.04125276   307.27411064
 C     57  55  52     1.532118763483   111.72242431   183.96156598
 H     56  55  52     1.094924497317   110.74377833    48.31525997
 H     56  55  52     1.096783530048   111.31768265   288.20745576
 H     56  55  52     1.092872364850   111.15456736   168.08542592
 H     60  57  55     1.095378972492   110.39287388   183.73351951
 H     60  57  55     1.093811694134   112.15270330    63.55495782
 H     60  57  55     1.097975898124   110.59370647   302.83817539
 H     61  57  55     1.097876719960   110.42140463    56.94978296
 H     61  57  55     1.093470589021   112.49650266   296.11392828
 H     61  57  55     1.095540924889   110.36014737   175.95640907
 H     50  44  40     1.095486836742   110.67767446   186.62702176
 H     50  44  40     1.091569719120   111.00236326    67.21021031
 H     50  44  40     1.096391637787   111.42646594   306.91048022

---------------------------
INTERNAL COORDINATES (A.U.)
---------------------------
 C      0   0   0     0.000000000000     0.00000000     0.00000000
 C      1   0   0     2.854931676406     0.00000000     0.00000000
 C      2   1   0     2.897525641500   111.75092890     0.00000000
 H      2   1   3     2.084934605347   109.32487313   241.46200815
 H      2   1   3     2.070208426732   110.67106144   122.91414450
 C      1   2   3     2.793860035074   114.25048657    50.25350203
 C      6   1   2     2.857018853379   114.42531658   312.15474322
 C      3   2   1     2.881089646051   110.35557853   305.11341739
 H      7   6   1     2.079822356349   108.32279094   290.22714544
 H      7   6   1     2.069268758118   110.24677369   172.96284272
 H      8   3   2     2.071789756544   109.66537035   179.22568758
 H      8   3   2     2.079660823510   108.73085943   296.68509919
 O      3   2   1     2.709488757743   111.23874824   180.32825300
 H      3   2   1     2.076813411862   109.00332626    65.15260557
 C      1   2   3     2.558944455672   120.87263617   232.41491384
 C      6   1   2     2.528251249396   123.34314645   130.04161741
 H     16   6   1     2.053028253025   121.39706385     0.58582932
 H     16   6   1     2.054953922444   120.96187488   181.25764178
 C     15   1   2     2.730124759244   126.45536694   175.25681727
 H     15   1   2     2.058180678189   116.12687095   357.99432599
 C     19  15   1     2.552019892303   126.40365942   175.37195299
 H     19  15   1     2.055315085995   115.90278124   354.70518518
 C     21  19  15     2.848774368531   125.60253108   356.88923496
 C     23  21  19     2.910068036141   111.89924311   128.22086654
 H     23  21  19     2.065980828111   112.21343036     4.09804290
 H     23  21  19     2.082409917468   107.74191736   246.96943242
 C     24  23  21     2.899813145329   112.70808114    50.54656915
 H     24  23  21     2.073629077773   109.08057828   288.46446204
 H     24  23  21     2.072875512493   109.15550511   172.48752957
 C     27  24  23     2.901979840498   111.77710375   306.10682808
 H     27  24  23     2.068700546510   108.91187205   182.54287077
 H     27  24  23     2.079532527318   109.29905402    66.05685574
 C     21  19  15     2.830481740163   122.80510950   177.57265380
 H     33  21  19     2.089952417158   106.33230972   123.88607442
 C     33  21  19     2.881764610068   120.96454665     1.57406392
 H     13   3   2     1.826494650006   107.56028266    61.89656510
 C     35  33  21     2.925714076045   103.58524856   196.53335169
 H     35  33  21     2.069379160939   112.15851789    74.54057177
 H     35  33  21     2.070642096380   110.71150893   314.91927345
 C     30  27  24     2.937521485747   116.07704673   166.60642157
 H     37  35  33     2.068371980695   111.67561724   249.40938797
 H     37  35  33     2.072595614642   110.51519494   130.86873929
 H     40  30  27     2.082310011243   106.50840240   321.01860129
 C     40  30  27     2.926397364017   118.80731787    81.31441037
 C     30  27  24     2.900214352428   111.10852744   294.75848008
 H     45  30  27     2.068026171397   111.34652551    66.86767967
 H     45  30  27     2.070257003921   110.69850150   306.82327853
 H     45  30  27     2.068754739510   111.71972601   186.86892616
 H     44  40  30     2.083989044706   106.71319143    62.66986763
 C     44  40  30     2.886533395969   113.49095470   303.66733175
 C     44  40  30     2.855900421510   108.55288925   177.24210943
 C     51  44  40     2.521056499087   126.44838874   115.53681806
 H     51  44  40     2.058188333664   114.85081128   297.18666882
 H     52  51  44     2.057707278858   118.92178046     1.36607074
 C     52  51  44     2.853966421683   125.98710508   180.60610485
 C     55  52  51     2.892265239318   113.08176858    17.81434782
 C     55  52  51     2.938020990197   110.89659590   251.39318364
 H     55  52  51     2.086058363922   106.69400238   136.32274294
 H     57  55  52     2.082039637378   106.66564171    65.53138001
 C     57  55  52     2.895319908596   112.04125276   307.27411064
 C     57  55  52     2.895284867626   111.72242431   183.96156598
 H     56  55  52     2.069107437250   110.74377833    48.31525997
 H     56  55  52     2.072620499987   111.31768265   288.20745576
 H     56  55  52     2.065229468898   111.15456736   168.08542592
 H     60  57  55     2.069966270865   110.39287388   183.73351951
 H     60  57  55     2.067004543993   112.15270330    63.55495782
 H     60  57  55     2.074873749101   110.59370647   302.83817539
 H     61  57  55     2.074686329533   110.42140463    56.94978296
 H     61  57  55     2.066359948748   112.49650266   296.11392828
 H     61  57  55     2.070272316543   110.36014737   175.95640907
 H     50  44  40     2.070170104758   110.67767446   186.62702176
 H     50  44  40     2.062767825218   111.00236326    67.21021031
 H     50  44  40     2.071879930939   111.42646594   306.91048022

---------------------
BASIS SET INFORMATION
---------------------
There are 3 groups of distinct atoms

 Group   1 Type C   : 7s4p contracted to 4s3p pattern {4111/211}
 Group   2 Type H   : 5s contracted to 3s pattern {311}
 Group   3 Type O   : 7s4p contracted to 4s3p pattern {4111/211}

Atom   0C    basis set group =>   1
Atom   1C    basis set group =>   1
Atom   2C    basis set group =>   1
Atom   3H    basis set group =>   2
Atom   4H    basis set group =>   2
Atom   5C    basis set group =>   1
Atom   6C    basis set group =>   1
Atom   7C    basis set group =>   1
Atom   8H    basis set group =>   2
Atom   9H    basis set group =>   2
Atom  10H    basis set group =>   2
Atom  11H    basis set group =>   2
Atom  12O    basis set group =>   3
Atom  13H    basis set group =>   2
Atom  14C    basis set group =>   1
Atom  15C    basis set group =>   1
Atom  16H    basis set group =>   2
Atom  17H    basis set group =>   2
Atom  18C    basis set group =>   1
Atom  19H    basis set group =>   2
Atom  20C    basis set group =>   1
Atom  21H    basis set group =>   2
Atom  22C    basis set group =>   1
Atom  23C    basis set group =>   1
Atom  24H    basis set group =>   2
Atom  25H    basis set group =>   2
Atom  26C    basis set group =>   1
Atom  27H    basis set group =>   2
Atom  28H    basis set group =>   2
Atom  29C    basis set group =>   1
Atom  30H    basis set group =>   2
Atom  31H    basis set group =>   2
Atom  32C    basis set group =>   1
Atom  33H    basis set group =>   2
Atom  34C    basis set group =>   1
Atom  35H    basis set group =>   2
Atom  36C    basis set group =>   1
Atom  37H    basis set group =>   2
Atom  38H    basis set group =>   2
Atom  39C    basis set group =>   1
Atom  40H    basis set group =>   2
Atom  41H    basis set group =>   2
Atom  42H    basis set group =>   2
Atom  43C    basis set group =>   1
Atom  44C    basis set group =>   1
Atom  45H    basis set group =>   2
Atom  46H    basis set group =>   2
Atom  47H    basis set group =>   2
Atom  48H    basis set group =>   2
Atom  49C    basis set group =>   1
Atom  50C    basis set group =>   1
Atom  51C    basis set group =>   1
Atom  52H    basis set group =>   2
Atom  53H    basis set group =>   2
Atom  54C    basis set group =>   1
Atom  55C    basis set group =>   1
Atom  56C    basis set group =>   1
Atom  57H    basis set group =>   2
Atom  58H    basis set group =>   2
Atom  59C    basis set group =>   1
Atom  60C    basis set group =>   1
Atom  61H    basis set group =>   2
Atom  62H    basis set group =>   2
Atom  63H    basis set group =>   2
Atom  64H    basis set group =>   2
Atom  65H    basis set group =>   2
Atom  66H    basis set group =>   2
Atom  67H    basis set group =>   2
Atom  68H    basis set group =>   2
Atom  69H    basis set group =>   2
Atom  70H    basis set group =>   2
Atom  71H    basis set group =>   2
Atom  72H    basis set group =>   2

-------------------------
BASIS SET IN INPUT FORMAT
-------------------------

 # Basis set for element : H 
 NewGTO H 
 S 3 
   1    1357.7500000000      0.0012928364
   2      54.3100000000      0.0588280685
   3       4.3448000000      0.9761499708
 S 1 
   1       0.6604910000      1.0000000000
 S 1 
   1       0.1366870000      1.0000000000
  end;

 # Basis set for element : C 
 NewGTO C 
 S 4 
   1  139534.0000000000      0.0001655246
   2    5581.3600000000      0.0074486101
   3     446.5090000000      0.1285821065
   4      67.4620000000      0.9218029311
 S 1 
   1      15.0674000000      1.0000000000
 S 1 
   1       3.9387600000      1.0000000000
 S 1 
   1       0.2999150000      1.0000000000
 P 2 
   1      28.3900000000      0.0816325586
   2       4.3676900000      0.9660360576
 P 1 
   1       0.8698170000      1.0000000000
 P 1 
   1       0.1889340000      1.0000000000
  end;

 # Basis set for element : O 
 NewGTO O 
 S 4 
   1  253789.0000000000      0.0001641076
   2   10151.6000000000      0.0074010921
   3     812.1250000000      0.1277711901
   4     122.6930000000      0.9223372164
 S 1 
   1      27.5608000000      1.0000000000
 S 1 
   1       7.3172600000      1.0000000000
 S 1 
   1       0.5792400000      1.0000000000
 P 2 
   1      53.4157000000      0.0793786106
   2       8.2177900000      0.9670506337
 P 1 
   1       1.6754400000      1.0000000000
 P 1 
   1       0.3506720000      1.0000000000
  end;

---------------------------------
AUXILIARY/J BASIS SET INFORMATION
---------------------------------
There are 3 groups of distinct atoms

 Group   1 Type C   : 12s5p4d2f1g contracted to 6s4p3d1f1g pattern {711111/2111/211/2/1}
 Group   2 Type H   : 5s2p1d contracted to 3s1p1d pattern {311/2/1}
 Group   3 Type O   : 12s5p4d2f1g contracted to 6s4p3d1f1g pattern {711111/2111/211/2/1}

Atom   0C    basis set group =>   1
Atom   1C    basis set group =>   1
Atom   2C    basis set group =>   1
Atom   3H    basis set group =>   2
Atom   4H    basis set group =>   2
Atom   5C    basis set group =>   1
Atom   6C    basis set group =>   1
Atom   7C    basis set group =>   1
Atom   8H    basis set group =>   2
Atom   9H    basis set group =>   2
Atom  10H    basis set group =>   2
Atom  11H    basis set group =>   2
Atom  12O    basis set group =>   3
Atom  13H    basis set group =>   2
Atom  14C    basis set group =>   1
Atom  15C    basis set group =>   1
Atom  16H    basis set group =>   2
Atom  17H    basis set group =>   2
Atom  18C    basis set group =>   1
Atom  19H    basis set group =>   2
Atom  20C    basis set group =>   1
Atom  21H    basis set group =>   2
Atom  22C    basis set group =>   1
Atom  23C    basis set group =>   1
Atom  24H    basis set group =>   2
Atom  25H    basis set group =>   2
Atom  26C    basis set group =>   1
Atom  27H    basis set group =>   2
Atom  28H    basis set group =>   2
Atom  29C    basis set group =>   1
Atom  30H    basis set group =>   2
Atom  31H    basis set group =>   2
Atom  32C    basis set group =>   1
Atom  33H    basis set group =>   2
Atom  34C    basis set group =>   1
Atom  35H    basis set group =>   2
Atom  36C    basis set group =>   1
Atom  37H    basis set group =>   2
Atom  38H    basis set group =>   2
Atom  39C    basis set group =>   1
Atom  40H    basis set group =>   2
Atom  41H    basis set group =>   2
Atom  42H    basis set group =>   2
Atom  43C    basis set group =>   1
Atom  44C    basis set group =>   1
Atom  45H    basis set group =>   2
Atom  46H    basis set group =>   2
Atom  47H    basis set group =>   2
Atom  48H    basis set group =>   2
Atom  49C    basis set group =>   1
Atom  50C    basis set group =>   1
Atom  51C    basis set group =>   1
Atom  52H    basis set group =>   2
Atom  53H    basis set group =>   2
Atom  54C    basis set group =>   1
Atom  55C    basis set group =>   1
Atom  56C    basis set group =>   1
Atom  57H    basis set group =>   2
Atom  58H    basis set group =>   2
Atom  59C    basis set group =>   1
Atom  60C    basis set group =>   1
Atom  61H    basis set group =>   2
Atom  62H    basis set group =>   2
Atom  63H    basis set group =>   2
Atom  64H    basis set group =>   2
Atom  65H    basis set group =>   2
Atom  66H    basis set group =>   2
Atom  67H    basis set group =>   2
Atom  68H    basis set group =>   2
Atom  69H    basis set group =>   2
Atom  70H    basis set group =>   2
Atom  71H    basis set group =>   2
Atom  72H    basis set group =>   2

-------------------------------------
AUXILIARY/J BASIS SET IN INPUT FORMAT
-------------------------------------

 # Auxiliary/J basis set for element : H 
 NewAuxJGTO H 
 S 3 
   1      15.6752927000      0.1007184237
   2       3.6063578000      0.3404257499
   3       1.2080016000      0.6491996172
 S 1 
   1       0.4726794000      1.0000000000
 S 1 
   1       0.2018100000      1.0000000000
 P 2 
   1       2.0281365000      0.5596620919
   2       0.5358730000      0.5596620919
 D 1 
   1       2.2165124000      1.0000000000
  end;

 # Auxiliary/J basis set for element : C 
 NewAuxJGTO C 
 S 7 
   1    1861.0916331000      0.0134602335
   2     642.9939764000      0.0299160374
   3     235.1105725000      0.1008649584
   4      90.7028894000      0.2370970548
   5      36.7794552000      0.3924037254
   6      15.6046273000      0.3195862154
   7       6.8907294000      0.0530104441
 S 1 
   1       3.1478850000     -1.0000000000
 S 1 
   1       1.4777287000      1.0000000000
 S 1 
   1       0.7076466000      1.0000000000
 S 1 
   1       0.3430122000      1.0000000000
 S 1 
   1       0.1669453000      1.0000000000
 P 2 
   1      13.5472892000     -0.6769313712
   2       5.4669419000     -0.3779500978
 P 1 
   1       2.1751721000      1.0000000000
 P 1 
   1       0.8582194000      1.0000000000
 P 1 
   1       0.3376720000      1.0000000000
 D 2 
   1       5.9287253000     -0.3533329857
   2       1.9809209000     -0.7456525731
 D 1 
   1       0.8055417000     -1.0000000000
 D 1 
   1       0.3531244000     -1.0000000000
 F 2 
   1       1.6755626000      0.6311076882
   2       0.5997536000      0.4968166032
 G 1 
   1       1.0024600000     -1.0000000000
  end;

 # Auxiliary/J basis set for element : O 
 NewAuxJGTO O 
 S 7 
   1    2876.8216605000      0.0168151159
   2    1004.7443032000      0.0340137548
   3     369.7579954000      0.1194951309
   4     142.9442404000      0.2664627624
   5      57.8366425000      0.4202764046
   6      24.3864983000      0.2765077335
   7      10.6622662000      0.0057008815
 S 1 
   1       4.8070437000     -1.0000000000
 S 1 
   1       2.2210770000      1.0000000000
 S 1 
   1       1.0447795000      1.0000000000
 S 1 
   1       0.4968425000      1.0000000000
 S 1 
   1       0.2371384000      1.0000000000
 P 2 
   1      64.2613382000     -0.2731534179
   2      16.3006076000     -0.8168011598
 P 1 
   1       4.3550542000      1.0000000000
 P 1 
   1       1.2019554000      1.0000000000
 P 1 
   1       0.3354196000      1.0000000000
 D 2 
   1       9.2146611000     -0.4661230638
   2       2.8435251000     -0.6600908911
 D 1 
   1       0.9955759000     -1.0000000000
 D 1 
   1       0.3649441000     -1.0000000000
 F 2 
   1       2.6420115000      0.5931563945
   2       0.7345613000      0.5931563945
 G 1 
   1       1.3931000000     -1.0000000000
  end;


Checking for AutoStart:
The File: inpJ.gbw exists
Trying to determine its content:
     ... Fine, the file contains calculation information
     ... Fine, the calculation information was read
     ... Fine, the file contains a basis set
     ... Fine, the basis set was read
     ... Fine, the file contains a geometry
     ... Fine, the geometry was read
     ... Fine, the file contains a set of orbitals
     ... Fine, the orbitals can be read
     => possible old guess file was deleted
     => GBW file was renamed to GES file
     => GES file is set as startup file
     => Guess is set to MORead
     ... now leaving AutoStart



           ************************************************************
           *        Program running with 4 parallel MPI-processes     *
           *              working on a common directory               *
           ************************************************************
------------------------------------------------------------------------------
                             ORCA STARTUP CALCULATIONS
                           -- RI-GTO INTEGRALS CHOSEN --
------------------------------------------------------------------------------
------------------------------------------------------------------------------
                   ___                                                        
                  /   \      - P O W E R E D   B Y -                         
                 /     \                                                     
                 |  |  |   _    _      __       _____    __    __             
                 |  |  |  | |  | |    /  \     |  _  \  |  |  /  |          
                  \  \/   | |  | |   /    \    | | | |  |  | /  /          
                 / \  \   | |__| |  /  /\  \   | |_| |  |  |/  /          
                |  |  |   |  __  | /  /__\  \  |    /   |      \           
                |  |  |   | |  | | |   __   |  |    \   |  |\   \          
                \     /   | |  | | |  |  |  |  | |\  \  |  | \   \       
                 \___/    |_|  |_| |__|  |__|  |_| \__\ |__|  \__/        
                                                                              
                      - O R C A' S   B I G   F R I E N D -                    
                                      &                                       
                       - I N T E G R A L  F E E D E R -                       
                                                                              
 v1 FN, 2020, v2 2021, v3 2022-2024                                           
------------------------------------------------------------------------------


----------------------
SHARK INTEGRAL PACKAGE
----------------------

Number of atoms                             ...     73
Number of basis functions                   ...    509
Number of shells                            ...    335
Maximum angular momentum                    ...      1
Integral batch strategy                     ... SHARK/LIBINT Hybrid
RI-J (if used) integral strategy            ... SPLIT-RIJ (Revised 2003 algorithm where possible)
Printlevel                                  ...      1
Contraction scheme used                     ... SEGMENTED contraction
Prescreening option                         ... SCHWARTZ
   Thresh                                   ... 3.000e-11
   Tcut                                     ... 1.000e-12
   Tpresel                                  ... 1.000e-12 
Coulomb Range Separation                    ... NOT USED
Exchange Range Separation                   ... NOT USED
Multipole approximations                    ... NOT USED
Finite Nucleus Model                        ... NOT USED
CABS basis                                  ... NOT available
Auxiliary Coulomb fitting basis             ... AVAILABLE
   # of basis functions in Aux-J            ...   1905
   # of shells in Aux-J                     ...    655
   Maximum angular momentum in Aux-J        ...      4
Auxiliary J/K fitting basis                 ... NOT available
Auxiliary Correlation fitting basis         ... NOT available
Auxiliary 'external' fitting basis          ... NOT available

Checking pre-screening integrals            ... done (  0.0 sec) Dimension = 335
Check shell pair data                       ... done (  0.0 sec)
Shell pair information
Shell pair cut-off parameter TPreSel        ...   1.0e-12
Total number of shell pairs                 ...     56280
Shell pairs after pre-screening             ...     21433
Total number of primitive shell pairs       ...    145865
Primitive shell pairs kept                  ...     36899
          la=0 lb=0:  10792 shell pairs
          la=1 lb=0:   8805 shell pairs
          la=1 lb=1:   1836 shell pairs

Calculating one electron integrals          ... done (  0.0 sec)
Calculating RI/J V-Matrix + Cholesky decomp.... done (  0.2 sec)
Calculating Nuclear repulsion               ... done (  0.0 sec) ENN=   2745.733515095807 Eh

Diagonalization of the overlap matrix:
Smallest eigenvalue                        ... 7.561e-03
Time for diagonalization                   ...    0.026 sec
Threshold for overlap eigenvalues          ... 1.000e-07
Number of eigenvalues below threshold      ... 0
Time for construction of square roots      ...    0.015 sec
Total time needed                          ...    0.044 sec

-------------------
DFT GRID GENERATION
-------------------

General Integration Accuracy     IntAcc      ... 4.388
Radial Grid Type                 RadialGrid  ... OptM3 with GC (2021)
Angular Grid (max. ang.)         AngularGrid ... 4 (Lebedev-302)
Angular grid pruning method      GridPruning ... 4 (adaptive)
Weight generation scheme         WeightScheme... mBecke (2022)
Basis function cutoff            BFCut       ... 1.0000e-11
Integration weight cutoff        WCut        ... 1.0000e-14
Partially contracted basis set               ... off
Rotationally invariant grid construction     ... off
Angular grids for H and He will be reduced by one unit

Total number of grid points                  ...   310094
Total number of batches                      ...     4880
Average number of points per batch           ...       63
Average number of grid points per atom       ...     4248

--------------------
COSX GRID GENERATION
--------------------

GRIDX 1
-------
General Integration Accuracy     IntAcc      ... 3.816
Radial Grid Type                 RadialGrid  ... OptM3 with GC (2021)
Angular Grid (max. ang.)         AngularGrid ... 1 (Lebedev-50)
Angular grid pruning method      GridPruning ... 4 (adaptive)
Weight generation scheme         WeightScheme... mBecke (2022)
Basis function cutoff            BFCut       ... 1.0000e-11
Integration weight cutoff        WCut        ... 1.0000e-14
Partially contracted basis set               ... on
Rotationally invariant grid construction     ... off
Angular grids for H and He will be reduced by one unit

Total number of grid points                  ...    39492
Total number of batches                      ...      353
Average number of points per batch           ...      111
Average number of grid points per atom       ...      541
UseSFitting                                  ... on

GRIDX 2
-------
General Integration Accuracy     IntAcc      ... 4.020
Radial Grid Type                 RadialGrid  ... OptM3 with GC (2021)
Angular Grid (max. ang.)         AngularGrid ... 2 (Lebedev-110)
Angular grid pruning method      GridPruning ... 4 (adaptive)
Weight generation scheme         WeightScheme... mBecke (2022)
Basis function cutoff            BFCut       ... 1.0000e-11
Integration weight cutoff        WCut        ... 1.0000e-14
Partially contracted basis set               ... on
Rotationally invariant grid construction     ... off
Angular grids for H and He will be reduced by one unit

Total number of grid points                  ...    81635
Total number of batches                      ...      681
Average number of points per batch           ...      119
Average number of grid points per atom       ...     1118
UseSFitting                                  ... on

GRIDX 3
-------
General Integration Accuracy     IntAcc      ... 4.338
Radial Grid Type                 RadialGrid  ... OptM3 with GC (2021)
Angular Grid (max. ang.)         AngularGrid ... 3 (Lebedev-194)
Angular grid pruning method      GridPruning ... 4 (adaptive)
Weight generation scheme         WeightScheme... mBecke (2022)
Basis function cutoff            BFCut       ... 1.0000e-11
Integration weight cutoff        WCut        ... 1.0000e-14
Partially contracted basis set               ... on
Rotationally invariant grid construction     ... off
Angular grids for H and He will be reduced by one unit

Total number of grid points                  ...   176648
Total number of batches                      ...     1420
Average number of points per batch           ...      124
Average number of grid points per atom       ...     2420
UseSFitting                                  ... on
Initializing property integral containers    ... done (  0.0 sec)

SHARK setup successfully completed in   3.7 seconds

Maximum memory used throughout the entire STARTUP-calculation: 84.9 MB


           ************************************************************
           *        Program running with 4 parallel MPI-processes     *
           *              working on a common directory               *
           ************************************************************
-------------------------------------------------------------------------------
                                 ORCA GUESS
                   Start orbitals & Density for SCF / CASSCF
-------------------------------------------------------------------------------

------------
SCF SETTINGS
------------
Hamiltonian:
 Density Functional     Method          .... DFT(GTOs)
 Exchange Functional    Exchange        .... PBE
   PBE kappa parameter   XKappa         ....  0.804000
   PBE mue parameter    XMuePBE         ....  0.219520
 Correlation Functional Correlation     .... PBE
   PBE beta parameter  CBetaPBE         ....  0.066725
 LDA part of GGA corr.  LDAOpt          .... PW91-LDA
 Gradients option       PostSCFGGA      .... off
 Hybrid DFT is turned on
   Fraction HF Exchange ScalHFX         ....  0.250000
   Scaling of DF-GGA-X  ScalDFX         ....  0.750000
   Scaling of DF-GGA-C  ScalDFC         ....  1.000000
   Scaling of DF-LDA-C  ScalLDAC        ....  1.000000
   Perturbative correction              ....  0.000000
   NL short-range parameter             ....  6.900000
 RI-approximation to the Coulomb term is turned on
   Number of AuxJ basis functions       .... 1905
   RIJ-COSX (HFX calculated with COS-X)).... on


General Settings:
 Integral files         IntName         .... inpJ
 Hartree-Fock type      HFTyp           .... RHF
 Total Charge           Charge          ....    0
 Multiplicity           Mult            ....    1
 Number of Electrons    NEL             ....  220
 Basis Dimension        Dim             ....  509
 Nuclear Repulsion      ENuc            ....   2745.7335150958 Eh

Convergence Acceleration:
 AO-DIIS                CNVDIIS         .... on
   Start iteration      DIISMaxIt       ....    12
   Startup error        DIISStart       ....  0.200000
   # of expansion vecs  DIISMaxEq       ....     5
   Bias factor          DIISBfac        ....   1.050
   Max. coefficient     DIISMaxC        ....  10.000
 MO-DIIS                CNVKDIIS        .... off
 Trust-Rad. Augm. Hess. CNVTRAH         .... auto
   Auto Start mean grad. ratio tolernc. ....  1.125000
   Auto Start start iteration           ....     1
   Auto Start num. interpolation iter.  ....    10
   Max. Number of Micro iterations      ....    24
   Max. Number of Macro iterations      .... Maxiter - #DIIS iter
   Number of Davidson start vectors     ....     2
   Converg. threshold    (grad. norm)   ....   1.000e-04
   Grad. Scal. Fac. for Micro threshold ....   0.100
   Minimum threshold for Micro iter.    ....   1.000e-02
   NR start threshold (gradient norm)   ....   1.000e-04
   Initial trust radius                 ....   0.400
   Minimum AH scaling param. (alpha)    ....   1.000
   Maximum AH scaling param. (alpha)    .... 1000.000
   Quad. conv. algorithm                .... NR
   White noise on init. David. guess    .... on
   Maximum white noise                  ....   0.010
   Pseudo random numbers                .... off
   Inactive MOs                         .... canonical
   Orbital update algorithm             .... Taylor
   Preconditioner                       .... Diag
   Full preconditioner red. dimension   ....   250
 SOSCF                  CNVSOSCF        .... off
 Level Shifting         CNVShift        .... on
   Level shift para.    LevelShift      ....    0.2500
   Turn off err/grad.   ShiftErr        ....    0.0010
 Zerner damping         CNVZerner       .... off
 Static damping         CNVDamp         .... on
   Fraction old density DampFac         ....    0.7000
   Max. Damping (<1)    DampMax         ....    0.9800
   Min. Damping (>=0)   DampMin         ....    0.0000
   Turn off err/grad.   DampErr         ....    0.1000

SCF Procedure:
 Maximum # iterations   MaxIter         ....   125
 SCF integral mode      SCFMode         .... Direct
   Integral package                     .... SHARK and LIBINT hybrid scheme
 Reset frequency        DirectResetFreq ....    20
 Integral Threshold     Thresh          ....  3.000e-11 Eh
 Primitive CutOff       TCut            ....  1.000e-12 Eh

Convergence Tolerance:
 Convergence Check Mode ConvCheckMode   .... Total+1el-Energy
 Convergence forced     ConvForced      .... 0
 Energy Change          TolE            ....  1.000e-07 Eh
 1-El. energy change                    ....  1.000e-04 Eh
 DIIS Error             TolErr          ....  1.000e-07

---------------------
INITIAL GUESS: MOREAD
---------------------
Guess MOs are being read from file: inpJ.ges
Input Geometry matches current geometry (good)
Input basis set matches current basis set (good)
Occupation numbers will be reassigned to an Aufbau configuration
MOs were renormalized
MOs were reorthogonalized (Cholesky)
                      ------------------
                      INITIAL GUESS DONE (   0.1 sec)
                      ------------------
             **** ENERGY FILE WAS UPDATED (inpJ.en.tmp) ****
Finished Guess after   0.2 sec
Maximum memory used throughout the entire GUESS-calculation: 36.3 MB


           ************************************************************
           *        Program running with 4 parallel MPI-processes     *
           *              working on a common directory               *
           ************************************************************

-------------------------------------------------------------------------------------------
                                      ORCA LEAN-SCF
                              memory conserving SCF solver
-------------------------------------------------------------------------------------------

--------------------
CPCM SOLVATION MODEL
--------------------
CPCM parameters:
  Epsilon                                         ...       4.8030
  Refrac                                          ...       1.4459
  Rsolv                                           ...       1.3000
  Surface type                                    ... GAUSSIAN VDW
  Discretization scheme                           ... Constant charge density
    Threshold for H atoms                         ...       5.0000 (charges/Ang^2)
    Threshold for non-H atoms                     ...       5.0000 (charges/Ang^2)
  Epsilon function type                           ...         CPCM
Solvent:                                          ... CHLOROFORM
Radii:
  Scheme                                          ... Element-dependent radii
  Radius for C  used is    3.8550 Bohr (=   2.0400 Ang.)
  Radius for H  used is    2.4944 Bohr (=   1.3200 Ang.)
  Radius for O  used is    3.4469 Bohr (=   1.8240 Ang.)
Calculating surface                               ...        done! (  0.0s)
Cavity surface points                             ...         5438
Cavity Volume                                     ...    3605.7913
Cavity Surface-area                               ...    1797.3459
Calculating surface distance matrix               ...        done! (  0.2s)
Performing Cholesky decomposition & store         ...        done! (  1.0s)
Overall time for CPCM initialization              ...                 1.2s

----------------------------------------D-I-I-S--------------------------------------------
Iteration    Energy (Eh)           Delta-E    RMSDP     MaxDP     DIISErr   Damp  Time(sec)
-------------------------------------------------------------------------------------------
               ***  Starting incremental Fock matrix formation  ***
    1    -1165.5078400148545370     0.00e+00  3.56e-08  4.99e-06  5.74e-06  0.700   6.1

  HOMO= 109 E= -5.928 eV LUMO=  5.976 eV gap=  11.905 eV
    2    -1165.5078400464117294    -3.16e-08  2.41e-08  3.01e-06  2.86e-06  0.700   1.9
                 **** Energy Check signals convergence ****

  HOMO= 109 E= -5.928 eV LUMO=  5.976 eV gap=  11.905 eV

               *****************************************************
               *                     SUCCESS                       *
               *           SCF CONVERGED AFTER   2 CYCLES          *
               *****************************************************

Recomputing exchange energy using gridx3       ... done (    8.393 sec)
Old exchange energy                            :    -42.068151956 Eh
New exchange energy                            :    -42.068053940 Eh
Exchange energy change after final integration :      0.000098016 Eh
Total energy after final integration           :  -1165.507742031 Eh
             **** ENERGY FILE WAS UPDATED (inpJ.en.tmp) ****

----------------
TOTAL SCF ENERGY
----------------

Total Energy       :      -1165.50774203082892 Eh          -31715.07802 eV

Components:
Nuclear Repulsion  :       2745.73351509580698 Eh           74715.20739 eV
Electronic Energy  :      -3911.22592786832774 Eh         -106429.86829 eV
One Electron Energy:      -7033.47493086298709 Eh         -191390.58298 eV
Two Electron Energy:       3122.24900299465935 Eh           84960.71469 eV
CPCM Dielectric    :         -0.01542727389079 Eh              -0.41980 eV

Virial components:
Potential Energy   :      -2322.41023493821649 Eh          -63195.99531 eV
Kinetic Energy     :       1156.90249290738734 Eh           31480.91729 eV
Virial Ratio       :          2.00743818011993

DFT components:
N(Alpha)           :      110.000280093574 electrons
N(Beta)            :      110.000280093574 electrons
N(Total)           :      220.000560187148 electrons
E(X)               :     -125.747031927750 Eh       
E(C)               :       -7.327808666285 Eh       
E(XC)              :     -133.074840594035 Eh       

CPCM Solvation Model Properties:
Surface-charge          :         -0.03353277289586
Corrected charge        :         -0.00000000000000
Outlying charge corr.   :          0.00003893877729 Eh               0.00106 eV
Free-energy (cav+disp)  :  This term is not implemented in the current solvation scheme

---------------
SCF CONVERGENCE
---------------

  Last Energy change         ...    3.1557e-08  Tolerance :   1.0000e-07
  Last MAX-Density change    ...    3.0113e-06  Tolerance :   1.0000e-05
  Last RMS-Density change    ...    2.4123e-08  Tolerance :   1.0000e-06
  Last DIIS Error            ...    2.8563e-06  Tolerance :   1.0000e-07


----------------
ORBITAL ENERGIES
----------------

  NO   OCC          E(Eh)            E(eV) 
   0   2.0000     -19.215314      -522.8753 
   1   2.0000     -10.301542      -280.3192 
   2   2.0000     -10.269666      -279.4518 
   3   2.0000     -10.267075      -279.3813 
   4   2.0000     -10.262113      -279.2463 
   5   2.0000     -10.256724      -279.0996 
   6   2.0000     -10.253722      -279.0180 
   7   2.0000     -10.252017      -278.9716 
   8   2.0000     -10.251299      -278.9520 
   9   2.0000     -10.250175      -278.9214 
  10   2.0000     -10.249348      -278.8989 
  11   2.0000     -10.246581      -278.8236 
  12   2.0000     -10.246385      -278.8183 
  13   2.0000     -10.245800      -278.8024 
  14   2.0000     -10.243947      -278.7520 
  15   2.0000     -10.243463      -278.7388 
  16   2.0000     -10.242103      -278.7018 
  17   2.0000     -10.242072      -278.7009 
  18   2.0000     -10.241246      -278.6785 
  19   2.0000     -10.241114      -278.6749 
  20   2.0000     -10.239233      -278.6237 
  21   2.0000     -10.235548      -278.5234 
  22   2.0000     -10.234941      -278.5069 
  23   2.0000     -10.233669      -278.4723 
  24   2.0000     -10.224622      -278.2261 
  25   2.0000     -10.224553      -278.2242 
  26   2.0000     -10.224350      -278.2187 
  27   2.0000     -10.224177      -278.2140 
  28   2.0000     -10.220803      -278.1222 
  29   2.0000      -1.045990       -28.4628 
  30   2.0000      -0.901258       -24.5245 
  31   2.0000      -0.883939       -24.0532 
  32   2.0000      -0.859854       -23.3978 
  33   2.0000      -0.846048       -23.0221 
  34   2.0000      -0.822420       -22.3792 
  35   2.0000      -0.814466       -22.1627 
  36   2.0000      -0.795352       -21.6426 
  37   2.0000      -0.794996       -21.6329 
  38   2.0000      -0.776792       -21.1376 
  39   2.0000      -0.758130       -20.6298 
  40   2.0000      -0.740740       -20.1566 
  41   2.0000      -0.730782       -19.8856 
  42   2.0000      -0.714317       -19.4375 
  43   2.0000      -0.702246       -19.1091 
  44   2.0000      -0.699502       -19.0344 
  45   2.0000      -0.694190       -18.8899 
  46   2.0000      -0.669566       -18.2198 
  47   2.0000      -0.664728       -18.0882 
  48   2.0000      -0.634915       -17.2769 
  49   2.0000      -0.622194       -16.9308 
  50   2.0000      -0.619654       -16.8616 
  51   2.0000      -0.608793       -16.5661 
  52   2.0000      -0.597931       -16.2705 
  53   2.0000      -0.584528       -15.9058 
  54   2.0000      -0.559378       -15.2214 
  55   2.0000      -0.541579       -14.7371 
  56   2.0000      -0.532738       -14.4965 
  57   2.0000      -0.529619       -14.4117 
  58   2.0000      -0.515354       -14.0235 
  59   2.0000      -0.511316       -13.9136 
  60   2.0000      -0.505701       -13.7608 
  61   2.0000      -0.492690       -13.4068 
  62   2.0000      -0.480409       -13.0726 
  63   2.0000      -0.476189       -12.9578 
  64   2.0000      -0.473955       -12.8970 
  65   2.0000      -0.469182       -12.7671 
  66   2.0000      -0.464859       -12.6495 
  67   2.0000      -0.459264       -12.4972 
  68   2.0000      -0.457610       -12.4522 
  69   2.0000      -0.456039       -12.4094 
  70   2.0000      -0.448496       -12.2042 
  71   2.0000      -0.444237       -12.0883 
  72   2.0000      -0.436196       -11.8695 
  73   2.0000      -0.432818       -11.7776 
  74   2.0000      -0.430645       -11.7185 
  75   2.0000      -0.421672       -11.4743 
  76   2.0000      -0.416948       -11.3457 
  77   2.0000      -0.414069       -11.2674 
  78   2.0000      -0.409151       -11.1336 
  79   2.0000      -0.404191       -10.9986 
  80   2.0000      -0.401547       -10.9267 
  81   2.0000      -0.397436       -10.8148 
  82   2.0000      -0.396625       -10.7927 
  83   2.0000      -0.388583       -10.5739 
  84   2.0000      -0.386281       -10.5112 
  85   2.0000      -0.379849       -10.3362 
  86   2.0000      -0.376429       -10.2432 
  87   2.0000      -0.370507       -10.0820 
  88   2.0000      -0.367558       -10.0018 
  89   2.0000      -0.366545        -9.9742 
  90   2.0000      -0.362102        -9.8533 
  91   2.0000      -0.361078        -9.8254 
  92   2.0000      -0.351434        -9.5630 
  93   2.0000      -0.345042        -9.3891 
  94   2.0000      -0.342207        -9.3119 
  95   2.0000      -0.340508        -9.2657 
  96   2.0000      -0.335724        -9.1355 
  97   2.0000      -0.334166        -9.0931 
  98   2.0000      -0.329507        -8.9663 
  99   2.0000      -0.327498        -8.9117 
 100   2.0000      -0.326862        -8.8944 
 101   2.0000      -0.326261        -8.8780 
 102   2.0000      -0.320022        -8.7082 
 103   2.0000      -0.316218        -8.6047 
 104   2.0000      -0.311822        -8.4851 
 105   2.0000      -0.301016        -8.1911 
 106   2.0000      -0.280189        -7.6243 
 107   2.0000      -0.275056        -7.4847 
 108   2.0000      -0.255128        -6.9424 
 109   2.0000      -0.217867        -5.9285 
 110   0.0000      -0.030380        -0.8267 
 111   0.0000       0.021079         0.5736 
 112   0.0000       0.029822         0.8115 
 113   0.0000       0.082232         2.2377 
 114   0.0000       0.093982         2.5574 
 115   0.0000       0.101151         2.7525 
 116   0.0000       0.102082         2.7778 
 117   0.0000       0.106916         2.9093 
 118   0.0000       0.109297         2.9741 
 119   0.0000       0.114041         3.1032 
 120   0.0000       0.118649         3.2286 
*Only the first 10 virtual orbitals were printed.

                    ********************************
                    * MULLIKEN POPULATION ANALYSIS *
                    ********************************

-----------------------
MULLIKEN ATOMIC CHARGES
-----------------------
   0 C :    0.108034
   1 C :   -0.499866
   2 C :   -0.054967
   3 H :    0.207435
   4 H :    0.222271
   5 C :    0.136091
   6 C :   -0.476025
   7 C :   -0.451651
   8 H :    0.214104
   9 H :    0.224160
  10 H :    0.229201
  11 H :    0.204565
  12 O :   -0.487394
  13 H :    0.233933
  14 C :   -0.283468
  15 C :   -0.516704
  16 H :    0.201293
  17 H :    0.196719
  18 C :   -0.259552
  19 H :    0.217838
  20 C :    0.150478
  21 H :    0.219095
  22 C :   -0.479669
  23 C :   -0.427290
  24 H :    0.211758
  25 H :    0.206670
  26 C :   -0.397054
  27 H :    0.207985
  28 H :    0.217033
  29 C :    0.000817
  30 H :    0.222255
  31 H :    0.194181
  32 C :   -0.229011
  33 H :    0.227671
  34 C :   -0.430373
  35 H :    0.343151
  36 C :   -0.428169
  37 H :    0.208050
  38 H :    0.198853
  39 C :   -0.185313
  40 H :    0.210620
  41 H :    0.205733
  42 H :    0.212701
  43 C :   -0.238251
  44 C :   -0.627962
  45 H :    0.209335
  46 H :    0.201490
  47 H :    0.205519
  48 H :    0.218899
  49 C :   -0.641947
  50 C :   -0.185401
  51 C :   -0.182050
  52 H :    0.225489
  53 H :    0.221876
  54 C :   -0.230030
  55 C :   -0.634506
  56 C :   -0.198487
  57 H :    0.211210
  58 H :    0.212146
  59 C :   -0.613158
  60 C :   -0.613688
  61 H :    0.203877
  62 H :    0.191583
  63 H :    0.213733
  64 H :    0.206116
  65 H :    0.208983
  66 H :    0.192175
  67 H :    0.192527
  68 H :    0.209940
  69 H :    0.205599
  70 H :    0.200815
  71 H :    0.215920
  72 H :    0.192060
Sum of atomic charges:   -0.0000000

--------------------------------
MULLIKEN REDUCED ORBITAL CHARGES
--------------------------------
  0 C s       :     3.355712  s :     3.355712
      pz      :     0.968211  p :     2.536254
      px      :     0.794293
      py      :     0.773751

  1 C s       :     3.383527  s :     3.383527
      pz      :     1.067486  p :     3.116339
      px      :     0.962769
      py      :     1.086084

  2 C s       :     3.306278  s :     3.306278
      pz      :     1.053378  p :     2.748689
      px      :     0.820904
      py      :     0.874407

  3 H s       :     0.792565  s :     0.792565

  4 H s       :     0.777729  s :     0.777729

  5 C s       :     3.345247  s :     3.345247
      pz      :     0.788754  p :     2.518662
      px      :     0.949275
      py      :     0.780633

  6 C s       :     3.368403  s :     3.368403
      pz      :     1.088085  p :     3.107622
      px      :     0.958088
      py      :     1.061450

  7 C s       :     3.340543  s :     3.340543
      pz      :     1.125154  p :     3.111108
      px      :     1.001187
      py      :     0.984767

  8 H s       :     0.785896  s :     0.785896

  9 H s       :     0.775840  s :     0.775840

 10 H s       :     0.770799  s :     0.770799

 11 H s       :     0.795435  s :     0.795435

 12 O s       :     3.685552  s :     3.685552
      pz      :     1.626356  p :     4.801842
      px      :     1.287631
      py      :     1.887854

 13 H s       :     0.766067  s :     0.766067

 14 C s       :     3.392345  s :     3.392345
      pz      :     1.031001  p :     2.891123
      px      :     0.791473
      py      :     1.068649

 15 C s       :     3.387079  s :     3.387079
      pz      :     0.950047  p :     3.129625
      px      :     1.021075
      py      :     1.158503

 16 H s       :     0.798707  s :     0.798707

 17 H s       :     0.803281  s :     0.803281

 18 C s       :     3.396594  s :     3.396594
      pz      :     1.043993  p :     2.862958
      px      :     0.744322
      py      :     1.074643

 19 H s       :     0.782162  s :     0.782162

 20 C s       :     3.350228  s :     3.350228
      pz      :     0.949737  p :     2.499293
      px      :     0.750729
      py      :     0.798828

 21 H s       :     0.780905  s :     0.780905

 22 C s       :     3.372538  s :     3.372538
      pz      :     1.068377  p :     3.107131
      px      :     1.107084
      py      :     0.931670

 23 C s       :     3.327099  s :     3.327099
      pz      :     1.053599  p :     3.100191
      px      :     0.891581
      py      :     1.155011

 24 H s       :     0.788242  s :     0.788242

 25 H s       :     0.793330  s :     0.793330

 26 C s       :     3.349963  s :     3.349963
      pz      :     1.164898  p :     3.047091
      px      :     0.972836
      py      :     0.909358

 27 H s       :     0.792015  s :     0.792015

 28 H s       :     0.782967  s :     0.782967

 29 C s       :     3.318236  s :     3.318236
      pz      :     0.866423  p :     2.680947
      px      :     0.908360
      py      :     0.906163

 30 H s       :     0.777745  s :     0.777745

 31 H s       :     0.805819  s :     0.805819

 32 C s       :     3.362616  s :     3.362616
      pz      :     1.019564  p :     2.866394
      px      :     0.872900
      py      :     0.973930

 33 H s       :     0.772329  s :     0.772329

 34 C s       :     3.344473  s :     3.344473
      pz      :     1.173967  p :     3.085900
      px      :     0.938917
      py      :     0.973016

 35 H s       :     0.656849  s :     0.656849

 36 C s       :     3.336153  s :     3.336153
      pz      :     1.127854  p :     3.092016
      px      :     0.940463
      py      :     1.023699

 37 H s       :     0.791950  s :     0.791950

 38 H s       :     0.801147  s :     0.801147

 39 C s       :     3.339012  s :     3.339012
      pz      :     0.997570  p :     2.846302
      px      :     0.864930
      py      :     0.983802

 40 H s       :     0.789380  s :     0.789380

 41 H s       :     0.794267  s :     0.794267

 42 H s       :     0.787299  s :     0.787299

 43 C s       :     3.348420  s :     3.348420
      pz      :     0.981019  p :     2.889831
      px      :     0.879352
      py      :     1.029460

 44 C s       :     3.366109  s :     3.366109
      pz      :     1.001886  p :     3.261854
      px      :     1.158419
      py      :     1.101549

 45 H s       :     0.790665  s :     0.790665

 46 H s       :     0.798510  s :     0.798510

 47 H s       :     0.794481  s :     0.794481

 48 H s       :     0.781101  s :     0.781101

 49 C s       :     3.352288  s :     3.352288
      pz      :     1.104072  p :     3.289659
      px      :     1.157766
      py      :     1.027822

 50 C s       :     3.348997  s :     3.348997
      pz      :     0.973154  p :     2.836404
      px      :     0.812691
      py      :     1.050559

 51 C s       :     3.348746  s :     3.348746
      pz      :     0.973662  p :     2.833304
      px      :     0.812027
      py      :     1.047615

 52 H s       :     0.774511  s :     0.774511

 53 H s       :     0.778124  s :     0.778124

 54 C s       :     3.339580  s :     3.339580
      pz      :     0.960860  p :     2.890450
      px      :     0.897784
      py      :     1.031805

 55 C s       :     3.348134  s :     3.348134
      pz      :     1.084468  p :     3.286372
      px      :     1.152835
      py      :     1.049069

 56 C s       :     3.311406  s :     3.311406
      pz      :     0.959309  p :     2.887081
      px      :     0.900570
      py      :     1.027202

 57 H s       :     0.788790  s :     0.788790

 58 H s       :     0.787854  s :     0.787854

 59 C s       :     3.341687  s :     3.341687
      pz      :     1.081763  p :     3.271471
      px      :     1.144557
      py      :     1.045151

 60 C s       :     3.341905  s :     3.341905
      pz      :     1.090407  p :     3.271783
      px      :     1.040047
      py      :     1.141329

 61 H s       :     0.796123  s :     0.796123

 62 H s       :     0.808417  s :     0.808417

 63 H s       :     0.786267  s :     0.786267

 64 H s       :     0.793884  s :     0.793884

 65 H s       :     0.791017  s :     0.791017

 66 H s       :     0.807825  s :     0.807825

 67 H s       :     0.807473  s :     0.807473

 68 H s       :     0.790060  s :     0.790060

 69 H s       :     0.794401  s :     0.794401

 70 H s       :     0.799185  s :     0.799185

 71 H s       :     0.784080  s :     0.784080

 72 H s       :     0.807940  s :     0.807940


------------------------
MULLIKEN OVERLAP CHARGES
------------------------
B(  0-C ,  1-C ) :   0.4959 B(  0-C ,  2-C ) :  -0.1305 B(  0-C ,  3-H ) :  -0.0877 
B(  0-C ,  4-H ) :  -0.0673 B(  0-C ,  5-C ) :   0.4218 B(  0-C ,  6-C ) :  -0.1565 
B(  0-C , 14-C ) :   0.9467 B(  0-C , 15-C ) :  -0.2028 B(  0-C , 18-C ) :  -0.1834 
B(  0-C , 19-H ) :  -0.0751 B(  1-C ,  2-C ) :   0.5271 B(  1-C ,  3-H ) :   0.7957 
B(  1-C ,  4-H ) :   0.8136 B(  1-C ,  5-C ) :  -0.1482 B(  1-C ,  7-C ) :  -0.1689 
B(  1-C , 12-O ) :  -0.0831 B(  1-C , 13-H ) :  -0.0841 B(  1-C , 14-C ) :  -0.1079 
B(  2-C ,  3-H ) :  -0.0819 B(  2-C ,  4-H ) :  -0.0581 B(  2-C ,  6-C ) :  -0.1293 
B(  2-C ,  7-C ) :   0.5341 B(  2-C , 10-H ) :  -0.0697 B(  2-C , 11-H ) :  -0.0823 
B(  2-C , 12-O ) :   0.6908 B(  2-C , 13-H ) :   0.7985 B(  2-C , 35-H ) :  -0.1131 
B(  5-C ,  6-C ) :   0.5385 B(  5-C ,  7-C ) :  -0.1714 B(  5-C ,  8-H ) :  -0.0883 
B(  5-C ,  9-H ) :  -0.0736 B(  5-C , 14-C ) :  -0.1964 B(  5-C , 15-C ) :   1.0578 
B(  5-C , 16-H ) :  -0.0995 B(  5-C , 17-H ) :  -0.0943 B(  6-C ,  7-C ) :   0.5413 
B(  6-C ,  8-H ) :   0.8036 B(  6-C ,  9-H ) :   0.8193 B(  6-C , 11-H ) :  -0.0737 
B(  6-C , 15-C ) :  -0.1289 B(  7-C ,  8-H ) :  -0.0771 B(  7-C , 10-H ) :   0.8058 
B(  7-C , 11-H ) :   0.7945 B(  7-C , 12-O ) :  -0.0901 B(  7-C , 13-H ) :  -0.0848 
B( 12-O , 35-H ) :   0.6598 B( 14-C , 18-C ) :   0.6129 B( 14-C , 19-H ) :   0.8250 
B( 14-C , 20-C ) :  -0.1951 B( 14-C , 21-H ) :  -0.0735 B( 15-C , 16-H ) :   0.8144 
B( 15-C , 17-H ) :   0.8069 B( 18-C , 19-H ) :  -0.0609 B( 18-C , 20-C ) :   0.9223 
B( 18-C , 21-H ) :   0.8315 B( 18-C , 22-C ) :  -0.1501 B( 18-C , 32-C ) :  -0.1482 
B( 20-C , 21-H ) :  -0.0845 B( 20-C , 22-C ) :   0.5323 B( 20-C , 23-C ) :  -0.1707 
B( 20-C , 24-H ) :  -0.0670 B( 20-C , 25-H ) :  -0.0930 B( 20-C , 29-C ) :  -0.1245 
B( 20-C , 32-C ) :   0.5185 B( 20-C , 33-H ) :  -0.0914 B( 20-C , 34-C ) :  -0.0988 
[...]
        0.0000         1.1351        0.0000
        0.0000         0.0000        1.1351

 Diagonalized JT*J matrix:
 
 J[55,60](FC)             1.135            1.135            1.135  iso=      1.135
                ---------------  ---------------  ---------------  ---------------
 J[55,60](Total)          1.135            1.135            1.135  iso=      1.135



-----------------------------------------------------------
 NUCLEUS A = C   56 NUCLEUS B = C   59 
 ( 13C  gnA =  1.405  13C  gnB =  1.405) r(AB) =     1.5321
-----------------------------------------------------------

Fermi-contact contribution to J (Hz):
       27.3038         0.0000        0.0000
        0.0000        27.3038        0.0000
        0.0000         0.0000       27.3038

Total spin-spin coupling tensor J (Hz):
       27.3038         0.0000        0.0000
        0.0000        27.3038        0.0000
        0.0000         0.0000       27.3038

 Diagonalized JT*J matrix:
 
 J[56,59](FC)            27.304           27.304           27.304  iso=     27.304
                ---------------  ---------------  ---------------  ---------------
 J[56,59](Total)         27.304           27.304           27.304  iso=     27.304



-----------------------------------------------------------
 NUCLEUS A = C   56 NUCLEUS B = C   60 
 ( 13C  gnA =  1.405  13C  gnB =  1.405) r(AB) =     1.5321
-----------------------------------------------------------

Fermi-contact contribution to J (Hz):
       26.6055         0.0000        0.0000
        0.0000        26.6055        0.0000
        0.0000         0.0000       26.6055

Total spin-spin coupling tensor J (Hz):
       26.6055         0.0000        0.0000
        0.0000        26.6055        0.0000
        0.0000         0.0000       26.6055

 Diagonalized JT*J matrix:
 
 J[56,60](FC)            26.605           26.605           26.605  iso=     26.605
                ---------------  ---------------  ---------------  ---------------
 J[56,60](Total)         26.605           26.605           26.605  iso=     26.605



-----------------------------------------------------------
 NUCLEUS A = C   59 NUCLEUS B = C   60 
 ( 13C  gnA =  1.405  13C  gnB =  1.405) r(AB) =     2.5026
-----------------------------------------------------------

Fermi-contact contribution to J (Hz):
       -1.0022         0.0000        0.0000
        0.0000        -1.0022        0.0000
        0.0000         0.0000       -1.0022

Total spin-spin coupling tensor J (Hz):
       -1.0022         0.0000        0.0000
        0.0000        -1.0022        0.0000
        0.0000         0.0000       -1.0022

 Diagonalized JT*J matrix:
 
 J[59,60](FC)            -1.002           -1.002           -1.002  iso=     -1.002
                ---------------  ---------------  ---------------  ---------------
 J[59,60](Total)         -1.002           -1.002           -1.002  iso=     -1.002



-----------------------------------------------------------------------------
                SUMMARY OF ISOTROPIC COUPLING CONSTANTS J (Hz)                
-----------------------------------------------------------------------------
                  0 C        1 C        2 C        5 C        6 C        7 C  
      0 C        0.000     32.382     -2.412     42.266     -0.215      0.889
      1 C       32.382      0.000     25.358     -1.208      0.379     -0.416
      2 C       -2.412     25.358      0.000      2.003     -1.341     25.895
      5 C       42.266     -1.208      2.003      0.000     31.046     -2.929
      6 C       -0.215      0.379     -1.341     31.046      0.000     23.071
      7 C        0.889     -0.416     25.895     -2.929     23.071      0.000
     14 C       70.162     -0.367      3.555     -3.204      2.741     -0.714
     15 C       -3.311      2.722     -0.839     64.316     -0.969      2.836
     18 C       -2.658      4.232     -1.068      3.289     -1.019      0.212
     20 C        6.965     -1.155      1.246     -1.515      0.786     -0.149
     22 C       -0.939      0.332     -0.378      0.446     -0.237      0.047
     23 C        0.788     -0.267      0.287     -0.330      0.188      0.000
     26 C       -0.076      0.030      0.000      0.041      0.000      0.000
     29 C        1.127     -0.360      0.000     -0.488      0.259      0.000
     32 C       -1.150      0.555     -0.411      0.514     -0.277      0.059
     34 C        0.023     -0.015      0.016     -0.018      0.009     -0.002
     36 C       -0.013      0.000      0.000      0.015     -0.009      0.000
     39 C       -0.079      0.000      0.000      0.033      0.000      0.000
     43 C        0.000      0.000      0.000      0.000      0.000      0.000
     44 C        0.011     -0.004      0.006     -0.007      0.004     -0.001
     49 C        0.000      0.000      0.000      0.000      0.000      0.000
     50 C        0.000      0.000      0.000      0.000      0.000      0.000
     51 C        0.000      0.000      0.000      0.000      0.000      0.000
     54 C        0.000      0.000      0.000      0.000      0.000      0.000
     55 C        0.000      0.000      0.000      0.000      0.000      0.000
     56 C        0.000      0.000      0.000      0.000      0.000      0.000
     59 C        0.000      0.000      0.000      0.000      0.000      0.000
     60 C        0.000      0.000      0.000      0.000      0.000      0.000
                 14 C       15 C       18 C       20 C       22 C       23 C  
      0 C       70.162     -3.311     -2.658      6.965     -0.939      0.788
      1 C       -0.367      2.722      4.232     -1.155      0.332     -0.267
      2 C        3.555     -0.839     -1.068      1.246     -0.378      0.287
      5 C       -3.204     64.316      3.289     -1.515      0.446     -0.330
      6 C        2.741     -0.969     -1.019      0.786     -0.237      0.188
      7 C       -0.714      2.836      0.212     -0.149      0.047      0.000
     14 C        0.000      3.072     54.569     -2.814      3.891     -0.883
     15 C        3.072      0.000     -1.136      1.077     -0.275      0.234
     18 C       54.569     -1.136      0.000     70.074     -2.187      2.477
     20 C       -2.814      1.077     70.074      0.000     32.327     -2.863
     22 C        3.891     -0.275     -2.187     32.327      0.000     24.579
     23 C       -0.883      0.234      2.477     -2.863     24.579      0.000
     26 C        0.114     -0.020     -0.369      1.040     -1.915     25.431
     29 C       -1.160      0.343      2.405     -2.369      1.101     -2.199
     32 C        4.399     -0.337     -1.346     37.105     -0.270      1.516
     34 C        0.064      0.005      2.494     -1.336      1.604     -0.255
     36 C        0.012     -0.014     -0.144      3.494      0.071      0.173
     39 C        0.265     -0.023     -0.052      2.929     -0.339      2.527
     43 C        0.012      0.000      0.297      0.218     -0.004     -0.105
     44 C       -0.001      0.004     -0.069      0.705     -0.137      0.659
     49 C       -0.001      0.000     -0.009     -0.030      0.142      0.044
     50 C        0.000      0.000      0.004      0.224     -0.008      0.114
     51 C        0.000      0.000      0.000      0.065     -0.003      0.001
     54 C        0.000      0.000      0.000      0.000      0.000      0.000
     55 C        0.000      0.000      0.000      0.000      0.000      0.000
     56 C        0.000      0.000      0.000      0.000      0.000      0.000
     59 C        0.000      0.000      0.000      0.000      0.000      0.000
     60 C        0.000      0.000      0.000      0.000      0.000      0.000
                 26 C       29 C       32 C       34 C       36 C       39 C  
      0 C       -0.076      1.127     -1.150      0.023     -0.013     -0.079
      1 C        0.030     -0.360      0.555     -0.015      0.000      0.000
      2 C        0.000      0.000     -0.411      0.016      0.000      0.000
      5 C        0.041     -0.488      0.514     -0.018      0.015      0.033
      6 C        0.000      0.259     -0.277      0.009     -0.009      0.000
      7 C        0.000      0.000      0.059     -0.002      0.000      0.000
     14 C        0.114     -1.160      4.399      0.064      0.012      0.265
     15 C       -0.020      0.343     -0.337      0.005     -0.014     -0.023
     18 C       -0.369      2.405     -1.346      2.494     -0.144     -0.052
     20 C        1.040     -2.369     37.105     -1.336      3.494      2.929
     22 C       -1.915      1.101     -0.270      1.604      0.071     -0.339
     23 C       25.431     -2.199      1.516     -0.255      0.173      2.527
     26 C        0.000     27.906     -0.916      2.327      3.040     -0.614
     29 C       27.906      0.000     23.313      0.896      0.686     28.300
     32 C       -0.916     23.313      0.000     27.977      1.286      3.378
     34 C        2.327      0.896     27.977      0.000     26.130      0.024
     36 C        3.040      0.686      1.286     26.130      0.000     26.522
     39 C       -0.614     28.300      3.378      0.024     26.522      0.000
     43 C       -0.011     -0.714      2.840      1.527     -0.074     27.897
     44 C       -0.609     27.161     -0.970      0.763      0.286     -1.306
     49 C        0.412      0.134     -0.001      0.055      3.282     -1.066
     50 C       -0.077      3.039      0.024      0.088      1.441     -2.752
     51 C       -0.017      0.162      0.149     -0.036      0.060      2.812
     54 C       -0.002      0.099     -0.036      0.015      0.006     -0.826
     55 C        0.001     -0.005      0.001     -0.001     -0.011      0.079
     56 C        0.000      0.053      0.000     -0.007      0.026      1.162
     59 C       -0.001      0.005      0.000      0.000     -0.004      0.067
     60 C        0.000      0.000      0.000      0.000      0.002     -0.013
                 43 C       44 C       49 C       50 C       51 C       54 C  
      0 C        0.000      0.011      0.000      0.000      0.000      0.000
      1 C        0.000     -0.004      0.000      0.000      0.000      0.000
      2 C        0.000      0.006      0.000      0.000      0.000      0.000
      5 C        0.000     -0.007      0.000      0.000      0.000      0.000
      6 C        0.000      0.004      0.000      0.000      0.000      0.000
      7 C        0.000     -0.001      0.000      0.000      0.000      0.000
     14 C        0.012     -0.001     -0.001      0.000      0.000      0.000
     15 C        0.000      0.004      0.000      0.000      0.000      0.000
     18 C        0.297     -0.069     -0.009      0.004      0.000      0.000
     20 C        0.218      0.705     -0.030      0.224      0.065      0.000
     22 C       -0.004     -0.137      0.142     -0.008     -0.003      0.000
     23 C       -0.105      0.659      0.044      0.114      0.001      0.000
     26 C       -0.011     -0.609      0.412     -0.077     -0.017     -0.002
     29 C       -0.714     27.161      0.134      3.039      0.162      0.099
     32 C        2.840     -0.970     -0.001      0.024      0.149     -0.036
     34 C        1.527      0.763      0.055      0.088     -0.036      0.015
     36 C       -0.074      0.286      3.282      1.441      0.060      0.006
     39 C       27.897     -1.306     -1.066     -2.752      2.812     -0.826
     43 C        0.000      1.443     27.560     36.134     -1.330      3.449
     44 C        1.443      0.000      0.000     -0.111      0.083      0.007
     49 C       27.560      0.000      0.000     -2.027      3.141      0.004
     50 C       36.134     -0.111     -2.027      0.000     68.926     -1.525
     51 C       -1.330      0.083      3.141     68.926      0.000     36.698
     54 C        3.449      0.007      0.004     -1.525     36.698      0.000
     55 C       -0.072     -0.001      0.115      2.977     -1.951     28.175
     56 C       -0.870      0.004      0.043      2.804     -2.773     25.416
     59 C       -0.029      0.000      0.000      0.127      1.612     -0.901
     60 C        0.164      0.000     -0.007      0.049      2.944     -0.697
                 55 C       56 C       59 C       60 C  
      0 C        0.000      0.000      0.000      0.000
      1 C        0.000      0.000      0.000      0.000
      2 C        0.000      0.000      0.000      0.000
      5 C        0.000      0.000      0.000      0.000
      6 C        0.000      0.000      0.000      0.000
      7 C        0.000      0.000      0.000      0.000
     14 C        0.000      0.000      0.000      0.000
     15 C        0.000      0.000      0.000      0.000
     18 C        0.000      0.000      0.000      0.000
     20 C        0.000      0.000      0.000      0.000
     22 C        0.000      0.000      0.000      0.000
     23 C        0.000      0.000      0.000      0.000
     26 C        0.001      0.000     -0.001      0.000
     29 C       -0.005      0.053      0.005      0.000
     32 C        0.001      0.000      0.000      0.000
     34 C       -0.001     -0.007      0.000      0.000
     36 C       -0.011      0.026     -0.004      0.002
     39 C        0.079      1.162      0.067     -0.013
     43 C       -0.072     -0.870     -0.029      0.164
     44 C       -0.001      0.004      0.000      0.000
     49 C        0.115      0.043      0.000     -0.007
     50 C        2.977      2.804      0.127      0.049
     51 C       -1.951     -2.773      1.612      2.944
     54 C       28.175     25.416     -0.901     -0.697
     55 C        0.000     -0.828      2.686      1.135
     56 C       -0.828      0.000     27.304     26.605
     59 C        2.686     27.304      0.000     -1.002
     60 C        1.135     26.605     -1.002      0.000

NMR spin-spin coupling calculation done in   0.3 sec 

Maximum memory used throughout the entire PROP-calculation: 33.8 MB

--------------------------------
SUGGESTED CITATIONS FOR THIS RUN
--------------------------------

Below you find a list of papers that are relevant to this ORCA run
We neither can nor want to force you to cite these papers, but we appreciate if you do
You receive ORCA, which is the product of decades of hard work by many enthusiastic individuals, for free
The only thing we kindly ask in return is that you cite our papers,
We deeply appreciate it, if you show your appreciation for ORCA by not just citing the generic ORCA reference.

Please note that relegating all ORCA citations to the supporting information does *not* help us.
SI sections are not indexed - citations you put there will not count into any citation statistics
But we need these citations in order to attract the funding resources that allow us to do what we are doing

Therefore, if you are a happy ORCA user, please consider citing a few of the papers listed below in the main body of your paper

In addition to the list printed below, the program has created the file inpJ.bibtex that contains the list in bibtex format
You can import this file easily into all common literature databanks and citation aid programs


List of essential papers. We consider these as the minimum necessary citations

  1. Neese,F.
     Software update: the ORCA program system, version 5.0
     WIRES Comput. Molec. Sci., 2022 12(1)e1606
     doi.org/10.1002/wcms.1606

List of papers to cite with high priority. The work reported in these papers was absolutely
necessary for this run to complete.
Our perspective: the developers of density functionals and basis sets usually get cited in chemistry papers
Good! But without the algorithms to do something with them, the functionals or basis sets would not do anything.
Hence, in our opinion, the algorithm design and method developments papers are equally worthy of getting cited

  1. Neese,F.
     An improvement of the resolution of the identity approximation for the formation of the Coulomb matrix
     J. Comp. Chem., 2003 24(14)1740-1747
     doi.org/10.1002/jcc.10318
  2. Neese,F.; Wennmohs,F.; Hansen,A.; Becker,U.
     Efficient, approximate and parallel Hartree-Fock and hybrid DFT calculations. A 'chain-of-spheres' algorithm for the Hartree-Fock exchange
     Chem. Phys., 2009 356(1-3)98-109
     doi.org/10.1016/j.chemphys.2008.10.036
  3. Stoychev,G.L.; Auer,A.A.; Izsak,R.; Neese,F.
     Self-Consistent Field Calculation of Nuclear Magnetic Resonance Chemical Shielding Constants Using Gauge-Including Atomic Orbitals and Approximate Two-Electron Integrals
     J. Chem. Theory Comput., 2018 14(2)619-637
     doi.org/10.1021/acs.jctc.7b01006
  4. Garcia-Rates,M.; Neese,F.
     Effect of the Solute Cavity on the Solvation Energy and its Derivatives within the Framework of the Gaussian Charge Scheme
     J. Comput. Chem., 2020 41 922-939
     doi.org/10.1002/jcc.26139
  5. Helmich-Paris,B.; de Souza,B.; Neese,F.; Izsák,R.
     An improved chain of spheres for exchange algorithm
     J. Chem. Phys., 2021 155 104109
     doi.org/doi: 10.1063/5.0058766.
  6. Neese,F.
     The SHARK Integral Generation and Digestion System
     J. Comp. Chem., 2022  1-16
     doi.org/10.1002/jcc.26942
  7. Grimme,S.; Bannwarth,C.; Dohm,S.; Hansen,A.; Pisarek,J.; Pracht,P.; Seibert,J.; Neese,F.
     Fully Automated Quantum-Chemistry-Based Computation of Spin-Spin-Coupled Nuclear Magnetic Resonance Spectra
     Angew. Chem., Int. Ed., 2017 56 14763-14769
     doi.org/10.1002/anie.201708266
  8. Caldeweyher,E.; Bannwarth,C.; Grimme,S.
     Extension of the D3 dispersion coefficient model
     J. Chem. Phys., 2017 147 034112-XXXX
     doi.org/10.1063/1.4993215
  9. Caldeweyher,E.; Ehlert,S.; Hansen,A.; Neugebauer,H.; Spicher,S.; Bannwarth,C.; Grimme,S.
     A generally applicable atomic-charge dependent London dispersion correction
     J. Chem. Phys., 2019 150 154122-XXXX
     doi.org/10.1063/1.5090222
 10. Caldeweyher,E.; Mewes,J.; Ehlert,S.; Grimme,S.
     Extension and evaluation of the D4 London-dispersion model for periodic systems
     Phys. Chem. Chem. Phys., 2020 22(16)8499-8512
     doi.org/10.1039/D0CP00502A

List of suggested additional citations. These are papers that are important in the 'surrounding' of 
of this run, or papers that preceded the highly important papers. If you like your results we are grateful for a citation.

  1. Izsak,R.; Neese,F.
     An overlap fitted chain of spheres exchange method
     J. Chem. Phys., 2011 135 144105
     doi.org/10.1063/1.3646921
  2. Izsak,R.; Hansen,A.; Neese,F.
     The resolution of identity and chain of spheres approximations for the LPNO-CCSD singles Fock term
     Molec. Phys., 2012 110 2413-2417
     doi.org/10.1080/00268976.2012.687466
  3. Neese,F.
     The ORCA program system
     WIRES Comput. Molec. Sci., 2012 2(1)73-78
     doi.org/10.1002/wcms.81
  4. Izsak,R.; Neese,F.; Klopper,W.
     Robust fitting techniques in the chain of spheres approximation to the Fock exchange: The role of the complementary space
     J. Chem. Phys., 2013 139 
     doi.org/10.1063/1.4819264
  5. Neese,F.
     Software update: the ORCA program system, version 4.0
     WIRES Comput. Molec. Sci., 2018 8(1)1-6
     doi.org/10.1002/wcms.1327
  6. Neese,F.; Wennmohs,F.; Becker,U.; Riplinger,C.
     The ORCA quantum chemistry program package
     J. Chem. Phys., 2020 152 Art. No. L224108
     doi.org/10.1063/5.0004608

Timings for individual modules:

Sum of individual times          ...      130.757 sec (=   2.179 min)
Startup calculation              ...        3.981 sec (=   0.066 min)   3.0 %
SCF iterations                   ...       18.968 sec (=   0.316 min)  14.5 %
Property integrals               ...        0.806 sec (=   0.013 min)   0.6 %
SCF Response                     ...      106.488 sec (=   1.775 min)  81.4 %
Property calculations            ...        0.513 sec (=   0.009 min)   0.4 %
                             ****ORCA TERMINATED NORMALLY****
TOTAL RUN TIME: 0 days 0 hours 2 minutes 11 seconds 74 msec
