
                                 *****************
                                 * O   R   C   A *
                                 *****************

                                            #,                                       
                                            ###                                      
                                            ####                                     
                                            #####                                    
                                            ######                                   
                                           ########,                                 
                                     ,,################,,,,,                         
                               ,,#################################,,                 
                          ,,##########################################,,             
                       ,#########################################, ''#####,          
                    ,#############################################,,   '####,        
                  ,##################################################,,,,####,       
                ,###########''''           ''''###############################       
              ,#####''   ,,,,##########,,,,          '''####'''          '####       
            ,##' ,,,,###########################,,,                        '##       
           ' ,,###''''                  '''############,,,                           
         ,,##''                                '''############,,,,        ,,,,,,###''
      ,#''                                            '''#######################'''  
     '                                                          ''''####''''         
             ,#######,   #######,   ,#######,      ##                                
            ,#'     '#,  ##    ##  ,#'     '#,    #''#        ,####,   ,####,        
            ##       ##  ##   ,#'  ##            #'  '#       #'       #'  '#        
            ##       ##  #######   ##           ,######,      #####,   #    #        
            '#,     ,#'  ##    ##  '#,     ,#' ,#      #,     #,   #   #,  ,#        
             '#######'   ##     ##  '#######'  #'      '#     '####' # '####'        



                #########################################################
                #                        -***-                          #
                #          Department of theory and spectroscopy        #
                #                                                       #
                #                      Frank Neese                      #
                #                                                       #
                #     Directorship, Architecture, Infrastructure        #
                #                    SHARK, DRIVERS                     #
                #        Core code/Algorithms in most modules           #
                #                                                       #
                #        Max Planck Institute fuer Kohlenforschung      #
                #                Kaiser Wilhelm Platz 1                 #
                #                 D-45470 Muelheim/Ruhr                 #
                #                      Germany                          #
                #                                                       #
                #                  All rights reserved                  #
                #                        -***-                          #
                #########################################################


                         Program Version 6.0.0  -   RELEASE  -


 With contributions from (in alphabetic order):
   Daniel Aravena         : Magnetic Suceptibility
   Michael Atanasov       : Ab Initio Ligand Field Theory (pilot matlab implementation)
   Alexander A. Auer      : GIAO ZORA, VPT2 properties, NMR spectrum
   Ute Becker             : All parallelization in ORCA, NUMFREQ, NUMCALC
   Giovanni Bistoni       : ED, misc. LED, open-shell LED, HFLD
   Martin Brehm           : Molecular dynamics
   Dmytro Bykov           : pre 5.0 version of the SCF Hessian
   Marcos Casanova-Páez   : Triplet and SCS-CIS(D). UHF-(DLPNO)-IP/EA/STEOM-CCSD. UHF-CVS-IP/STEOM-CCSD
   Vijay G. Chilkuri      : MRCI spin determinant printing, contributions to CSF-ICE
   Pauline Colinet        : FMM embedding
   Dipayan Datta          : RHF DLPNO-CCSD density
   Achintya Kumar Dutta   : EOM-CC, STEOM-CC
   Nicolas Foglia         : Exact transition moments, OPA infrastructure, MCD improvements
   Dmitry Ganyushin       : Spin-Orbit,Spin-Spin,Magnetic field MRCI
   Miquel Garcia          : C-PCM and meta-GGA Hessian, CCSD/C-PCM, Gaussian charge scheme
   Tiago L. C. Gouveia    : GS-ROHF, GS-ROCIS
   Yang Guo               : DLPNO-NEVPT2, F12-NEVPT2, CIM, IAO-localization
   Andreas Hansen         : Spin unrestricted coupled pair/coupled cluster methods
   Ingolf Harden          : AUTO-CI MPn and infrastructure 
   Benjamin Helmich-Paris : MC-RPA, TRAH-(SCF,CASSCF), AVAS, COSX integrals, SCF dyn. polar.
   Lee Huntington         : MR-EOM, pCC
   Robert Izsak           : Overlap fitted RIJCOSX, COSX-SCS-MP3, EOM
   Riya Kayal             : Wick's Theorem for AUTO-CI, AUTO-CI UHF-CCSDT
   Emily Kempfer          : AUTO-CI, RHF CISDT and CCSDT
   Christian Kollmar      : KDIIS, OOCD, Brueckner-CCSD(T), CCSD density, CASPT2, CASPT2-K, improved NEVPT2
   Axel Koslowski         : Symmetry handling
   Simone Kossmann        : Meta GGA functionals, TD-DFT gradient, OOMP2, (MP2 Hessian; deprecated post 5.0)
   Lucas Lang             : DCDCAS
   Marvin Lechner         : AUTO-CI (C++ implementation), FIC-MRCC
   Spencer Leger          : CASSCF response
   Dagmar Lenk            : GEPOL surface, SMD, ORCA-2-JSON
   Dimitrios Liakos       : Extrapolation schemes; Compound Job, initial MDCI parallelization
   Dimitrios Manganas     : Further ROCIS development; embedding schemes. LFT, Crystal Embedding
   Dimitrios Pantazis     : SARC Basis sets
   Anastasios Papadopoulos: AUTO-CI, single reference methods and gradients
   Taras Petrenko         : pre 6.0 DFT Hessian and TD-DFT gradient, (ASA, deprecated), ECA, 1-Electron XAS/XES, NRVS
   Peter Pinski           : DLPNO-MP2, DLPNO-MP2 Gradient
   Christoph Reimann      : Effective Core Potentials
   Marius Retegan         : Local ZFS, SOC
   Christoph Riplinger    : Optimizer, TS searches, QM/MM, DLPNO-CCSD(T), (RO)-DLPNO pert. Triples
   Michael Roemelt        : Original ROCIS implementation
   Masaaki Saitow         : Open-shell DLPNO-CCSD energy and density
   Barbara Sandhoefer     : DKH picture change effects
   Kantharuban Sivalingam : CASSCF convergence/infrastructure, NEVPT2 and variants, FIC-MRCI
   Bernardo de Souza      : ESD, SOC TD-DFT
   Georgi Stoychev        : AutoAux, RI-MP2 NMR, DLPNO-MP2 response, X2C
   Van Anh Tran           : RI-MP2 g-tensors
   Willem Van den Heuvel  : Paramagnetic NMR
   Zikuan Wang            : NOTCH, Electric field optimization 
   Frank Wennmohs         : Technical directorship and infrastructure
   Hang Xu                : AUTO-CI-Response properties 


 We gratefully acknowledge several colleagues who have allowed us to
 interface, adapt or use parts of their codes:
   Stefan Grimme, W. Hujo, H. Kruse, P. Pracht,  : VdW corrections, initial TS optimization,
                  C. Bannwarth, S. Ehlert,         DFT functionals, gCP, sTDA/sTD-DF
                  L. Wittmann, M. Mueller
   Ed Valeev, F. Pavosevic, A. Kumar             : LibInt (2-el integral package), F12 methods
   Garnet Chan, S. Sharma, J. Yang, R. Olivares  : DMRG
   Ulf Ekstrom                                   : XCFun DFT Library
   Mihaly Kallay                                 : mrcc  (arbitrary order and MRCC methods)
   Frank Weinhold                                : gennbo (NPA and NBO analysis)
   Simon Mueller                                 : openCOSMO-RS
   Christopher J. Cramer and Donald G. Truhlar   : smd solvation model
   Lars Goerigk                                  : TD-DFT with DH, B97 family of functionals
   V. Asgeirsson, H. Jonsson                     : NEB implementation
   FAccTs GmbH                                   : IRC, NEB, NEB-TS, DLPNO-Multilevel, CI-OPT
                                                   MM, QMMM, 2- and 3-layer-ONIOM, Crystal-QMMM,
                                                   LR-CPCM, SF, NACMEs, symmetry and pop. for TD-DFT,
                                                   nearIR, NL-DFT gradient (VV10), updates on ESD,
                                                   ML-optimized integration grids, MBIS, APM,
                                                   GOAT, DOCKER, SOLVATOR, interface openCOSMO-RS
   S Lehtola, MJT Oliveira, MAL Marques          : LibXC Library
   Liviu Ungur et al                             : ANISO software


 Your calculation uses the libint2 library for the computation of 2-el integrals
 For citations please refer to: http://libint.valeyev.net

 Your ORCA version has been built with support for libXC version: 6.2.2
 For citations please refer to: https://libxc.gitlab.io

 This ORCA versions uses:
   CBLAS   interface :  Fast vector & matrix operations
   LAPACKE interface :  Fast linear algebra routines
   SCALAPACK package :  Parallel linear algebra routines
   Shared memory     :  Shared parallel matrices
   BLAS/LAPACK       :  OpenBLAS 0.3.27  USE64BITINT DYNAMIC_ARCH NO_AFFINITY Zen SINGLE_THREADED
        Core in use  :  Zen
   Copyright (c) 2011-2014, The OpenBLAS Project


NOTE: MaxCore=8000 MB was set to SCF,MP2,MDCI,CIPSI,MRCI and CIS
      => If you want to overwrite this, your respective input block should be placed after the MaxCore statement
Your calculation utilizes the atom-pairwise dispersion correction
based on EEQ partial charges (D4)


================================================================================

----- Orbital basis set information -----
Your calculation utilizes the basis: def2-SVP
   F. Weigend and R. Ahlrichs, Phys. Chem. Chem. Phys. 7, 3297 (2005).

----- AuxJ basis set information -----
Your calculation utilizes the auxiliary basis: def2/J
   F. Weigend, Phys. Chem. Chem. Phys. 8, 1057 (2006).

================================================================================
                                        WARNINGS
                       Please study these warnings very carefully!
================================================================================

WARNING: Old DensityContainer found on disk!
         Will remove this file - 
         If you want to keep old densities, please start your calculation with a different basename. 


================================================================================
                                       INPUT FILE
================================================================================
NAME = inpS
|  1> ! wb97x-d4
|  2> ! def2-svp
|  3> ! def2/J RIJCOSX
|  4> ! DEFGRID2
|  5> ! scfconv7
|  6> ! smallprint printgap noloewdin
|  7> ! NOSOSCF
|  8> %MaxCore 8000
|  9> %output
| 10>        print[P_BondOrder_M] 1
| 11>        print[P_Mayer] 1
| 12>        print[P_basis] 2
| 13> end
| 14> %pal
| 15>     nprocs 4
| 16> end
| 17> ! CPCM(chloroform)
| 18> *xyz 0 1
| 19> C   -5.2123473700  -0.0201258400   0.3276534500
| 20> C   -6.5661991200  -0.4161844900  -0.2133023600
| 21> C   -7.1255627800   0.6401706200  -1.1736403000
| 22> H   -7.2804766000  -0.5087938600   0.6224618400
| 23> H   -6.5124796000  -1.3878945500  -0.7163228500
| 24> C   -5.1570455800   1.3490720800   0.8826709800
| 25> C   -5.7651191700   2.4093742300  -0.0071349100
| 26> C   -7.1626906800   2.0057282300  -0.4966614500
| 27> H   -5.1147431200   2.5385283000  -0.8855645700
| 28> H   -5.8011409000   3.3696390200   0.5178799200
| 29> H   -7.5511264400   2.7543472600  -1.1971307200
| 30> H   -7.8544381300   1.9578191100   0.3579206000
| 31> O   -8.4133094200   0.2570185700  -1.6743245000
| 32> H   -6.4812629900   0.6927910800  -2.0624119100
| 33> C   -4.1572436600  -0.8649908300   0.2461603000
| 34> C   -4.6537753600   1.6337296100   2.0891728200
| 35> H   -4.2443131100   0.8572014300   2.7292070800
| 36> H   -4.6508256500   2.6531121000   2.4678085800
| 37> C   -2.7954851300  -0.5776644100   0.6338103100
| 38> H   -4.3569198200  -1.8405096600  -0.1951144500
| 39> C   -1.7618780400  -1.4468177900   0.6340651000
| 40> H   -2.5955634600   0.4454743400   0.9438885600
| 41> C   -1.8470768900  -2.9118461700   0.2890886500
| 42> C   -0.8080447400  -3.3128595600  -0.7744059800
| 43> H   -2.8484769200  -3.2012929600  -0.0405441100
| 44> H   -1.6381031200  -3.4855478800   1.2064330100
| 45> C    0.6108364600  -2.8469889500  -0.4215928900
| 46> H   -1.1052628300  -2.8915717100  -1.7430561200
| 47> H   -0.8170978700  -4.4032811800  -0.8932709300
| 48> C    0.6610558200  -1.3387297600  -0.1371834100
| 49> H    1.2878441800  -3.1232361500  -1.2362929700
| 50> H    0.9560635000  -3.3807487500   0.4766774700
| 51> C   -0.3661479600  -1.0477773300   1.0031020300
| 52> H   -0.0592083300  -1.7171188500   1.8282728400
| 53> C   -0.0469440000   0.3785606200   1.4380555300
| 54> H   -9.0126094400   0.1926245600  -0.9187510800
| 55> C    1.4929015500   0.4642639500   1.3019690600
| 56> H   -0.3963934000   0.5884133200   2.4544321900
| 57> H   -0.5306630300   1.1036231300   0.7740231800
| 58> C    1.9590127800  -0.8135348700   0.5379856300
| 59> H    1.9820394100   0.5301629000   2.2789076600
| 60> H    1.7800686800   1.3647145700   0.7455259400
| 61> H    2.2568124300  -1.5738864700   1.2778428200
| 62> C    3.2019834500  -0.5418747000  -0.3448129400
| 63> C    0.3273674600  -0.5274067600  -1.3964669600
| 64> H   -0.7149693300  -0.6701714100  -1.6977297400
| 65> H    0.9648494200  -0.8321992200  -2.2336709200
| 66> H    0.4772662800   0.5454813400  -1.2386935600
| 67> H    2.9206531800   0.2565985600  -1.0515381200
| 68> C    3.6510968300  -1.7568236000  -1.1543899700
| 69> C    4.2988175900   0.0210922100   0.5292480100
| 70> C    5.4735552100  -0.5526197700   0.7950121600
| 71> H    4.0677025500   0.9786302400   0.9939485000
| 72> H    5.7063646800  -1.5126526300   0.3369488500
| 73> C    6.5576116600   0.0138789200   1.6808834500
| 74> C    6.0542096000   1.1176892800   2.6139874700
| 75> C    7.7746888100   0.4847791500   0.8357957600
| 76> H    6.9237449500  -0.8189992700   2.3060582200
| 77> H    7.4244412100   1.3289106500   0.2204412400
| 78> C    8.2825565800  -0.6143589800  -0.1030388500
| 79> C    8.9253415200   0.9730452500   1.7217881200
| 80> H    5.1383342200   0.8048781200   3.1260237200
| 81> H    5.8342639500   2.0384478700   2.0601268000
| 82> H    6.7979454500   1.3580273100   3.3778360300
| 83> H    9.1783693500  -0.2774231600  -0.6358135000
| 84> H    7.5355861200  -0.8956144500  -0.8509389200
| 85> H    8.5508716600  -1.5144553700   0.4656302800
| 86> H    9.2314978100   0.1842227100   2.4213312700
| 87> H    8.6577239500   1.8585198000   2.3048778100
| 88> H    9.7955485900   1.2313510000   1.1084140800
| 89> H    4.5962010300  -1.5510741000  -1.6687211900
| 90> H    2.9113723800  -2.0158747100  -1.9141430300
| 91> H    3.7969356900  -2.6339188200  -0.5128998100
| 92> *
| 93> %eprnmr
| 94>  Nuclei = all C { shift }
| 95>  origin giao
| 96>  giao_2el giao_2el_same_as_scf
| 97>  giao_1el giao_1el_analytic
| 98> end
| 99> 
|100>                          ****END OF INPUT****
================================================================================

                       ****************************
                       * Single Point Calculation *
                       ****************************

---------------------------------
CARTESIAN COORDINATES (ANGSTROEM)
---------------------------------
  C     -5.212347   -0.020126    0.327653
  C     -6.566199   -0.416184   -0.213302
  C     -7.125563    0.640171   -1.173640
  H     -7.280477   -0.508794    0.622462
  H     -6.512480   -1.387895   -0.716323
  C     -5.157046    1.349072    0.882671
  C     -5.765119    2.409374   -0.007135
  C     -7.162691    2.005728   -0.496661
  H     -5.114743    2.538528   -0.885565
  H     -5.801141    3.369639    0.517880
  H     -7.551126    2.754347   -1.197131
  H     -7.854438    1.957819    0.357921
  O     -8.413309    0.257019   -1.674324
  H     -6.481263    0.692791   -2.062412
  C     -4.157244   -0.864991    0.246160
  C     -4.653775    1.633730    2.089173
  H     -4.244313    0.857201    2.729207
  H     -4.650826    2.653112    2.467809
  C     -2.795485   -0.577664    0.633810
  H     -4.356920   -1.840510   -0.195114
  C     -1.761878   -1.446818    0.634065
  H     -2.595563    0.445474    0.943889
  C     -1.847077   -2.911846    0.289089
  C     -0.808045   -3.312860   -0.774406
  H     -2.848477   -3.201293   -0.040544
  H     -1.638103   -3.485548    1.206433
  C      0.610836   -2.846989   -0.421593
  H     -1.105263   -2.891572   -1.743056
  H     -0.817098   -4.403281   -0.893271
  C      0.661056   -1.338730   -0.137183
  H      1.287844   -3.123236   -1.236293
  H      0.956063   -3.380749    0.476677
  C     -0.366148   -1.047777    1.003102
  H     -0.059208   -1.717119    1.828273
  C     -0.046944    0.378561    1.438056
  H     -9.012609    0.192625   -0.918751
  C      1.492902    0.464264    1.301969
  H     -0.396393    0.588413    2.454432
  H     -0.530663    1.103623    0.774023
  C      1.959013   -0.813535    0.537986
  H      1.982039    0.530163    2.278908
  H      1.780069    1.364715    0.745526
  H      2.256812   -1.573886    1.277843
  C      3.201983   -0.541875   -0.344813
  C      0.327367   -0.527407   -1.396467
  H     -0.714969   -0.670171   -1.697730
  H      0.964849   -0.832199   -2.233671
  H      0.477266    0.545481   -1.238694
  H      2.920653    0.256599   -1.051538
  C      3.651097   -1.756824   -1.154390
  C      4.298818    0.021092    0.529248
  C      5.473555   -0.552620    0.795012
  H      4.067703    0.978630    0.993949
  H      5.706365   -1.512653    0.336949
  C      6.557612    0.013879    1.680883
  C      6.054210    1.117689    2.613987
  C      7.774689    0.484779    0.835796
  H      6.923745   -0.818999    2.306058
  H      7.424441    1.328911    0.220441
  C      8.282557   -0.614359   -0.103039
  C      8.925342    0.973045    1.721788
  H      5.138334    0.804878    3.126024
  H      5.834264    2.038448    2.060127
  H      6.797945    1.358027    3.377836
  H      9.178369   -0.277423   -0.635813
  H      7.535586   -0.895614   -0.850939
  H      8.550872   -1.514455    0.465630
  H      9.231498    0.184223    2.421331
  H      8.657724    1.858520    2.304878
  H      9.795549    1.231351    1.108414
  H      4.596201   -1.551074   -1.668721
  H      2.911372   -2.015875   -1.914143
  H      3.796936   -2.633919   -0.512900

----------------------------
CARTESIAN COORDINATES (A.U.)
----------------------------
  NO LB      ZA    FRAG     MASS         X           Y           Z
   0 C     6.0000    0    12.011   -9.849909   -0.038032    0.619175
   1 C     6.0000    0    12.011  -12.408318   -0.786475   -0.403083
   2 C     6.0000    0    12.011  -13.465362    1.209747   -2.217859
   3 H     1.0000    0     1.008  -13.758107   -0.961481    1.176282
   4 H     1.0000    0     1.008  -12.306803   -2.622741   -1.353654
   5 C     6.0000    0    12.011   -9.745404    2.549377    1.668006
   6 C     6.0000    0    12.011  -10.894496    4.553057   -0.013483
   7 C     6.0000    0    12.011  -13.535524    3.790277   -0.938554
   8 H     1.0000    0     1.008   -9.665464    4.797123   -1.673475
   9 H     1.0000    0     1.008  -10.962568    6.367695    0.978651
  10 H     1.0000    0     1.008  -14.269561    5.204962   -2.262249
  11 H     1.0000    0     1.008  -14.842737    3.699742    0.676372
  12 O     8.0000    0    15.999  -15.898851    0.485695   -3.164015
  13 H     1.0000    0     1.008  -12.247812    1.309185   -3.897394
  14 C     6.0000    0    12.011   -7.856052   -1.634596    0.465176
  15 C     6.0000    0    12.011   -8.794361    3.087302    3.947964
  16 H     1.0000    0     1.008   -8.020589    1.619876    5.157454
  17 H     1.0000    0     1.008   -8.788787    5.013655    4.663482
  18 C     6.0000    0    12.011   -5.282701   -1.091628    1.197728
  19 H     1.0000    0     1.008   -8.233385   -3.478059   -0.368713
  20 C     6.0000    0    12.011   -3.329467   -2.734089    1.198209
  21 H     1.0000    0     1.008   -4.904904    0.841825    1.783691
  22 C     6.0000    0    12.011   -3.490469   -5.502592    0.546298
  23 C     6.0000    0    12.011   -1.526983   -6.260397   -1.463415
  24 H     1.0000    0     1.008   -5.382841   -6.049567   -0.076617
  25 H     1.0000    0     1.008   -3.095566   -6.586731    2.279828
  26 C     6.0000    0    12.011    1.154314   -5.380029   -0.796695
  27 H     1.0000    0     1.008   -2.088644   -5.464279   -3.293899
  28 H     1.0000    0     1.008   -1.544091   -8.320996   -1.688037
  29 C     6.0000    0    12.011    1.249214   -2.529833   -0.259239
  30 H     1.0000    0     1.008    2.433673   -5.902061   -2.336255
  31 H     1.0000    0     1.008    1.806698   -6.388689    0.900790
  32 C     6.0000    0    12.011   -0.691919   -1.980012    1.895588
  33 H     1.0000    0     1.008   -0.111888   -3.244884    3.454935
  34 C     6.0000    0    12.011   -0.088711    0.715376    2.717531
  35 H     1.0000    0     1.008  -17.031364    0.364008   -1.736188
  36 C     6.0000    0    12.011    2.821175    0.877332    2.460365
  37 H     1.0000    0     1.008   -0.749075    1.111940    4.638205
  38 H     1.0000    0     1.008   -1.002808    2.085545    1.462692
  39 C     6.0000    0    12.011    3.701998   -1.537358    1.016646
  40 H     1.0000    0     1.008    3.745512    1.001863    4.306511
  41 H     1.0000    0     1.008    3.363842    2.578937    1.408840
  42 H     1.0000    0     1.008    4.264757   -2.974214    2.414773
  43 C     6.0000    0    12.011    6.050872   -1.023995   -0.651602
  44 C     6.0000    0    12.011    0.618635   -0.996654   -2.638940
  45 H     1.0000    0     1.008   -1.351096   -1.266440   -3.208244
  46 H     1.0000    0     1.008    1.823301   -1.572629   -4.221026
  47 H     1.0000    0     1.008    0.901903    1.030810   -2.340792
  48 H     1.0000    0     1.008    5.519235    0.484901   -1.987119
  49 C     6.0000    0    12.011    6.899573   -3.319915   -2.181481
  50 C     6.0000    0    12.011    8.123588    0.039859    1.000134
  51 C     6.0000    0    12.011   10.343520   -1.044300    1.502355
  52 H     1.0000    0     1.008    7.686844    1.849343    1.878290
  53 H     1.0000    0     1.008   10.783466   -2.858499    0.636741
  54 C     6.0000    0    12.011   12.392090    0.026227    3.176409
  55 C     6.0000    0    12.011   11.440798    2.112127    4.939720
  56 C     6.0000    0    12.011   14.692033    0.916100    1.579425
  57 H     1.0000    0     1.008   13.083982   -1.547684    4.357818
  58 H     1.0000    0     1.008   14.030161    2.511277    0.416574
  59 C     6.0000    0    12.011   15.651764   -1.160970   -0.194715
  60 C     6.0000    0    12.011   16.866451    1.838789    3.253708
  61 H     1.0000    0     1.008    9.710044    1.520999    5.907329
  62 H     1.0000    0     1.008   11.025161    3.852108    3.893075
  63 H     1.0000    0     1.008   12.846255    2.566300    6.383185
  64 H     1.0000    0     1.008   17.344604   -0.524254   -1.201513
  65 H     1.0000    0     1.008   14.240194   -1.692466   -1.608042
  66 H     1.0000    0     1.008   16.158806   -2.861906    0.879914
  67 H     1.0000    0     1.008   17.445003    0.348130    4.575653
  68 H     1.0000    0     1.008   16.360727    3.512093    4.355588
  69 H     1.0000    0     1.008   18.510904    2.326916    2.094599
  70 H     1.0000    0     1.008    8.685561   -2.931105   -3.153426
  71 H     1.0000    0     1.008    5.501696   -3.809451   -3.617206
  72 H     1.0000    0     1.008    7.175169   -4.977385   -0.969240

--------------------------------
INTERNAL COORDINATES (ANGSTROEM)
--------------------------------
 C      0   0   0     0.000000000000     0.00000000     0.00000000
 C      1   0   0     1.510764774408     0.00000000     0.00000000
 C      2   1   0     1.533304529947   111.75092890     0.00000000
 H      2   1   3     1.103299873946   109.32487313   241.46200815
 H      2   1   3     1.095507115857   110.67106144   122.91414450
 C      1   2   3     1.478447053741   114.25048657    50.25350203
 C      6   1   2     1.511869260892   114.42531658   312.15474322
 C      3   2   1     1.524606975760   110.35557853   305.11341739
 H      7   6   1     1.100594588293   108.32279094   290.22714544
 H      7   6   1     1.095009864643   110.24677369   172.96284272
 H      8   3   2     1.096343919552   109.66537035   179.22568758
 H      8   3   2     1.100509108796   108.73085943   296.68509919
 O      3   2   1     1.433799696743   111.23874824   180.32825300
 H      3   2   1     1.099002323449   109.00332626    65.15260557
 C      1   2   3     1.354135083247   120.87263617   232.41491384
 C      6   1   2     1.337892938036   123.34314645   130.04161741
 H     16   6   1     1.086415759497   121.39706385     0.58582932
 H     16   6   1     1.087434779864   120.96187488   181.25764178
 C     15   1   2     1.444719798408   126.45536694   175.25681727
 H     15   1   2     1.089142305461   116.12687095   357.99432599
 C     19  15   1     1.350470762135   126.40365942   175.37195299
 H     19  15   1     1.087625899384   115.90278124   354.70518518
 C     21  19  15     1.507506467416   125.60253108   356.88923496
 C     23  21  19     1.539941679328   111.89924311   128.22086654
 H     23  21  19     1.093269967021   112.21343036     4.09804290
 H     23  21  19     1.101963866662   107.74191736   246.96943242
 C     24  23  21     1.534515024837   112.70808114    50.54656915
 H     24  23  21     1.097317246426   109.08057828   288.46446204
 H     24  23  21     1.096918476854   109.15550511   172.48752957
 C     27  24  23     1.535661590537   111.77710375   306.10682808
 H     27  24  23     1.094709180011   108.91187205   182.54287077
 H     27  24  23     1.100441217375   109.29905402    66.05685574
 C     21  19  15     1.497826425404   122.80510950   177.57265380
 H     33  21  19     1.105955185591   106.33230972   123.88607442
 C     33  21  19     1.524964151333   120.96454665     1.57406392
 H     13   3   2     0.966539339865   107.56028266    61.89656510
 C     35  33  21     1.548221207045   103.58524856   196.53335169
 H     35  33  21     1.095068287300   112.15851789    74.54057177
 H     35  33  21     1.095736603951   110.71150893   314.91927345
 C     30  27  24     1.554469419149   116.07704673   166.60642157
 H     37  35  33     1.094535310470   111.67561724   249.40938797
 H     37  35  33     1.096770361291   110.51519494   130.86873929
 H     40  30  27     1.101910998564   106.50840240   321.01860129
 C     40  30  27     1.548582787467   118.80731787    81.31441037
 C     30  27  24     1.534727334489   111.10852744   294.75848008
 H     45  30  27     1.094352316071   111.34652551    66.86767967
 H     45  30  27     1.095532821799   110.69850150   306.82327853
 H     45  30  27     1.094737857711   111.71972601   186.86892616
 H     44  40  30     1.102799504806   106.71319143    62.66986763
 C     44  40  30     1.527487684143   113.49095470   303.66733175
 C     44  40  30     1.511277412238   108.55288925   177.24210943
 C     51  44  40     1.334085640154   126.44838874   115.53681806
 H     51  44  40     1.089146356564   114.85081128   297.18666882
 H     52  51  44     1.088891793325   118.92178046     1.36607074
 C     52  51  44     1.510253983608   125.98710508   180.60610485
 C     55  52  51     1.530520845005   113.08176858    17.81434782
 C     55  52  51     1.554733745519   110.89659590   251.39318364
 H     55  52  51     1.103894541371   106.69400238   136.32274294
 H     57  55  52     1.101767922878   106.66564171    65.53138001
 C     57  55  52     1.532137306366   112.04125276   307.27411064
 C     57  55  52     1.532118763483   111.72242431   183.96156598
 H     56  55  52     1.094924497317   110.74377833    48.31525997
 H     56  55  52     1.096783530048   111.31768265   288.20745576
 H     56  55  52     1.092872364850   111.15456736   168.08542592
 H     60  57  55     1.095378972492   110.39287388   183.73351951
 H     60  57  55     1.093811694134   112.15270330    63.55495782
 H     60  57  55     1.097975898124   110.59370647   302.83817539
 H     61  57  55     1.097876719960   110.42140463    56.94978296
 H     61  57  55     1.093470589021   112.49650266   296.11392828
 H     61  57  55     1.095540924889   110.36014737   175.95640907
 H     50  44  40     1.095486836742   110.67767446   186.62702176
 H     50  44  40     1.091569719120   111.00236326    67.21021031
 H     50  44  40     1.096391637787   111.42646594   306.91048022

---------------------------
INTERNAL COORDINATES (A.U.)
---------------------------
 C      0   0   0     0.000000000000     0.00000000     0.00000000
 C      1   0   0     2.854931676406     0.00000000     0.00000000
 C      2   1   0     2.897525641500   111.75092890     0.00000000
 H      2   1   3     2.084934605347   109.32487313   241.46200815
 H      2   1   3     2.070208426732   110.67106144   122.91414450
 C      1   2   3     2.793860035074   114.25048657    50.25350203
 C      6   1   2     2.857018853379   114.42531658   312.15474322
 C      3   2   1     2.881089646051   110.35557853   305.11341739
 H      7   6   1     2.079822356349   108.32279094   290.22714544
 H      7   6   1     2.069268758118   110.24677369   172.96284272
 H      8   3   2     2.071789756544   109.66537035   179.22568758
 H      8   3   2     2.079660823510   108.73085943   296.68509919
 O      3   2   1     2.709488757743   111.23874824   180.32825300
 H      3   2   1     2.076813411862   109.00332626    65.15260557
 C      1   2   3     2.558944455672   120.87263617   232.41491384
 C      6   1   2     2.528251249396   123.34314645   130.04161741
 H     16   6   1     2.053028253025   121.39706385     0.58582932
 H     16   6   1     2.054953922444   120.96187488   181.25764178
 C     15   1   2     2.730124759244   126.45536694   175.25681727
 H     15   1   2     2.058180678189   116.12687095   357.99432599
 C     19  15   1     2.552019892303   126.40365942   175.37195299
 H     19  15   1     2.055315085995   115.90278124   354.70518518
 C     21  19  15     2.848774368531   125.60253108   356.88923496
 C     23  21  19     2.910068036141   111.89924311   128.22086654
 H     23  21  19     2.065980828111   112.21343036     4.09804290
 H     23  21  19     2.082409917468   107.74191736   246.96943242
 C     24  23  21     2.899813145329   112.70808114    50.54656915
 H     24  23  21     2.073629077773   109.08057828   288.46446204
 H     24  23  21     2.072875512493   109.15550511   172.48752957
 C     27  24  23     2.901979840498   111.77710375   306.10682808
 H     27  24  23     2.068700546510   108.91187205   182.54287077
 H     27  24  23     2.079532527318   109.29905402    66.05685574
 C     21  19  15     2.830481740163   122.80510950   177.57265380
 H     33  21  19     2.089952417158   106.33230972   123.88607442
 C     33  21  19     2.881764610068   120.96454665     1.57406392
 H     13   3   2     1.826494650006   107.56028266    61.89656510
 C     35  33  21     2.925714076045   103.58524856   196.53335169
 H     35  33  21     2.069379160939   112.15851789    74.54057177
 H     35  33  21     2.070642096380   110.71150893   314.91927345
 C     30  27  24     2.937521485747   116.07704673   166.60642157
 H     37  35  33     2.068371980695   111.67561724   249.40938797
 H     37  35  33     2.072595614642   110.51519494   130.86873929
 H     40  30  27     2.082310011243   106.50840240   321.01860129
 C     40  30  27     2.926397364017   118.80731787    81.31441037
 C     30  27  24     2.900214352428   111.10852744   294.75848008
 H     45  30  27     2.068026171397   111.34652551    66.86767967
 H     45  30  27     2.070257003921   110.69850150   306.82327853
 H     45  30  27     2.068754739510   111.71972601   186.86892616
 H     44  40  30     2.083989044706   106.71319143    62.66986763
 C     44  40  30     2.886533395969   113.49095470   303.66733175
 C     44  40  30     2.855900421510   108.55288925   177.24210943
 C     51  44  40     2.521056499087   126.44838874   115.53681806
 H     51  44  40     2.058188333664   114.85081128   297.18666882
 H     52  51  44     2.057707278858   118.92178046     1.36607074
 C     52  51  44     2.853966421683   125.98710508   180.60610485
 C     55  52  51     2.892265239318   113.08176858    17.81434782
 C     55  52  51     2.938020990197   110.89659590   251.39318364
 H     55  52  51     2.086058363922   106.69400238   136.32274294
 H     57  55  52     2.082039637378   106.66564171    65.53138001
 C     57  55  52     2.895319908596   112.04125276   307.27411064
 C     57  55  52     2.895284867626   111.72242431   183.96156598
 H     56  55  52     2.069107437250   110.74377833    48.31525997
 H     56  55  52     2.072620499987   111.31768265   288.20745576
 H     56  55  52     2.065229468898   111.15456736   168.08542592
 H     60  57  55     2.069966270865   110.39287388   183.73351951
 H     60  57  55     2.067004543993   112.15270330    63.55495782
 H     60  57  55     2.074873749101   110.59370647   302.83817539
 H     61  57  55     2.074686329533   110.42140463    56.94978296
 H     61  57  55     2.066359948748   112.49650266   296.11392828
 H     61  57  55     2.070272316543   110.36014737   175.95640907
 H     50  44  40     2.070170104758   110.67767446   186.62702176
 H     50  44  40     2.062767825218   111.00236326    67.21021031
 H     50  44  40     2.071879930939   111.42646594   306.91048022

---------------------
BASIS SET INFORMATION
---------------------
There are 3 groups of distinct atoms

 Group   1 Type C   : 7s4p1d contracted to 3s2p1d pattern {511/31/1}
 Group   2 Type H   : 4s1p contracted to 2s1p pattern {31/1}
 Group   3 Type O   : 7s4p1d contracted to 3s2p1d pattern {511/31/1}

Atom   0C    basis set group =>   1
Atom   1C    basis set group =>   1
Atom   2C    basis set group =>   1
Atom   3H    basis set group =>   2
Atom   4H    basis set group =>   2
Atom   5C    basis set group =>   1
Atom   6C    basis set group =>   1
Atom   7C    basis set group =>   1
Atom   8H    basis set group =>   2
Atom   9H    basis set group =>   2
Atom  10H    basis set group =>   2
Atom  11H    basis set group =>   2
Atom  12O    basis set group =>   3
Atom  13H    basis set group =>   2
Atom  14C    basis set group =>   1
Atom  15C    basis set group =>   1
Atom  16H    basis set group =>   2
Atom  17H    basis set group =>   2
Atom  18C    basis set group =>   1
Atom  19H    basis set group =>   2
Atom  20C    basis set group =>   1
Atom  21H    basis set group =>   2
Atom  22C    basis set group =>   1
Atom  23C    basis set group =>   1
Atom  24H    basis set group =>   2
Atom  25H    basis set group =>   2
Atom  26C    basis set group =>   1
Atom  27H    basis set group =>   2
Atom  28H    basis set group =>   2
Atom  29C    basis set group =>   1
Atom  30H    basis set group =>   2
Atom  31H    basis set group =>   2
Atom  32C    basis set group =>   1
Atom  33H    basis set group =>   2
Atom  34C    basis set group =>   1
Atom  35H    basis set group =>   2
Atom  36C    basis set group =>   1
Atom  37H    basis set group =>   2
Atom  38H    basis set group =>   2
Atom  39C    basis set group =>   1
Atom  40H    basis set group =>   2
Atom  41H    basis set group =>   2
Atom  42H    basis set group =>   2
Atom  43C    basis set group =>   1
Atom  44C    basis set group =>   1
Atom  45H    basis set group =>   2
Atom  46H    basis set group =>   2
Atom  47H    basis set group =>   2
Atom  48H    basis set group =>   2
Atom  49C    basis set group =>   1
Atom  50C    basis set group =>   1
Atom  51C    basis set group =>   1
Atom  52H    basis set group =>   2
Atom  53H    basis set group =>   2
Atom  54C    basis set group =>   1
Atom  55C    basis set group =>   1
Atom  56C    basis set group =>   1
Atom  57H    basis set group =>   2
Atom  58H    basis set group =>   2
Atom  59C    basis set group =>   1
Atom  60C    basis set group =>   1
Atom  61H    basis set group =>   2
Atom  62H    basis set group =>   2
Atom  63H    basis set group =>   2
Atom  64H    basis set group =>   2
Atom  65H    basis set group =>   2
Atom  66H    basis set group =>   2
Atom  67H    basis set group =>   2
Atom  68H    basis set group =>   2
Atom  69H    basis set group =>   2
Atom  70H    basis set group =>   2
Atom  71H    basis set group =>   2
Atom  72H    basis set group =>   2

-------------------------
BASIS SET IN INPUT FORMAT
-------------------------

 # Basis set for element : H 
 NewGTO H 
 S 3 
   1      13.0107010000      0.0334854848
   2       1.9622572000      0.2347218709
   3       0.4445379600      0.8137702853
 S 1 
   1       0.1219496200      1.0000000000
 P 1 
   1       0.8000000000      1.0000000000
  end;

 # Basis set for element : C 
 NewGTO C 
 S 5 
   1    1238.4016938000      0.0055173650
   2     186.2900499200      0.0410888285
   3      42.2511763460      0.1822538213
   4      11.6765579320      0.4682845944
   5       3.5930506482      0.4457581734
 S 1 
   1       0.4024514736      1.0000000000
 S 1 
   1       0.1309018267      1.0000000000
 P 3 
   1       9.4680970621      0.0568883320
   2       2.0103545142      0.3129405934
   3       0.5477100471      0.7606501651
 P 1 
   1       0.1526861379      1.0000000000
 D 1 
   1       0.8000000000      1.0000000000
  end;

 # Basis set for element : O 
 NewGTO O 
 S 5 
   1    2266.1767785000     -0.0053893504
   2     340.8701019100     -0.0402347214
   3      77.3631351670     -0.1800818421
   4      21.4796449400     -0.4682885766
   5       6.6589433124     -0.4469261716
 S 1 
   1       0.8097597567      1.0000000000
 S 1 
   1       0.2553077223      1.0000000000
 P 3 
   1      17.7215043170      0.0626302488
   2       3.8635505440      0.3333113849
   3       1.0480920883      0.7414863830
 P 1 
   1       0.2764154441      1.0000000000
 D 1 
   1       1.2000000000      1.0000000000
  end;

---------------------------------
AUXILIARY/J BASIS SET INFORMATION
---------------------------------
There are 3 groups of distinct atoms

 Group   1 Type C   : 12s5p4d2f1g contracted to 6s4p3d1f1g pattern {711111/2111/211/2/1}
 Group   2 Type H   : 5s2p1d contracted to 3s1p1d pattern {311/2/1}
 Group   3 Type O   : 12s5p4d2f1g contracted to 6s4p3d1f1g pattern {711111/2111/211/2/1}

Atom   0C    basis set group =>   1
Atom   1C    basis set group =>   1
Atom   2C    basis set group =>   1
Atom   3H    basis set group =>   2
Atom   4H    basis set group =>   2
Atom   5C    basis set group =>   1
Atom   6C    basis set group =>   1
Atom   7C    basis set group =>   1
Atom   8H    basis set group =>   2
Atom   9H    basis set group =>   2
Atom  10H    basis set group =>   2
Atom  11H    basis set group =>   2
Atom  12O    basis set group =>   3
Atom  13H    basis set group =>   2
Atom  14C    basis set group =>   1
Atom  15C    basis set group =>   1
Atom  16H    basis set group =>   2
Atom  17H    basis set group =>   2
Atom  18C    basis set group =>   1
Atom  19H    basis set group =>   2
Atom  20C    basis set group =>   1
Atom  21H    basis set group =>   2
Atom  22C    basis set group =>   1
Atom  23C    basis set group =>   1
Atom  24H    basis set group =>   2
Atom  25H    basis set group =>   2
Atom  26C    basis set group =>   1
Atom  27H    basis set group =>   2
Atom  28H    basis set group =>   2
Atom  29C    basis set group =>   1
Atom  30H    basis set group =>   2
Atom  31H    basis set group =>   2
Atom  32C    basis set group =>   1
Atom  33H    basis set group =>   2
Atom  34C    basis set group =>   1
Atom  35H    basis set group =>   2
Atom  36C    basis set group =>   1
Atom  37H    basis set group =>   2
Atom  38H    basis set group =>   2
Atom  39C    basis set group =>   1
Atom  40H    basis set group =>   2
Atom  41H    basis set group =>   2
Atom  42H    basis set group =>   2
Atom  43C    basis set group =>   1
Atom  44C    basis set group =>   1
Atom  45H    basis set group =>   2
Atom  46H    basis set group =>   2
Atom  47H    basis set group =>   2
Atom  48H    basis set group =>   2
Atom  49C    basis set group =>   1
Atom  50C    basis set group =>   1
Atom  51C    basis set group =>   1
Atom  52H    basis set group =>   2
Atom  53H    basis set group =>   2
Atom  54C    basis set group =>   1
Atom  55C    basis set group =>   1
Atom  56C    basis set group =>   1
Atom  57H    basis set group =>   2
Atom  58H    basis set group =>   2
Atom  59C    basis set group =>   1
Atom  60C    basis set group =>   1
Atom  61H    basis set group =>   2
Atom  62H    basis set group =>   2
Atom  63H    basis set group =>   2
Atom  64H    basis set group =>   2
Atom  65H    basis set group =>   2
Atom  66H    basis set group =>   2
Atom  67H    basis set group =>   2
Atom  68H    basis set group =>   2
Atom  69H    basis set group =>   2
Atom  70H    basis set group =>   2
Atom  71H    basis set group =>   2
Atom  72H    basis set group =>   2

-------------------------------------
AUXILIARY/J BASIS SET IN INPUT FORMAT
-------------------------------------

 # Auxiliary/J basis set for element : H 
 NewAuxJGTO H 
 S 3 
   1      15.6752927000      0.1007184237
   2       3.6063578000      0.3404257499
   3       1.2080016000      0.6491996172
 S 1 
   1       0.4726794000      1.0000000000
 S 1 
   1       0.2018100000      1.0000000000
 P 2 
   1       2.0281365000      0.5596620919
   2       0.5358730000      0.5596620919
 D 1 
   1       2.2165124000      1.0000000000
  end;

 # Auxiliary/J basis set for element : C 
 NewAuxJGTO C 
 S 7 
   1    1861.0916331000      0.0134602335
   2     642.9939764000      0.0299160374
   3     235.1105725000      0.1008649584
   4      90.7028894000      0.2370970548
   5      36.7794552000      0.3924037254
   6      15.6046273000      0.3195862154
   7       6.8907294000      0.0530104441
 S 1 
   1       3.1478850000     -1.0000000000
 S 1 
   1       1.4777287000      1.0000000000
 S 1 
   1       0.7076466000      1.0000000000
 S 1 
   1       0.3430122000      1.0000000000
 S 1 
   1       0.1669453000      1.0000000000
 P 2 
   1      13.5472892000     -0.6769313712
   2       5.4669419000     -0.3779500978
 P 1 
   1       2.1751721000      1.0000000000
 P 1 
   1       0.8582194000      1.0000000000
 P 1 
   1       0.3376720000      1.0000000000
 D 2 
   1       5.9287253000     -0.3533329857
   2       1.9809209000     -0.7456525731
 D 1 
   1       0.8055417000     -1.0000000000
 D 1 
   1       0.3531244000     -1.0000000000
 F 2 
   1       1.6755626000      0.6311076882
   2       0.5997536000      0.4968166032
 G 1 
   1       1.0024600000     -1.0000000000
  end;

 # Auxiliary/J basis set for element : O 
 NewAuxJGTO O 
 S 7 
   1    2876.8216605000      0.0168151159
   2    1004.7443032000      0.0340137548
   3     369.7579954000      0.1194951309
   4     142.9442404000      0.2664627624
   5      57.8366425000      0.4202764046
   6      24.3864983000      0.2765077335
   7      10.6622662000      0.0057008815
 S 1 
   1       4.8070437000     -1.0000000000
 S 1 
   1       2.2210770000      1.0000000000
 S 1 
   1       1.0447795000      1.0000000000
 S 1 
   1       0.4968425000      1.0000000000
 S 1 
   1       0.2371384000      1.0000000000
 P 2 
   1      64.2613382000     -0.2731534179
   2      16.3006076000     -0.8168011598
 P 1 
   1       4.3550542000      1.0000000000
 P 1 
   1       1.2019554000      1.0000000000
 P 1 
   1       0.3354196000      1.0000000000
 D 2 
   1       9.2146611000     -0.4661230638
   2       2.8435251000     -0.6600908911
 D 1 
   1       0.9955759000     -1.0000000000
 D 1 
   1       0.3649441000     -1.0000000000
 F 2 
   1       2.6420115000      0.5931563945
   2       0.7345613000      0.5931563945
 G 1 
   1       1.3931000000     -1.0000000000
  end;


Checking for AutoStart:
The File: inpS.gbw exists
Trying to determine its content:
     ... Fine, the file contains calculation information
     ... Fine, the calculation information was read
     ... Fine, the file contains a basis set
     ... Fine, the basis set was read
     ... Fine, the file contains a geometry
     ... Fine, the geometry was read
     ... Fine, the file contains a set of orbitals
     ... Fine, the orbitals can be read
     => possible old guess file was deleted
     => GBW file was renamed to GES file
     => GES file is set as startup file
     => Guess is set to MORead
     ... now leaving AutoStart



           ************************************************************
           *        Program running with 4 parallel MPI-processes     *
           *              working on a common directory               *
           ************************************************************
------------------------------------------------------------------------------
                             ORCA STARTUP CALCULATIONS
                           -- RI-GTO INTEGRALS CHOSEN --
------------------------------------------------------------------------------
------------------------------------------------------------------------------
                   ___                                                        
                  /   \      - P O W E R E D   B Y -                         
                 /     \                                                     
                 |  |  |   _    _      __       _____    __    __             
                 |  |  |  | |  | |    /  \     |  _  \  |  |  /  |          
                  \  \/   | |  | |   /    \    | | | |  |  | /  /          
                 / \  \   | |__| |  /  /\  \   | |_| |  |  |/  /          
                |  |  |   |  __  | /  /__\  \  |    /   |      \           
                |  |  |   | |  | | |   __   |  |    \   |  |\   \          
                \     /   | |  | | |  |  |  |  | |\  \  |  | \   \       
                 \___/    |_|  |_| |__|  |__|  |_| \__\ |__|  \__/        
                                                                              
                      - O R C A' S   B I G   F R I E N D -                    
                                      &                                       
                       - I N T E G R A L  F E E D E R -                       
                                                                              
 v1 FN, 2020, v2 2021, v3 2022-2024                                           
------------------------------------------------------------------------------


----------------------
SHARK INTEGRAL PACKAGE
----------------------

Number of atoms                             ...     73
Number of basis functions                   ...    626
Number of shells                            ...    306
Maximum angular momentum                    ...      2
Integral batch strategy                     ... SHARK/LIBINT Hybrid
RI-J (if used) integral strategy            ... SPLIT-RIJ (Revised 2003 algorithm where possible)
Printlevel                                  ...      1
Contraction scheme used                     ... SEGMENTED contraction
Prescreening option                         ... SCHWARTZ
   Thresh                                   ... 3.000e-11
   Tcut                                     ... 1.000e-12
   Tpresel                                  ... 1.000e-12 
Coulomb Range Separation                    ... NOT USED
Exchange Range Separation                   ... Long Range
   Mu parameter                             ... 3.000e-01
   Scaling (regular/separated)              ... 1.670e-01 8.330e-01
Multipole approximations                    ... NOT USED
Finite Nucleus Model                        ... NOT USED
CABS basis                                  ... NOT available
Auxiliary Coulomb fitting basis             ... AVAILABLE
   # of basis functions in Aux-J            ...   1905
   # of shells in Aux-J                     ...    655
   Maximum angular momentum in Aux-J        ...      4
Auxiliary J/K fitting basis                 ... NOT available
Auxiliary Correlation fitting basis         ... NOT available
Auxiliary 'external' fitting basis          ... NOT available

Checking pre-screening integrals            ... done (  0.0 sec) Dimension = 306
Check shell pair data                       ... done (  0.0 sec)
Shell pair information
Shell pair cut-off parameter TPreSel        ...   1.0e-12
Total number of shell pairs                 ...     46971
Shell pairs after pre-screening             ...     26910
Total number of primitive shell pairs       ...    162105
Primitive shell pairs kept                  ...     59595
          la=0 lb=0:   9410 shell pairs
          la=1 lb=0:  10328 shell pairs
          la=1 lb=1:   2853 shell pairs
          la=2 lb=0:   2678 shell pairs
          la=2 lb=1:   1448 shell pairs
          la=2 lb=2:    193 shell pairs

Calculating one electron integrals          ... done (  0.1 sec)
Calculating RI/J V-Matrix + Cholesky decomp.... done (  0.2 sec)
Calculating Nuclear repulsion               ... done (  0.0 sec) ENN=   2745.733515095807 Eh

Diagonalization of the overlap matrix:
Smallest eigenvalue                        ... 4.428e-04
Time for diagonalization                   ...    0.046 sec
Threshold for overlap eigenvalues          ... 1.000e-07
Number of eigenvalues below threshold      ... 0
Time for construction of square roots      ...    0.025 sec
Total time needed                          ...    0.074 sec

-------------------
DFT GRID GENERATION
-------------------

General Integration Accuracy     IntAcc      ... 4.388
Radial Grid Type                 RadialGrid  ... OptM3 with GC (2021)
Angular Grid (max. ang.)         AngularGrid ... 4 (Lebedev-302)
Angular grid pruning method      GridPruning ... 4 (adaptive)
Weight generation scheme         WeightScheme... mBecke (2022)
Basis function cutoff            BFCut       ... 1.0000e-11
Integration weight cutoff        WCut        ... 1.0000e-14
Partially contracted basis set               ... off
Rotationally invariant grid construction     ... off
Angular grids for H and He will be reduced by one unit

Total number of grid points                  ...   310094
Total number of batches                      ...     4880
Average number of points per batch           ...       63
Average number of grid points per atom       ...     4248

--------------------
COSX GRID GENERATION
--------------------

GRIDX 1
-------
General Integration Accuracy     IntAcc      ... 3.816
Radial Grid Type                 RadialGrid  ... OptM3 with GC (2021)
Angular Grid (max. ang.)         AngularGrid ... 1 (Lebedev-50)
Angular grid pruning method      GridPruning ... 4 (adaptive)
Weight generation scheme         WeightScheme... mBecke (2022)
Basis function cutoff            BFCut       ... 1.0000e-11
Integration weight cutoff        WCut        ... 1.0000e-14
Partially contracted basis set               ... on
Rotationally invariant grid construction     ... off
Angular grids for H and He will be reduced by one unit

Total number of grid points                  ...    39492
Total number of batches                      ...      353
Average number of points per batch           ...      111
Average number of grid points per atom       ...      541
UseSFitting                                  ... on

GRIDX 2
-------
General Integration Accuracy     IntAcc      ... 4.020
Radial Grid Type                 RadialGrid  ... OptM3 with GC (2021)
Angular Grid (max. ang.)         AngularGrid ... 2 (Lebedev-110)
Angular grid pruning method      GridPruning ... 4 (adaptive)
Weight generation scheme         WeightScheme... mBecke (2022)
Basis function cutoff            BFCut       ... 1.0000e-11
Integration weight cutoff        WCut        ... 1.0000e-14
Partially contracted basis set               ... on
Rotationally invariant grid construction     ... off
Angular grids for H and He will be reduced by one unit

Total number of grid points                  ...    81635
Total number of batches                      ...      681
Average number of points per batch           ...      119
Average number of grid points per atom       ...     1118
UseSFitting                                  ... on

GRIDX 3
-------
General Integration Accuracy     IntAcc      ... 4.338
Radial Grid Type                 RadialGrid  ... OptM3 with GC (2021)
Angular Grid (max. ang.)         AngularGrid ... 3 (Lebedev-194)
Angular grid pruning method      GridPruning ... 4 (adaptive)
Weight generation scheme         WeightScheme... mBecke (2022)
Basis function cutoff            BFCut       ... 1.0000e-11
Integration weight cutoff        WCut        ... 1.0000e-14
Partially contracted basis set               ... on
Rotationally invariant grid construction     ... off
Angular grids for H and He will be reduced by one unit

Total number of grid points                  ...   176648
Total number of batches                      ...     1420
Average number of points per batch           ...      124
Average number of grid points per atom       ...     2420
UseSFitting                                  ... on
Initializing property integral containers    ... done (  0.0 sec)

SHARK setup successfully completed in   4.5 seconds

Maximum memory used throughout the entire STARTUP-calculation: 94.8 MB


           ************************************************************
           *        Program running with 4 parallel MPI-processes     *
           *              working on a common directory               *
           ************************************************************
-------------------------------------------------------------------------------
                                 ORCA GUESS
                   Start orbitals & Density for SCF / CASSCF
-------------------------------------------------------------------------------

------------
SCF SETTINGS
------------
Hamiltonian:
 Density Functional     Method          .... DFT(GTOs)
 Exchange Functional    Exchange        .... WB97X-V
 Correlation Functional Correlation     .... WB97X-V
 Gradients option       PostSCFGGA      .... off
 Hybrid DFT is turned on
   Fraction HF Exchange ScalHFX         ....  0.167000
   Scaling of DF-GGA-X  ScalDFX         ....  0.000000
   Scaling of DF-GGA-C  ScalDFC         ....  1.000000
   Scaling of DF-LDA-C  ScalLDAC        ....  1.000000
   Perturbative correction              ....  0.000000
 Long-range corrected/Screened/Range-Separated Hybrid DFT is turned on
   Amount of maximum screened exact exchange              ....  0.833000
   Range separation parameter mu (erf(mu*r12)/r12)        ....  0.300000
 RI-approximation to the Coulomb term is turned on
   Number of AuxJ basis functions       .... 1905
   RIJ-COSX (HFX calculated with COS-X)).... on


General Settings:
 Integral files         IntName         .... inpS
 Hartree-Fock type      HFTyp           .... RHF
 Total Charge           Charge          ....    0
 Multiplicity           Mult            ....    1
 Number of Electrons    NEL             ....  220
 Basis Dimension        Dim             ....  626
 Nuclear Repulsion      ENuc            ....   2745.7335150958 Eh

Convergence Acceleration:
 AO-DIIS                CNVDIIS         .... on
   Start iteration      DIISMaxIt       ....    12
   Startup error        DIISStart       ....  0.200000
   # of expansion vecs  DIISMaxEq       ....     5
   Bias factor          DIISBfac        ....   1.050
   Max. coefficient     DIISMaxC        ....  10.000
 MO-DIIS                CNVKDIIS        .... off
 Trust-Rad. Augm. Hess. CNVTRAH         .... auto
   Auto Start mean grad. ratio tolernc. ....  1.125000
   Auto Start start iteration           ....     1
   Auto Start num. interpolation iter.  ....    10
   Max. Number of Micro iterations      ....    24
   Max. Number of Macro iterations      .... Maxiter - #DIIS iter
   Number of Davidson start vectors     ....     2
   Converg. threshold    (grad. norm)   ....   1.000e-04
   Grad. Scal. Fac. for Micro threshold ....   0.100
   Minimum threshold for Micro iter.    ....   1.000e-02
   NR start threshold (gradient norm)   ....   1.000e-04
   Initial trust radius                 ....   0.400
   Minimum AH scaling param. (alpha)    ....   1.000
   Maximum AH scaling param. (alpha)    .... 1000.000
   Quad. conv. algorithm                .... NR
   White noise on init. David. guess    .... on
   Maximum white noise                  ....   0.010
   Pseudo random numbers                .... off
   Inactive MOs                         .... canonical
   Orbital update algorithm             .... Taylor
   Preconditioner                       .... Diag
   Full preconditioner red. dimension   ....   250
 SOSCF                  CNVSOSCF        .... off
 Level Shifting         CNVShift        .... on
   Level shift para.    LevelShift      ....    0.2500
   Turn off err/grad.   ShiftErr        ....    0.0010
 Zerner damping         CNVZerner       .... off
 Static damping         CNVDamp         .... on
   Fraction old density DampFac         ....    0.7000
   Max. Damping (<1)    DampMax         ....    0.9800
   Min. Damping (>=0)   DampMin         ....    0.0000
   Turn off err/grad.   DampErr         ....    0.1000

SCF Procedure:
 Maximum # iterations   MaxIter         ....   125
 SCF integral mode      SCFMode         .... Direct
   Integral package                     .... SHARK and LIBINT hybrid scheme
 Reset frequency        DirectResetFreq ....    20
 Integral Threshold     Thresh          ....  3.000e-11 Eh
 Primitive CutOff       TCut            ....  1.000e-12 Eh

Convergence Tolerance:
 Convergence Check Mode ConvCheckMode   .... Total+1el-Energy
 Convergence forced     ConvForced      .... 0
 Energy Change          TolE            ....  1.000e-07 Eh
 1-El. energy change                    ....  1.000e-04 Eh
 DIIS Error             TolErr          ....  1.000e-07

---------------------
INITIAL GUESS: MOREAD
---------------------
Guess MOs are being read from file: inpS.ges
Input Geometry matches current geometry (good)
Input basis set matches current basis set (good)
Occupation numbers will be reassigned to an Aufbau configuration
MOs were renormalized
MOs were reorthogonalized (Cholesky)
                      ------------------
                      INITIAL GUESS DONE (   0.2 sec)
                      ------------------
             **** ENERGY FILE WAS UPDATED (inpS.en.tmp) ****
Finished Guess after   0.3 sec
Maximum memory used throughout the entire GUESS-calculation: 51.8 MB


           ************************************************************
           *        Program running with 4 parallel MPI-processes     *
           *              working on a common directory               *
           ************************************************************

-------------------------------------------------------------------------------------------
                                      ORCA LEAN-SCF
                              memory conserving SCF solver
-------------------------------------------------------------------------------------------

--------------------
CPCM SOLVATION MODEL
--------------------
CPCM parameters:
  Epsilon                                         ...       4.8030
  Refrac                                          ...       1.4459
  Rsolv                                           ...       1.3000
  Surface type                                    ... GAUSSIAN VDW
  Discretization scheme                           ... Constant charge density
    Threshold for H atoms                         ...       5.0000 (charges/Ang^2)
    Threshold for non-H atoms                     ...       5.0000 (charges/Ang^2)
  Epsilon function type                           ...         CPCM
Solvent:                                          ... CHLOROFORM
Radii:
  Scheme                                          ... Element-dependent radii
  Radius for C  used is    3.8550 Bohr (=   2.0400 Ang.)
  Radius for H  used is    2.4944 Bohr (=   1.3200 Ang.)
  Radius for O  used is    3.4469 Bohr (=   1.8240 Ang.)
Calculating surface                               ...        done! (  0.0s)
Cavity surface points                             ...         5438
Cavity Volume                                     ...    3605.7913
Cavity Surface-area                               ...    1797.3459
Calculating surface distance matrix               ...        done! (  0.2s)
Performing Cholesky decomposition & store         ...        done! (  0.9s)
Overall time for CPCM initialization              ...                 1.2s

----------------------------------------D-I-I-S--------------------------------------------
Iteration    Energy (Eh)           Delta-E    RMSDP     MaxDP     DIISErr   Damp  Time(sec)
-------------------------------------------------------------------------------------------
               ***  Starting incremental Fock matrix formation  ***
    1    -1168.3601998404469668     0.00e+00  3.21e-08  1.75e-06  6.02e-06  0.700  23.2

  HOMO= 109 E= -7.886 eV LUMO=  8.093 eV gap=  15.979 eV
    2    -1168.3601998297863247     1.07e-08  2.80e-08  1.41e-06  3.03e-06  0.700   4.7
                 **** Energy Check signals convergence ****

  HOMO= 109 E= -7.886 eV LUMO=  8.093 eV gap=  15.979 eV

               *****************************************************
               *                     SUCCESS                       *
               *           SCF CONVERGED AFTER   2 CYCLES          *
               *****************************************************

Recomputing exchange energy using gridx3       ... done (   40.290 sec)
Old exchange energy                            :    -56.782722809 Eh
New exchange energy                            :    -56.782905454 Eh
Exchange energy change after final integration :     -0.000182645 Eh
Total energy after final integration           :  -1168.360382475 Eh
             **** ENERGY FILE WAS UPDATED (inpS.en.tmp) ****

----------------
TOTAL SCF ENERGY
----------------

Total Energy       :      -1168.36038247473789 Eh          -31792.70232 eV

Components:
Nuclear Repulsion  :       2745.73351509580698 Eh           74715.20739 eV
Electronic Energy  :      -3914.08307080332497 Eh         -106507.61510 eV
One Electron Energy:      -7036.74819327674868 Eh         -191479.65298 eV
Two Electron Energy:       3122.66512247342371 Eh           84972.03788 eV
CPCM Dielectric    :         -0.01064412226816 Eh              -0.28964 eV

Virial components:
Potential Energy   :      -2321.69346336479430 Eh          -63176.49097 eV
Kinetic Energy     :       1153.33308089005664 Eh           31383.78865 eV
Virial Ratio       :          2.01302945509296

DFT components:
N(Alpha)           :      110.000211596027 electrons
N(Beta)            :      110.000211596027 electrons
N(Total)           :      220.000423192055 electrons
E(X)               :     -111.771308553281 Eh       
E(C)               :       -8.951577729833 Eh       
E(XC)              :     -120.722886283114 Eh       

CPCM Solvation Model Properties:
Surface-charge          :         -0.04196945521969
Corrected charge        :         -0.00000000000000
Outlying charge corr.   :          0.00006099721953 Eh               0.00166 eV
Free-energy (cav+disp)  :  This term is not implemented in the current solvation scheme

---------------
SCF CONVERGENCE
---------------

  Last Energy change         ...   -1.0661e-08  Tolerance :   1.0000e-07
  Last MAX-Density change    ...    1.4094e-06  Tolerance :   1.0000e-05
  Last RMS-Density change    ...    2.8001e-08  Tolerance :   1.0000e-06
  Last DIIS Error            ...    3.0251e-06  Tolerance :   1.0000e-07


----------------
ORBITAL ENERGIES
----------------

  NO   OCC          E(Eh)            E(eV) 
   0   2.0000     -19.213735      -522.8323 
   1   2.0000     -10.329868      -281.0900 
   2   2.0000     -10.293462      -280.0994 
   3   2.0000     -10.290336      -280.0143 
   4   2.0000     -10.286157      -279.9006 
   5   2.0000     -10.286094      -279.8989 
   6   2.0000     -10.285171      -279.8737 
   7   2.0000     -10.283063      -279.8164 
   8   2.0000     -10.282336      -279.7966 
   9   2.0000     -10.282085      -279.7898 
  10   2.0000     -10.282083      -279.7897 
  11   2.0000     -10.281008      -279.7604 
  12   2.0000     -10.279479      -279.7188 
  13   2.0000     -10.278574      -279.6942 
  14   2.0000     -10.278401      -279.6895 
  15   2.0000     -10.277104      -279.6542 
  16   2.0000     -10.276743      -279.6444 
  17   2.0000     -10.276470      -279.6370 
  18   2.0000     -10.272319      -279.5240 
  19   2.0000     -10.272040      -279.5164 
  20   2.0000     -10.271738      -279.5082 
  21   2.0000     -10.271583      -279.5040 
  22   2.0000     -10.271299      -279.4963 
  23   2.0000     -10.270982      -279.4876 
  24   2.0000     -10.268278      -279.4141 
  25   2.0000     -10.268073      -279.4085 
  26   2.0000     -10.268025      -279.4072 
  27   2.0000     -10.267983      -279.4060 
  28   2.0000     -10.267066      -279.3811 
  29   2.0000      -1.131675       -30.7944 
  30   2.0000      -0.998279       -27.1646 
  31   2.0000      -0.979272       -26.6474 
  32   2.0000      -0.957278       -26.0488 
  33   2.0000      -0.942685       -25.6518 
  34   2.0000      -0.917621       -24.9697 
  35   2.0000      -0.910971       -24.7888 
  36   2.0000      -0.889721       -24.2105 
  37   2.0000      -0.887266       -24.1437 
  38   2.0000      -0.872777       -23.7495 
  39   2.0000      -0.853195       -23.2166 
  40   2.0000      -0.834337       -22.7035 
  41   2.0000      -0.825555       -22.4645 
  42   2.0000      -0.809198       -22.0194 
  43   2.0000      -0.799030       -21.7427 
  44   2.0000      -0.795321       -21.6418 
  45   2.0000      -0.787133       -21.4190 
  46   2.0000      -0.761335       -20.7170 
  47   2.0000      -0.757620       -20.6159 
  48   2.0000      -0.727058       -19.7843 
  49   2.0000      -0.713170       -19.4063 
  50   2.0000      -0.712328       -19.3834 
  51   2.0000      -0.700988       -19.0748 
  52   2.0000      -0.690052       -18.7773 
  53   2.0000      -0.676685       -18.4135 
  54   2.0000      -0.649437       -17.6721 
  55   2.0000      -0.632685       -17.2162 
  56   2.0000      -0.624194       -16.9852 
  57   2.0000      -0.620533       -16.8856 
  58   2.0000      -0.605375       -16.4731 
  59   2.0000      -0.604362       -16.4455 
  60   2.0000      -0.595141       -16.1946 
  61   2.0000      -0.584661       -15.9094 
  62   2.0000      -0.568336       -15.4652 
  63   2.0000      -0.565287       -15.3822 
  64   2.0000      -0.563475       -15.3329 
  65   2.0000      -0.560910       -15.2631 
  66   2.0000      -0.553830       -15.0705 
  67   2.0000      -0.548609       -14.9284 
  68   2.0000      -0.546524       -14.8717 
  69   2.0000      -0.545241       -14.8368 
  70   2.0000      -0.535776       -14.5792 
  71   2.0000      -0.534281       -14.5385 
  72   2.0000      -0.526502       -14.3268 
  73   2.0000      -0.521629       -14.1943 
  74   2.0000      -0.517994       -14.0953 
  75   2.0000      -0.511938       -13.9305 
  76   2.0000      -0.505535       -13.7563 
  77   2.0000      -0.501643       -13.6504 
  78   2.0000      -0.497673       -13.5424 
  79   2.0000      -0.492257       -13.3950 
  80   2.0000      -0.489616       -13.3231 
  81   2.0000      -0.487057       -13.2535 
  82   2.0000      -0.484774       -13.1914 
  83   2.0000      -0.477344       -12.9892 
  84   2.0000      -0.473719       -12.8906 
  85   2.0000      -0.466860       -12.7039 
  86   2.0000      -0.463613       -12.6155 
  87   2.0000      -0.462525       -12.5860 
  88   2.0000      -0.454723       -12.3736 
  89   2.0000      -0.454435       -12.3658 
  90   2.0000      -0.447733       -12.1834 
  91   2.0000      -0.447000       -12.1635 
  92   2.0000      -0.437543       -11.9062 
  93   2.0000      -0.431364       -11.7380 
  94   2.0000      -0.426542       -11.6068 
  95   2.0000      -0.426085       -11.5944 
  96   2.0000      -0.421895       -11.4804 
  97   2.0000      -0.419267       -11.4088 
  98   2.0000      -0.416257       -11.3269 
  99   2.0000      -0.414614       -11.2822 
 100   2.0000      -0.410259       -11.1637 
 101   2.0000      -0.409735       -11.1495 
 102   2.0000      -0.405179       -11.0255 
 103   2.0000      -0.400358       -10.8943 
 104   2.0000      -0.394464       -10.7339 
 105   2.0000      -0.382242       -10.4013 
 106   2.0000      -0.372373       -10.1328 
 107   2.0000      -0.357159        -9.7188 
 108   2.0000      -0.335545        -9.1307 
 109   2.0000      -0.289792        -7.8857 
 110   0.0000       0.047426         1.2905 
 111   0.0000       0.100428         2.7328 
 112   0.0000       0.111552         3.0355 
 113   0.0000       0.134357         3.6560 
 114   0.0000       0.145957         3.9717 
 115   0.0000       0.147292         4.0080 
 116   0.0000       0.152138         4.1399 
 117   0.0000       0.156253         4.2519 
 118   0.0000       0.158827         4.3219 
 119   0.0000       0.159620         4.3435 
 120   0.0000       0.167627         4.5614 
*Only the first 10 virtual orbitals were printed.

                    ********************************
                    * MULLIKEN POPULATION ANALYSIS *
                    ********************************

-----------------------
MULLIKEN ATOMIC CHARGES
-----------------------
   0 C :   -0.127577
   1 C :    0.144332
   2 C :    0.080797
   3 H :    0.016915
   4 H :    0.013392
   5 C :   -0.184113
   6 C :    0.110564
   7 C :    0.007123
   8 H :    0.029842
   9 H :    0.012309
  10 H :    0.023646
  11 H :    0.011515
  12 O :   -0.355071
  13 H :    0.014197
  14 C :   -0.024694
  15 C :   -0.044595
  16 H :    0.036364
  17 H :    0.029228
  18 C :   -0.060395
  19 H :   -0.006561
  20 C :   -0.116804
  21 H :    0.001519
  22 C :    0.114388
  23 C :   -0.001231
  24 H :    0.012805
  25 H :    0.017863
  26 C :    0.105730
  27 H :    0.012718
  28 H :    0.014945
  29 C :   -0.406470
  30 H :    0.008258
  31 H :   -0.002370
  32 C :   -0.045173
  33 H :    0.012217
  34 C :    0.123627
  35 H :    0.181546
  36 C :    0.045257
  37 H :    0.007684
  38 H :    0.015324
  39 C :   -0.051620
  40 H :    0.014305
  41 H :    0.010994
  42 H :   -0.010829
  43 C :   -0.004612
  44 C :    0.093073
  45 H :    0.023700
  46 H :    0.018474
  47 H :    0.019427
  48 H :    0.002699
  49 C :    0.060937
  50 C :   -0.080512
  51 C :   -0.093434
  52 H :    0.012758
  53 H :    0.015623
  54 C :   -0.038826
  55 C :    0.040027
  56 C :   -0.174882
  57 H :    0.003352
  58 H :    0.005920
  59 C :    0.027128
  60 C :    0.033515
  61 H :    0.020299
  62 H :    0.021896
  63 H :    0.023914
  64 H :    0.017970
  65 H :    0.024807
  66 H :    0.013211
  67 H :    0.012539
  68 H :    0.023786
  69 H :    0.018168
  70 H :    0.020218
  71 H :    0.028496
  72 H :    0.018429
Sum of atomic charges:   -0.0000000

--------------------------------
MULLIKEN REDUCED ORBITAL CHARGES
--------------------------------
  0 C s       :     3.077896  s :     3.077896
      pz      :     1.009164  p :     3.006843
      px      :     0.996261
      py      :     1.001417
      dz2     :     0.003681  d :     0.042838
      dxz     :     0.008460
      dyz     :     0.006391
      dx2y2   :     0.013478
      dxy     :     0.010830

  1 C s       :     2.931944  s :     2.931944
      pz      :     0.971441  p :     2.889281
      px      :     0.943054
      py      :     0.974786
      dz2     :     0.004621  d :     0.034443
      dxz     :     0.009607
      dyz     :     0.007222
      dx2y2   :     0.008262
      dxy     :     0.004731

  2 C s       :     3.075504  s :     3.075504
      pz      :     1.028147  p :     2.772539
      px      :     0.779438
      py      :     0.964954
      dz2     :     0.009083  d :     0.071161
      dxz     :     0.017657
      dyz     :     0.012355
      dx2y2   :     0.017972
      dxy     :     0.014094

  3 H s       :     0.959884  s :     0.959884
      pz      :     0.010532  p :     0.023201
      px      :     0.008318
      py      :     0.004351

  4 H s       :     0.963818  s :     0.963818
      pz      :     0.006438  p :     0.022790
      px      :     0.003836
      py      :     0.012517

  5 C s       :     3.111705  s :     3.111705
      pz      :     0.993244  p :     3.027609
      px      :     0.974896
      py      :     1.059470
      dz2     :     0.010836  d :     0.044799
      dxz     :     0.007578
      dyz     :     0.013337
      dx2y2   :     0.007174
      dxy     :     0.005874

  6 C s       :     2.949697  s :     2.949697
      pz      :     0.972791  p :     2.904263
      px      :     0.966303
      py      :     0.965169
      dz2     :     0.004461  d :     0.035476
      dxz     :     0.009437
      dyz     :     0.007607
      dx2y2   :     0.008526
      dxy     :     0.005444

  7 C s       :     3.012927  s :     3.012927
      pz      :     0.987246  p :     2.944929
      px      :     0.994388
      py      :     0.963295
      dz2     :     0.003997  d :     0.035022
      dxz     :     0.009136
      dyz     :     0.008210
      dx2y2   :     0.008860
      dxy     :     0.004820

  8 H s       :     0.946865  s :     0.946865
      pz      :     0.011107  p :     0.023293
      px      :     0.007768
      py      :     0.004417

  9 H s       :     0.964871  s :     0.964871
      pz      :     0.006693  p :     0.022820
      px      :     0.003757
      py      :     0.012369

 10 H s       :     0.953661  s :     0.953661
      pz      :     0.008687  p :     0.022693
      px      :     0.005197
      py      :     0.008809

 11 H s       :     0.965795  s :     0.965795
      pz      :     0.010857  p :     0.022689
      px      :     0.007882
      py      :     0.003950

 12 O s       :     3.726386  s :     3.726386
      pz      :     1.508623  p :     4.616483
      px      :     1.247870
      py      :     1.859990
      dz2     :     0.002595  d :     0.012202
      dxz     :     0.005401
      dyz     :     0.001299
      dx2y2   :     0.001640
      dxy     :     0.001267

 13 H s       :     0.965575  s :     0.965575
      pz      :     0.010895  p :     0.020228
      px      :     0.005843
      py      :     0.003490

 14 C s       :     3.196817  s :     3.196817
      pz      :     0.974168  p :     2.791648
      px      :     0.899906
      py      :     0.917573
      dz2     :     0.002542  d :     0.036229
      dxz     :     0.008229
      dyz     :     0.004193
      dx2y2   :     0.011782
      dxy     :     0.009483

 15 C s       :     3.122846  s :     3.122846
      pz      :     0.989683  p :     2.895500
      px      :     1.001779
      py      :     0.904038
      dz2     :     0.007048  d :     0.026249
      dxz     :     0.005005
      dyz     :     0.008602
      dx2y2   :     0.003511
      dxy     :     0.002084

 16 H s       :     0.939088  s :     0.939088
      pz      :     0.007947  p :     0.024547
      px      :     0.006288
      py      :     0.010312

 17 H s       :     0.946146  s :     0.946146
      pz      :     0.005369  p :     0.024625
      px      :     0.004632
      py      :     0.014624

 18 C s       :     3.200843  s :     3.200843
      pz      :     1.010568  p :     2.824253
      px      :     0.889654
      py      :     0.924031
      dz2     :     0.002521  d :     0.035298
      dxz     :     0.007566
      dyz     :     0.003724
      dx2y2   :     0.012190
      dxy     :     0.009298

 19 H s       :     0.982243  s :     0.982243
      pz      :     0.006419  p :     0.024319
      px      :     0.003943
      py      :     0.013957

 20 C s       :     3.100143  s :     3.100143
      pz      :     0.964803  p :     2.972633
      px      :     0.981900
      py      :     1.025930
      dz2     :     0.003141  d :     0.044028
      dxz     :     0.008020
      dyz     :     0.007043
      dx2y2   :     0.014531
      dxy     :     0.011293

 21 H s       :     0.973965  s :     0.973965
      pz      :     0.005567  p :     0.024517
      px      :     0.003904
      py      :     0.015046

 22 C s       :     2.925010  s :     2.925010
      pz      :     0.984870  p :     2.925028
      px      :     0.975283
      py      :     0.964875
      dz2     :     0.006892  d :     0.035574
      dxz     :     0.006001
      dyz     :     0.008299
      dx2y2   :     0.009399
      dxy     :     0.004983

 23 C s       :     3.001562  s :     3.001562
      pz      :     1.017586  p :     2.963217
      px      :     0.964404
      py      :     0.981226
      dz2     :     0.008291  d :     0.036452
      dxz     :     0.008864
      dyz     :     0.004337
      dx2y2   :     0.010258
      dxy     :     0.004702

 24 H s       :     0.963930  s :     0.963930
      pz      :     0.005265  p :     0.023265
      px      :     0.013233
      py      :     0.004767

 25 H s       :     0.958820  s :     0.958820
      pz      :     0.011420  p :     0.023316
      px      :     0.004852
      py      :     0.007044

 26 C s       :     2.971571  s :     2.971571
      pz      :     0.962169  p :     2.887368
      px      :     0.978031
      py      :     0.947168
      dz2     :     0.005223  d :     0.035331
      dxz     :     0.008165
      dyz     :     0.006801
      dx2y2   :     0.008804
      dxy     :     0.006337

 27 H s       :     0.964395  s :     0.964395
      pz      :     0.012201  p :     0.022887
      px      :     0.004390
      py      :     0.006296

 28 H s       :     0.962408  s :     0.962408
      pz      :     0.004313  p :     0.022647
      px      :     0.003738
      py      :     0.014596

 29 C s       :     3.254174  s :     3.254174
      pz      :     1.032319  p :     3.101381
      px      :     1.001024
      py      :     1.068037
      dz2     :     0.009343  d :     0.050915
      dxz     :     0.011925
      dyz     :     0.010743
      dx2y2   :     0.011384
      dxy     :     0.007520

 30 H s       :     0.968668  s :     0.968668
      pz      :     0.010396  p :     0.023074
      px      :     0.008214
      py      :     0.004464

 31 H s       :     0.979827  s :     0.979827
      pz      :     0.011330  p :     0.022543
      px      :     0.005005
      py      :     0.006208

 32 C s       :     3.033357  s :     3.033357
      pz      :     0.985623  p :     2.967993
      px      :     0.948673
      py      :     1.033697
      dz2     :     0.006524  d :     0.043823
      dxz     :     0.008878
      dyz     :     0.009750
      dx2y2   :     0.010930
      dxy     :     0.007742

 33 H s       :     0.966511  s :     0.966511
      pz      :     0.009834  p :     0.021272
      px      :     0.004362
      py      :     0.007077

 34 C s       :     2.893580  s :     2.893580
      pz      :     0.981738  p :     2.947930
      px      :     0.983828
      py      :     0.982364
      dz2     :     0.006381  d :     0.034862
      dxz     :     0.006046
      dyz     :     0.007065
      dx2y2   :     0.009011
      dxy     :     0.006360

 35 H s       :     0.750328  s :     0.750328
[...]
 Total          141.328          174.472          191.075  iso=     168.959

 Orientation: 
  X           0.2717269    0.5199157   -0.8098470
  Y          -0.3747927    0.8322416    0.4085392
  Z           0.8863943    0.1925137    0.4210030

 --------------
 Nucleus  39C :
 --------------

Diamagnetic contribution to the shielding tensor (ppm) : 
           263.826          7.181        -6.270
             7.038        258.473         2.654
            -4.685          1.560       265.731

Paramagnetic contribution to the shielding tensor (ppm): 
           -99.204         -2.278         8.789
             0.762       -128.595         3.315
            12.628          1.072      -137.183

Total shielding tensor (ppm): 
           164.622          4.903         2.520
             7.800        129.879         5.969
             7.943          2.632       128.548


 Diagonalized sT*s matrix:
 
 sDSO           260.323          262.979          264.729  iso=     262.677
 sPSO          -135.462         -131.455          -98.065  iso=    -121.661
        ---------------  ---------------  ---------------
 Total          124.861          131.524          166.664  iso=     141.016

 Orientation: 
  X           0.0087944   -0.2316571   -0.9727578
  Y          -0.6602201    0.7292725   -0.1796412
  Z           0.7510207    0.6438141   -0.1465312

 --------------
 Nucleus  43C :
 --------------

Diamagnetic contribution to the shielding tensor (ppm) : 
           258.397          2.698        -5.463
             1.883        245.522         5.615
            -5.986         -0.772       255.771

Paramagnetic contribution to the shielding tensor (ppm): 
           -94.753         -2.185        -3.341
             3.307        -89.283        -6.273
            -0.646          2.334       -93.257

Total shielding tensor (ppm): 
           163.644          0.513        -8.804
             5.190        156.240        -0.658
            -6.631          1.562       162.514


 Diagonalized sT*s matrix:
 
 sDSO           245.699          251.288          262.703  iso=     253.230
 sPSO           -92.300          -93.325          -91.668  iso=     -92.431
        ---------------  ---------------  ---------------
 Total          153.399          157.963          171.036  iso=     160.799

 Orientation: 
  X           0.5622118    0.3734833   -0.7378538
  Y          -0.6495952    0.7516061   -0.1145183
  Z           0.5118047    0.5436898    0.6651747

 --------------
 Nucleus  44C :
 --------------

Diamagnetic contribution to the shielding tensor (ppm) : 
           251.490          0.261         1.387
            -0.488        258.338        -7.184
            -0.203         -4.646       270.784

Paramagnetic contribution to the shielding tensor (ppm): 
           -71.614         -4.297        -3.167
            -2.029        -75.891         0.988
            -0.658         -1.546       -80.349

Total shielding tensor (ppm): 
           179.876         -4.036        -1.781
            -2.517        182.448        -6.196
            -0.861         -6.192       190.435


 Diagonalized sT*s matrix:
 
 sDSO           254.237          253.486          272.888  iso=     260.204
 sPSO           -78.299          -70.490          -79.065  iso=     -75.951
        ---------------  ---------------  ---------------
 Total          175.938          182.997          193.824  iso=     184.253

 Orientation: 
  X           0.6678823    0.7436119    0.0312184
  Y           0.6606749   -0.5730341   -0.4849130
  Z           0.3426978   -0.3444900    0.8740050

 --------------
 Nucleus  49C :
 --------------

Diamagnetic contribution to the shielding tensor (ppm) : 
           246.877         -4.021        -4.079
           -10.928        252.200         7.352
           -13.033          4.048       256.925

Paramagnetic contribution to the shielding tensor (ppm): 
           -66.635          3.550        -2.190
            10.097        -72.044        -2.256
             5.352         -0.058       -78.072

Total shielding tensor (ppm): 
           180.241         -0.471        -6.269
            -0.831        180.156         5.097
            -7.681          3.990       178.852


 Diagonalized sT*s matrix:
 
 sDSO           245.880          243.760          266.362  iso=     252.000
 sPSO           -74.432          -64.175          -78.145  iso=     -72.250
        ---------------  ---------------  ---------------
 Total          171.447          179.586          188.217  iso=     179.750

 Orientation: 
  X           0.5655035   -0.5472529    0.6170252
  Y          -0.3483423   -0.8366192   -0.4227599
  Z           0.7475717    0.0241363   -0.6637424

 --------------
 Nucleus  50C :
 --------------

Diamagnetic contribution to the shielding tensor (ppm) : 
           272.640         -3.726        11.103
            -0.193        266.914         4.064
            15.200          2.221       254.069

Paramagnetic contribution to the shielding tensor (ppm): 
          -190.080          9.723       -59.262
             8.408       -256.228       -91.910
           -49.013        -88.155      -156.608

Total shielding tensor (ppm): 
            82.561          5.997       -48.159
             8.215         10.686       -87.847
           -33.814        -85.933        97.462


 Diagonalized sT*s matrix:
 
 sDSO           269.414          276.087          248.123  iso=     264.541
 sPSO          -311.385         -211.902          -79.628  iso=    -200.972
        ---------------  ---------------  ---------------
 Total          -41.971           64.185          168.494  iso=      63.569

 Orientation: 
  X           0.2836975    0.8759315   -0.3902048
  Y           0.7812171   -0.4470982   -0.4356638
  Z           0.5560715    0.1812379    0.8111333

 --------------
 Nucleus  51C :
 --------------

Diamagnetic contribution to the shielding tensor (ppm) : 
           271.015         -6.157        11.201
           -15.199        264.502        16.763
            10.014         14.899       257.894

Paramagnetic contribution to the shielding tensor (ppm): 
          -187.246         10.563       -57.497
            28.230       -252.501      -103.767
           -47.883       -101.276      -158.615

Total shielding tensor (ppm): 
            83.769          4.406       -46.296
            13.031         12.000       -87.004
           -37.869        -86.377        99.279


 Diagonalized sT*s matrix:
 
 sDSO           275.446          278.421          239.544  iso=     264.470
 sPSO          -313.965         -216.253          -68.145  iso=    -199.454
        ---------------  ---------------  ---------------
 Total          -38.519           62.168          171.399  iso=      65.016

 Orientation: 
  X           0.3131952    0.8537815   -0.4158916
  Y           0.7576976   -0.4886565   -0.4325613
  Z           0.5725410    0.1796440    0.7999530

 --------------
 Nucleus  54C :
 --------------

Diamagnetic contribution to the shielding tensor (ppm) : 
           252.133          2.650        -2.979
             2.446        255.096        13.663
             5.870         12.784       253.323

Paramagnetic contribution to the shielding tensor (ppm): 
           -87.275          1.111         0.746
             3.997       -106.206       -21.424
           -12.021        -17.545       -94.140

Total shielding tensor (ppm): 
           164.858          3.761        -2.233
             6.443        148.890        -7.761
            -6.150         -4.761       159.183


 Diagonalized sT*s matrix:
 
 sDSO           262.704          249.435          248.411  iso=     253.517
 sPSO          -117.234          -91.802          -78.585  iso=     -95.874
        ---------------  ---------------  ---------------
 Total          145.470          157.634          169.826  iso=     157.643

 Orientation: 
  X           0.1589419    0.5913240   -0.7906159
  Y          -0.9178534   -0.2065036   -0.3389711
  Z          -0.3637067    0.7795462    0.5099266

 --------------
 Nucleus  55C :
 --------------

Diamagnetic contribution to the shielding tensor (ppm) : 
           240.891         -1.840        -2.936
             9.615        257.410         8.482
            17.336          9.943       255.138

Paramagnetic contribution to the shielding tensor (ppm): 
           -61.296          0.304        -3.662
           -11.318        -77.353        -0.493
           -27.256         -5.289       -75.531

Total shielding tensor (ppm): 
           179.595         -1.536        -6.599
            -1.703        180.058         7.989
            -9.919          4.653       179.607


 Diagonalized sT*s matrix:
 
 sDSO           250.174          253.826          249.440  iso=     251.147
 sPSO           -80.165          -75.497          -58.518  iso=     -71.393
        ---------------  ---------------  ---------------
 Total          170.009          178.329          190.922  iso=     179.753

 Orientation: 
  X          -0.5664974    0.6005244   -0.5643148
  Y           0.3735306    0.7975307    0.4737296
  Z          -0.7345445   -0.0575777    0.6761133

 --------------
 Nucleus  56C :
 --------------

Diamagnetic contribution to the shielding tensor (ppm) : 
           252.480          4.436        -2.031
             2.005        229.030         5.761
            -2.704          8.980       234.976

Paramagnetic contribution to the shielding tensor (ppm): 
           -81.786         -2.961        -5.454
             0.282        -73.404       -12.697
            -6.054        -14.700       -77.611

Total shielding tensor (ppm): 
           170.695          1.475        -7.485
             2.287        155.626        -6.936
            -8.758         -5.720       157.365


 Diagonalized sT*s matrix:
 
 sDSO           240.407          226.914          249.165  iso=     238.829
 sPSO           -91.178          -68.024          -73.599  iso=     -77.600
        ---------------  ---------------  ---------------
 Total          149.230          158.889          175.566  iso=     161.228

 Orientation: 
  X           0.2164916   -0.4647469   -0.8585696
  Y           0.6546750    0.7215005   -0.2254721
  Z           0.7242458   -0.5132712    0.4604570

 --------------
 Nucleus  59C :
 --------------

Diamagnetic contribution to the shielding tensor (ppm) : 
           248.555         -3.476        -2.201
           -23.608        238.779         4.586
           -18.661          8.372       231.826

Paramagnetic contribution to the shielding tensor (ppm): 
           -76.859         -2.477        -5.580
            21.648        -59.726        10.761
            12.794          2.497       -55.359

Total shielding tensor (ppm): 
           171.696         -5.953        -7.781
            -1.960        179.053        15.347
            -5.867         10.869       176.467


 Diagonalized sT*s matrix:
 
 sDSO           230.603          235.627          252.930  iso=     239.720
 sPSO           -66.972          -65.580          -59.392  iso=     -63.981
        ---------------  ---------------  ---------------
 Total          163.630          170.047          193.538  iso=     175.739

 Orientation: 
  X          -0.3670103    0.8727068   -0.3220035
  Y           0.5523046    0.4829761    0.6794805
  Z          -0.7485072   -0.0715323    0.6592572

 --------------
 Nucleus  60C :
 --------------

Diamagnetic contribution to the shielding tensor (ppm) : 
           247.974          5.216         8.976
            13.478        221.444         5.344
            20.771         -0.200       221.001

Paramagnetic contribution to the shielding tensor (ppm): 
           -64.118          5.716         2.403
            -7.257        -56.339        -1.092
           -11.197          8.527       -44.519

Total shielding tensor (ppm): 
           183.856         10.932        11.379
             6.221        165.105         4.252
             9.574          8.327       176.482


 Diagonalized sT*s matrix:
 
 sDSO           219.300          216.039          255.080  iso=     230.140
 sPSO           -57.972          -46.973          -60.031  iso=     -54.992
        ---------------  ---------------  ---------------
 Total          161.328          169.066          195.049  iso=     175.148

 Orientation: 
  X           0.2656569    0.5879765    0.7640092
  Y          -0.9391745   -0.0210866    0.3427925
  Z           0.2176642   -0.8086031    0.5466107



--------------------------------
CHEMICAL SHIELDING SUMMARY (ppm)
--------------------------------


  Nucleus  Element    Isotropic     Anisotropy
  -------  -------  ------------   ------------
      0       C           59.600        148.142 
      1       C          151.123         30.039 
      2       C          128.781         55.292 
      5       C           51.509        179.225 
      6       C          165.032         22.735 
      7       C          161.621         22.409 
     14       C           74.610        128.309 
     15       C           83.031        121.167 
     18       C           79.409        134.137 
     20       C           52.407        175.054 
     22       C          169.362          8.742 
     23       C          174.614         12.600 
     26       C          158.645         24.089 
     29       C          153.981         17.963 
     32       C          143.444         27.987 
     34       C          174.749         23.290 
     36       C          168.959         33.175 
     39       C          141.016         38.472 
     43       C          160.799         15.355 
     44       C          184.253         14.356 
     49       C          179.750         12.701 
     50       C           63.569        157.387 
     51       C           65.016        159.574 
     54       C          157.643         18.274 
     55       C          179.753         16.753 
     56       C          161.228         21.507 
     59       C          175.739         26.699 
     60       C          175.148         29.852 


NMR shielding tensor and spin rotation calculation done in   1.1 sec 

Maximum memory used throughout the entire PROP-calculation: 51.2 MB

--------------------------------
SUGGESTED CITATIONS FOR THIS RUN
--------------------------------

Below you find a list of papers that are relevant to this ORCA run
We neither can nor want to force you to cite these papers, but we appreciate if you do
You receive ORCA, which is the product of decades of hard work by many enthusiastic individuals, for free
The only thing we kindly ask in return is that you cite our papers,
We deeply appreciate it, if you show your appreciation for ORCA by not just citing the generic ORCA reference.

Please note that relegating all ORCA citations to the supporting information does *not* help us.
SI sections are not indexed - citations you put there will not count into any citation statistics
But we need these citations in order to attract the funding resources that allow us to do what we are doing

Therefore, if you are a happy ORCA user, please consider citing a few of the papers listed below in the main body of your paper

In addition to the list printed below, the program has created the file inpS.bibtex that contains the list in bibtex format
You can import this file easily into all common literature databanks and citation aid programs


List of essential papers. We consider these as the minimum necessary citations

  1. Neese,F.
     Software update: the ORCA program system, version 5.0
     WIRES Comput. Molec. Sci., 2022 12(1)e1606
     doi.org/10.1002/wcms.1606

List of papers to cite with high priority. The work reported in these papers was absolutely
necessary for this run to complete.
Our perspective: the developers of density functionals and basis sets usually get cited in chemistry papers
Good! But without the algorithms to do something with them, the functionals or basis sets would not do anything.
Hence, in our opinion, the algorithm design and method developments papers are equally worthy of getting cited

  1. Neese,F.
     An improvement of the resolution of the identity approximation for the formation of the Coulomb matrix
     J. Comp. Chem., 2003 24(14)1740-1747
     doi.org/10.1002/jcc.10318
  2. Neese,F.; Wennmohs,F.; Hansen,A.; Becker,U.
     Efficient, approximate and parallel Hartree-Fock and hybrid DFT calculations. A 'chain-of-spheres' algorithm for the Hartree-Fock exchange
     Chem. Phys., 2009 356(1-3)98-109
     doi.org/10.1016/j.chemphys.2008.10.036
  3. Stoychev,G.L.; Auer,A.A.; Izsak,R.; Neese,F.
     Self-Consistent Field Calculation of Nuclear Magnetic Resonance Chemical Shielding Constants Using Gauge-Including Atomic Orbitals and Approximate Two-Electron Integrals
     J. Chem. Theory Comput., 2018 14(2)619-637
     doi.org/10.1021/acs.jctc.7b01006
  4. Garcia-Rates,M.; Neese,F.
     Effect of the Solute Cavity on the Solvation Energy and its Derivatives within the Framework of the Gaussian Charge Scheme
     J. Comput. Chem., 2020 41 922-939
     doi.org/10.1002/jcc.26139
  5. Helmich-Paris,B.; de Souza,B.; Neese,F.; Izsák,R.
     An improved chain of spheres for exchange algorithm
     J. Chem. Phys., 2021 155 104109
     doi.org/doi: 10.1063/5.0058766.
  6. Neese,F.
     The SHARK Integral Generation and Digestion System
     J. Comp. Chem., 2022  1-16
     doi.org/10.1002/jcc.26942
  7. Caldeweyher,E.; Bannwarth,C.; Grimme,S.
     Extension of the D3 dispersion coefficient model
     J. Chem. Phys., 2017 147 034112-XXXX
     doi.org/10.1063/1.4993215
  8. Caldeweyher,E.; Ehlert,S.; Hansen,A.; Neugebauer,H.; Spicher,S.; Bannwarth,C.; Grimme,S.
     A generally applicable atomic-charge dependent London dispersion correction
     J. Chem. Phys., 2019 150 154122-XXXX
     doi.org/10.1063/1.5090222
  9. Caldeweyher,E.; Mewes,J.; Ehlert,S.; Grimme,S.
     Extension and evaluation of the D4 London-dispersion model for periodic systems
     Phys. Chem. Chem. Phys., 2020 22(16)8499-8512
     doi.org/10.1039/D0CP00502A

List of suggested additional citations. These are papers that are important in the 'surrounding' of 
of this run, or papers that preceded the highly important papers. If you like your results we are grateful for a citation.

  1. Izsak,R.; Neese,F.
     An overlap fitted chain of spheres exchange method
     J. Chem. Phys., 2011 135 144105
     doi.org/10.1063/1.3646921
  2. Izsak,R.; Hansen,A.; Neese,F.
     The resolution of identity and chain of spheres approximations for the LPNO-CCSD singles Fock term
     Molec. Phys., 2012 110 2413-2417
     doi.org/10.1080/00268976.2012.687466
  3. Neese,F.
     The ORCA program system
     WIRES Comput. Molec. Sci., 2012 2(1)73-78
     doi.org/10.1002/wcms.81
  4. Izsak,R.; Neese,F.; Klopper,W.
     Robust fitting techniques in the chain of spheres approximation to the Fock exchange: The role of the complementary space
     J. Chem. Phys., 2013 139 
     doi.org/10.1063/1.4819264
  5. Neese,F.
     Software update: the ORCA program system, version 4.0
     WIRES Comput. Molec. Sci., 2018 8(1)1-6
     doi.org/10.1002/wcms.1327
  6. Neese,F.; Wennmohs,F.; Becker,U.; Riplinger,C.
     The ORCA quantum chemistry program package
     J. Chem. Phys., 2020 152 Art. No. L224108
     doi.org/10.1063/5.0004608

Timings for individual modules:

Sum of individual times          ...      174.794 sec (=   2.913 min)
Startup calculation              ...        4.695 sec (=   0.078 min)   2.7 %
SCF iterations                   ...       70.814 sec (=   1.180 min)  40.5 %
Property integrals               ...       59.298 sec (=   0.988 min)  33.9 %
SCF Response                     ...       38.630 sec (=   0.644 min)  22.1 %
Property calculations            ...        1.356 sec (=   0.023 min)   0.8 %
                             ****ORCA TERMINATED NORMALLY****
TOTAL RUN TIME: 0 days 0 hours 2 minutes 55 seconds 74 msec
