
                                 *****************
                                 * O   R   C   A *
                                 *****************

                                            #,                                       
                                            ###                                      
                                            ####                                     
                                            #####                                    
                                            ######                                   
                                           ########,                                 
                                     ,,################,,,,,                         
                               ,,#################################,,                 
                          ,,##########################################,,             
                       ,#########################################, ''#####,          
                    ,#############################################,,   '####,        
                  ,##################################################,,,,####,       
                ,###########''''           ''''###############################       
              ,#####''   ,,,,##########,,,,          '''####'''          '####       
            ,##' ,,,,###########################,,,                        '##       
           ' ,,###''''                  '''############,,,                           
         ,,##''                                '''############,,,,        ,,,,,,###''
      ,#''                                            '''#######################'''  
     '                                                          ''''####''''         
             ,#######,   #######,   ,#######,      ##                                
            ,#'     '#,  ##    ##  ,#'     '#,    #''#        ######   ,####,        
            ##       ##  ##   ,#'  ##            #'  '#       #        #'  '#        
            ##       ##  #######   ##           ,######,      #####,   #    #        
            '#,     ,#'  ##    ##  '#,     ,#' ,#      #,         ##   #,  ,#        
             '#######'   ##     ##  '#######'  #'      '#     #####' # '####'        



                  #######################################################
                  #                        -***-                        #
                  #          Department of theory and spectroscopy      #
                  #    Directorship and core code : Frank Neese         #
                  #        Max Planck Institute fuer Kohlenforschung    #
                  #                Kaiser Wilhelm Platz 1               #
                  #                 D-45470 Muelheim/Ruhr               #
                  #                      Germany                        #
                  #                                                     #
                  #                  All rights reserved                #
                  #                        -***-                        #
                  #######################################################


                         Program Version 5.0.2 -  RELEASE  -


 With contributions from (in alphabetic order):
   Daniel Aravena         : Magnetic Suceptibility
   Michael Atanasov       : Ab Initio Ligand Field Theory (pilot matlab implementation)
   Alexander A. Auer      : GIAO ZORA, VPT2 properties, NMR spectrum
   Ute Becker             : Parallelization
   Giovanni Bistoni       : ED, misc. LED, open-shell LED, HFLD
   Martin Brehm           : Molecular dynamics
   Dmytro Bykov           : SCF Hessian
   Vijay G. Chilkuri      : MRCI spin determinant printing, contributions to CSF-ICE
   Dipayan Datta          : RHF DLPNO-CCSD density
   Achintya Kumar Dutta   : EOM-CC, STEOM-CC
   Dmitry Ganyushin       : Spin-Orbit,Spin-Spin,Magnetic field MRCI
   Miquel Garcia          : C-PCM and meta-GGA Hessian, CC/C-PCM, Gaussian charge scheme
   Yang Guo               : DLPNO-NEVPT2, F12-NEVPT2, CIM, IAO-localization
   Andreas Hansen         : Spin unrestricted coupled pair/coupled cluster methods
   Benjamin Helmich-Paris : MC-RPA, TRAH-SCF, COSX integrals
   Lee Huntington         : MR-EOM, pCC
   Robert Izsak           : Overlap fitted RIJCOSX, COSX-SCS-MP3, EOM
   Marcus Kettner         : VPT2
   Christian Kollmar      : KDIIS, OOCD, Brueckner-CCSD(T), CCSD density, CASPT2, CASPT2-K
   Simone Kossmann        : Meta GGA functionals, TD-DFT gradient, OOMP2, MP2 Hessian
   Martin Krupicka        : Initial AUTO-CI
   Lucas Lang             : DCDCAS
   Marvin Lechner         : AUTO-CI (C++ implementation), FIC-MRCC
   Dagmar Lenk            : GEPOL surface, SMD
   Dimitrios Liakos       : Extrapolation schemes; Compound Job, initial MDCI parallelization
   Dimitrios Manganas     : Further ROCIS development; embedding schemes
   Dimitrios Pantazis     : SARC Basis sets
   Anastasios Papadopoulos: AUTO-CI, single reference methods and gradients
   Taras Petrenko         : DFT Hessian,TD-DFT gradient, ASA, ECA, R-Raman, ABS, FL, XAS/XES, NRVS
   Peter Pinski           : DLPNO-MP2, DLPNO-MP2 Gradient
   Christoph Reimann      : Effective Core Potentials
   Marius Retegan         : Local ZFS, SOC
   Christoph Riplinger    : Optimizer, TS searches, QM/MM, DLPNO-CCSD(T), (RO)-DLPNO pert. Triples
   Tobias Risthaus        : Range-separated hybrids, TD-DFT gradient, RPA, STAB
   Michael Roemelt        : Original ROCIS implementation
   Masaaki Saitow         : Open-shell DLPNO-CCSD energy and density
   Barbara Sandhoefer     : DKH picture change effects
   Avijit Sen             : IP-ROCIS
   Kantharuban Sivalingam : CASSCF convergence, NEVPT2, FIC-MRCI
   Bernardo de Souza      : ESD, SOC TD-DFT
   Georgi Stoychev        : AutoAux, RI-MP2 NMR, DLPNO-MP2 response
   Willem Van den Heuvel  : Paramagnetic NMR
   Boris Wezisla          : Elementary symmetry handling
   Frank Wennmohs         : Technical directorship


 We gratefully acknowledge several colleagues who have allowed us to
 interface, adapt or use parts of their codes:
   Stefan Grimme, W. Hujo, H. Kruse, P. Pracht,  : VdW corrections, initial TS optimization,
                  C. Bannwarth, S. Ehlert          DFT functionals, gCP, sTDA/sTD-DF
   Ed Valeev, F. Pavosevic, A. Kumar             : LibInt (2-el integral package), F12 methods
   Garnet Chan, S. Sharma, J. Yang, R. Olivares  : DMRG
   Ulf Ekstrom                                   : XCFun DFT Library
   Mihaly Kallay                                 : mrcc  (arbitrary order and MRCC methods)
   Jiri Pittner, Ondrej Demel                    : Mk-CCSD
   Frank Weinhold                                : gennbo (NPA and NBO analysis)
   Christopher J. Cramer and Donald G. Truhlar   : smd solvation model
   Lars Goerigk                                  : TD-DFT with DH, B97 family of functionals
   V. Asgeirsson, H. Jonsson                     : NEB implementation
   FAccTs GmbH                                   : IRC, NEB, NEB-TS, DLPNO-Multilevel, CI-OPT
                                                   MM, QMMM, 2- and 3-layer-ONIOM, Crystal-QMMM,
                                                   LR-CPCM, SF, NACMEs, symmetry and pop. for TD-DFT,
                                                   nearIR, NL-DFT gradient (VV10), updates on ESD,
                                                   ML-optimized integration grids
   S Lehtola, MJT Oliveira, MAL Marques          : LibXC Library
   Liviu Ungur et al                             : ANISO software


 Your calculation uses the libint2 library for the computation of 2-el integrals
 For citations please refer to: http://libint.valeyev.net

 Your ORCA version has been built with support for libXC version: 5.1.0
 For citations please refer to: https://tddft.org/programs/libxc/

 This ORCA versions uses:
   CBLAS   interface :  Fast vector & matrix operations
   LAPACKE interface :  Fast linear algebra routines
   SCALAPACK package :  Parallel linear algebra routines
   Shared memory     :  Shared parallel matrices
   BLAS/LAPACK       :  OpenBLAS 0.3.15  USE64BITINT DYNAMIC_ARCH NO_AFFINITY Zen SINGLE_THREADED
        Core in use  :  Zen
   Copyright (c) 2011-2014, The OpenBLAS Project


Your calculation utilizes the atom-pairwise dispersion correction
based on tight binding partial charges (D4)
Cite in your paper:
E.Caldeweyher, C.Bannwarth, S.Grimme, J.Chem.Phys., (2017), 147, 034112.
E.Caldeweyher, S.Ehlert, A.Hansen, H.Neugebauer, S.Grimme, J.Chem.Phys., (2018), in progress.
   

================================================================================

----- Orbital basis set information -----
Your calculation utilizes the basis: pcSseg-1
   F. Jensen, J. Chem. Theory Comput. 11, 132 (2015).

----- AuxJ basis set information -----
Your calculation utilizes the auxiliary basis: def2/J
   F. Weigend, Phys. Chem. Chem. Phys. 8, 1057 (2006).

================================================================================
                                        WARNINGS
                       Please study these warnings very carefully!
================================================================================



WARNING: Found flag for RIJCOSX approximation but no HF exchange needed!
  ===> : RIJCOSX  will be disabled and Split-RI-J is turned on

INFO   : the flag for use of the SHARK integral package has been found!

================================================================================
                                       INPUT FILE
================================================================================
NAME = inpS
|  1> ! revTPSS
|  2> ! D4
|  3> ! pcSseg-1
|  4> ! def2/J RIJCOSX
|  5> ! DEFGRID2
|  6> ! scfconv7
|  7> ! smallprint printgap noloewdin
|  8> ! NOSOSCF
|  9> %MaxCore 4000
| 10> %output
| 11>        print[P_BondOrder_M] 1
| 12>        print[P_Mayer] 1
| 13>        print[P_basis] 2
| 14> end
| 15> %pal
| 16>     nprocs 4
| 17> end
| 18> ! CPCM(chloroform)
| 19> *xyz 0 1
| 20> C   -5.0849278100   0.1873012400  -0.6740374500
| 21> C   -6.5206266800  -0.2484841000  -0.8453213100
| 22> C   -7.4642048800   0.7273605200  -0.1304283900
| 23> H   -6.6676306900  -1.2636620100  -0.4595378000
| 24> H   -6.7852896700  -0.2496715400  -1.9130910800
| 25> C   -4.8291624100   1.5833343500  -1.0940460300
| 26> C   -5.7914058100   2.5961678500  -0.5143643900
| 27> C   -7.2526959000   2.1475275100  -0.6571478900
| 28> H   -5.6405468000   3.5738796600  -0.9841868100
| 29> H   -5.5636720200   2.7157760000   0.5558591200
| 30> H   -7.5422787300   2.1690659300  -1.7166097800
| 31> H   -7.9127564600   2.8391102400  -0.1208092700
| 32> O   -7.2828493400   0.6560472300   1.2937022500
| 33> H   -8.5041592500   0.4241130200  -0.3039551200
| 34> C   -4.1624145900  -0.6323217400  -0.1160487300
| 35> C   -3.8568341400   1.9230286900  -1.9471250800
| 36> H   -3.1865307500   1.1771150800  -2.3657216600
| 37> H   -3.7162779100   2.9572403700  -2.2525851200
| 38> C   -2.7935083200  -0.2860531300   0.1896772600
| 39> H   -4.5028804600  -1.6322975400   0.1502462500
| 40> C   -1.8371512800  -1.1184187600   0.6534312200
| 41> H   -2.5246692400   0.7565271800   0.0351216800
| 42> C   -2.0021876400  -2.5948365600   0.9090842000
| 43> C   -0.9357906800  -3.4240793600   0.1668547200
| 44> H   -2.9998660800  -2.9534888700   0.6415169900
| 45> H   -1.8774266400  -2.7663471300   1.9902193400
| 46> C    0.4901466400  -2.9131644400   0.4145814600
| 47> H   -1.1541383300  -3.4073078400  -0.9084251800
| 48> H   -1.0111047300  -4.4715703500   0.4834835300
| 49> C    0.6249690900  -1.4176265400   0.0963523500
| 50> H    1.1904553100  -3.5118589500  -0.1771712300
| 51> H    0.7518991700  -3.0664216700   1.4724542400
| 52> C   -0.4421270800  -0.6609532200   0.9492472000
| 53> H   -0.2286269600  -0.9623974000   1.9917020000
| 54> C   -0.0481578300   0.8051240100   0.8124797400
| 55> H   -6.3318030200   0.6019672900   1.4652659000
| 56> C    1.4988861500   0.7605456300   0.8208990800
| 57> H   -0.4588819000   1.4219311900   1.6187991700
| 58> H   -0.4176248500   1.2199013200  -0.1320724400
| 59> C    1.9201939500  -0.7285464100   0.6150492500
| 60> H    1.8984915900   1.1517587300   1.7603734900
| 61> H    1.9189504500   1.3843294700   0.0230409600
| 62> H    2.1259804900  -1.1794238200   1.5986719600
| 63> C    3.1907132900  -0.8483560000  -0.2375910700
| 64> C    0.4116686800  -1.1503830200  -1.4003216300
| 65> H    0.6286224200  -0.1097544300  -1.6617462300
| 66> H   -0.6224108400  -1.3511863700  -1.6973521300
| 67> H    1.0645689100  -1.7871317600  -2.0066941000
| 68> H    2.9847092300  -0.3583719100  -1.2023999200
| 69> C    3.6137533000  -2.2976893600  -0.5395703700
| 70> C    4.3910602100  -0.1460846100   0.3609358800
| 71> C    4.5905456700   0.1471593300   1.6459557000
| 72> H    5.1858544600   0.0616421000  -0.3575836200
| 73> H    3.8014929400  -0.0721936600   2.3635125400
| 74> C    5.8425499300   0.7456284500   2.2397235100
| 75> C    6.7252473000   1.4455048600   1.2036560800
| 76> C    6.6352105000  -0.3262935200   3.0406938600
| 77> H    5.5187963500   1.5008753700   2.9765481700
| 78> H    6.9855338800  -1.0709222900   2.3080631600
| 79> C    5.7545606300  -1.0440347900   4.0686706500
| 80> C    7.8550354800   0.2770448600   3.7434507300
| 81> H    7.2195255100   0.7208690300   0.5452339700
| 82> H    7.5039457100   2.0402525500   1.6877126600
| 83> H    6.1305634400   2.1192773100   0.5783430500
| 84> H    4.9490203300  -1.6133428600   3.5957635300
| 85> H    5.2997351200  -0.3218591400   4.7595396900
| 86> H    6.3530662400  -1.7429991100   4.6628636200
| 87> H    8.5878358700   0.6776911700   3.0377734100
| 88> H    8.3599688000  -0.4829292200   4.3499181200
| 89> H    7.5470494100   1.0896392200   4.4144446900
| 90> H    2.9024601100  -2.8063005400  -1.1952826000
| 91> H    3.7019514100  -2.8704384800   0.3913601200
| 92> H    4.5914632900  -2.3128768000  -1.0342989000
| 93> *
| 94> %eprnmr
| 95>  Nuclei = all H { shift }
| 96>  origin giao
| 97>  giao_2el giao_2el_same_as_scf
| 98>  giao_1el giao_1el_analytic
| 99> end
|100> 
|101>                          ****END OF INPUT****
================================================================================

                       ****************************
                       * Single Point Calculation *
                       ****************************

---------------------------------
CARTESIAN COORDINATES (ANGSTROEM)
---------------------------------
  C     -5.084928    0.187301   -0.674037
  C     -6.520627   -0.248484   -0.845321
  C     -7.464205    0.727361   -0.130428
  H     -6.667631   -1.263662   -0.459538
  H     -6.785290   -0.249672   -1.913091
  C     -4.829162    1.583334   -1.094046
  C     -5.791406    2.596168   -0.514364
  C     -7.252696    2.147528   -0.657148
  H     -5.640547    3.573880   -0.984187
  H     -5.563672    2.715776    0.555859
  H     -7.542279    2.169066   -1.716610
  H     -7.912756    2.839110   -0.120809
  O     -7.282849    0.656047    1.293702
  H     -8.504159    0.424113   -0.303955
  C     -4.162415   -0.632322   -0.116049
  C     -3.856834    1.923029   -1.947125
  H     -3.186531    1.177115   -2.365722
  H     -3.716278    2.957240   -2.252585
  C     -2.793508   -0.286053    0.189677
  H     -4.502880   -1.632298    0.150246
  C     -1.837151   -1.118419    0.653431
  H     -2.524669    0.756527    0.035122
  C     -2.002188   -2.594837    0.909084
  C     -0.935791   -3.424079    0.166855
  H     -2.999866   -2.953489    0.641517
  H     -1.877427   -2.766347    1.990219
  C      0.490147   -2.913164    0.414581
  H     -1.154138   -3.407308   -0.908425
  H     -1.011105   -4.471570    0.483484
  C      0.624969   -1.417627    0.096352
  H      1.190455   -3.511859   -0.177171
  H      0.751899   -3.066422    1.472454
  C     -0.442127   -0.660953    0.949247
  H     -0.228627   -0.962397    1.991702
  C     -0.048158    0.805124    0.812480
  H     -6.331803    0.601967    1.465266
  C      1.498886    0.760546    0.820899
  H     -0.458882    1.421931    1.618799
  H     -0.417625    1.219901   -0.132072
  C      1.920194   -0.728546    0.615049
  H      1.898492    1.151759    1.760373
  H      1.918950    1.384329    0.023041
  H      2.125980   -1.179424    1.598672
  C      3.190713   -0.848356   -0.237591
  C      0.411669   -1.150383   -1.400322
  H      0.628622   -0.109754   -1.661746
  H     -0.622411   -1.351186   -1.697352
  H      1.064569   -1.787132   -2.006694
  H      2.984709   -0.358372   -1.202400
  C      3.613753   -2.297689   -0.539570
  C      4.391060   -0.146085    0.360936
  C      4.590546    0.147159    1.645956
  H      5.185854    0.061642   -0.357584
  H      3.801493   -0.072194    2.363513
  C      5.842550    0.745628    2.239724
  C      6.725247    1.445505    1.203656
  C      6.635210   -0.326294    3.040694
  H      5.518796    1.500875    2.976548
  H      6.985534   -1.070922    2.308063
  C      5.754561   -1.044035    4.068671
  C      7.855035    0.277045    3.743451
  H      7.219526    0.720869    0.545234
  H      7.503946    2.040253    1.687713
  H      6.130563    2.119277    0.578343
  H      4.949020   -1.613343    3.595764
  H      5.299735   -0.321859    4.759540
  H      6.353066   -1.742999    4.662864
  H      8.587836    0.677691    3.037773
  H      8.359969   -0.482929    4.349918
  H      7.547049    1.089639    4.414445
  H      2.902460   -2.806301   -1.195283
  H      3.701951   -2.870438    0.391360
  H      4.591463   -2.312877   -1.034299

----------------------------
CARTESIAN COORDINATES (A.U.)
----------------------------
  NO LB      ZA    FRAG     MASS         X           Y           Z
   0 C     6.0000    0    12.011   -9.609121    0.353948   -1.273746
   1 C     6.0000    0    12.011  -12.322199   -0.469567   -1.597426
   2 C     6.0000    0    12.011  -14.105303    1.374512   -0.246474
   3 H     1.0000    0     1.008  -12.599996   -2.387975   -0.868401
   4 H     1.0000    0     1.008  -12.822339   -0.471811   -3.615218
   5 C     6.0000    0    12.011   -9.125794    2.992068   -2.067447
   6 C     6.0000    0    12.011  -10.944171    4.906046   -0.972008
   7 C     6.0000    0    12.011  -13.705609    4.058239   -1.241830
   8 H     1.0000    0     1.008  -10.659089    6.753654   -1.859844
   9 H     1.0000    0     1.008  -10.513816    5.132073    1.050422
  10 H     1.0000    0     1.008  -14.252841    4.098941   -3.243922
  11 H     1.0000    0     1.008  -14.952943    5.365141   -0.228296
  12 O     8.0000    0    15.999  -13.762591    1.239750    2.444743
  13 H     1.0000    0     1.008  -16.070532    0.801457   -0.574392
  14 C     6.0000    0    12.011   -7.865824   -1.194915   -0.219300
  15 C     6.0000    0    12.011   -7.288360    3.633998   -3.679533
  16 H     1.0000    0     1.008   -6.021670    2.224425   -4.470566
  17 H     1.0000    0     1.008   -7.022747    5.588374   -4.256769
  18 C     6.0000    0    12.011   -5.278966   -0.540562    0.358438
  19 H     1.0000    0     1.008   -8.509211   -3.084595    0.283924
  20 C     6.0000    0    12.011   -3.471713   -2.113505    1.234806
  21 H     1.0000    0     1.008   -4.770933    1.429629    0.066370
  22 C     6.0000    0    12.011   -3.783586   -4.903530    1.717920
  23 C     6.0000    0    12.011   -1.768388   -6.470572    0.315310
  24 H     1.0000    0     1.008   -5.668925   -5.581285    1.212291
  25 H     1.0000    0     1.008   -3.547822   -5.227638    3.760969
  26 C     6.0000    0    12.011    0.926243   -5.505083    0.783445
  27 H     1.0000    0     1.008   -2.181005   -6.438879   -1.716675
  28 H     1.0000    0     1.008   -1.910711   -8.450043    0.913651
  29 C     6.0000    0    12.011    1.181020   -2.678926    0.182080
  30 H     1.0000    0     1.008    2.249635   -6.636452   -0.334805
  31 H     1.0000    0     1.008    1.420884   -5.794697    2.782535
  32 C     6.0000    0    12.011   -0.835499   -1.249021    1.793817
  33 H     1.0000    0     1.008   -0.432042   -1.818668    3.763771
  34 C     6.0000    0    12.011   -0.091005    1.521464    1.535364
  35 H     1.0000    0     1.008  -11.965374    1.137553    2.768951
  36 C     6.0000    0    12.011    2.832484    1.437223    1.551274
  37 H     1.0000    0     1.008   -0.867161    2.687061    3.059087
  38 H     1.0000    0     1.008   -0.789197    2.305279   -0.249581
  39 C     6.0000    0    12.011    3.628641   -1.376753    1.162275
  40 H     1.0000    0     1.008    3.587629    2.176509    3.326624
  41 H     1.0000    0     1.008    3.626291    2.616004    0.043541
  42 H     1.0000    0     1.008    4.017521   -2.228788    3.021052
  43 C     6.0000    0    12.011    6.029574   -1.603161   -0.448982
  44 C     6.0000    0    12.011    0.777941   -2.173909   -2.646224
  45 H     1.0000    0     1.008    1.187924   -0.207406   -3.140245
  46 H     1.0000    0     1.008   -1.176186   -2.553372   -3.207531
  47 H     1.0000    0     1.008    2.011744   -3.377190   -3.792102
  48 H     1.0000    0     1.008    5.640283   -0.677225   -2.272207
  49 C     6.0000    0    12.011    6.829004   -4.342004   -1.019640
  50 C     6.0000    0    12.011    8.297901   -0.276060    0.682070
  51 C     6.0000    0    12.011    8.674874    0.278091    3.110406
  52 H     1.0000    0     1.008    9.799845    0.116487   -0.675735
  53 H     1.0000    0     1.008    7.183781   -0.136426    4.466391
  54 C     6.0000    0    12.011   11.040819    1.409034    4.232464
  55 C     6.0000    0    12.011   12.708876    2.731608    2.274580
  56 C     6.0000    0    12.011   12.538731   -0.616605    5.746079
  57 H     1.0000    0     1.008   10.429014    2.836243    5.624861
  58 H     1.0000    0     1.008   13.200746   -2.023750    4.361607
  59 C     6.0000    0    12.011   10.874544   -1.972940    7.688673
  60 C     6.0000    0    12.011   14.843866    0.523539    7.074097
  61 H     1.0000    0     1.008   13.642926    1.362245    1.030343
  62 H     1.0000    0     1.008   14.180402    3.855519    3.189315
  63 H     1.0000    0     1.008   11.585086    4.004854    1.092910
  64 H     1.0000    0     1.008    9.352293   -3.048776    6.795008
  65 H     1.0000    0     1.008   10.015048   -0.608226    8.994227
  66 H     1.0000    0     1.008   12.005555   -3.293791    8.811535
  67 H     1.0000    0     1.008   16.228658    1.280651    5.740560
  68 H     1.0000    0     1.008   15.798052   -0.912604    8.220154
  69 H     1.0000    0     1.008   14.261857    2.059120    8.342091
  70 H     1.0000    0     1.008    5.484855   -5.303139   -2.258757
  71 H     1.0000    0     1.008    6.995674   -5.424343    0.739563
  72 H     1.0000    0     1.008    8.676608   -4.370704   -1.954542

--------------------------------
INTERNAL COORDINATES (ANGSTROEM)
--------------------------------
 C      0   0   0     0.000000000000     0.00000000     0.00000000
 C      1   0   0     1.510125249300     0.00000000     0.00000000
 C      2   1   0     1.534172229238   110.38461142     0.00000000
 H      2   1   3     1.095912991298   110.78832530   237.85276829
 H      2   1   3     1.100081901503   109.82394951   118.67500572
 C      1   2   3     1.480112019858   113.84612524   305.86036618
 C      6   1   2     1.512539210506   114.38710239    50.03731224
 C      3   2   1     1.529393265248   110.18823080    56.88932889
 H      7   6   1     1.095176666409   110.22812693   188.68471012
 H      7   6   1     1.100703025348   108.28710877    72.00046924
 H      8   3   2     1.098536123816   108.29429820    64.53613991
 H      8   3   2     1.096186904960   109.51547194   181.48972760
 O      3   2   1     1.437401647768   110.64159214   292.86178916
 H      3   2   1     1.097075960890   109.48090870   177.33656596
 C      1   2   3     1.354313066490   121.31097270   122.55004870
 C      6   1   2     1.337369946880   123.10785977   232.03283655
 H     16   6   1     1.086699979303   121.32034113   358.92270398
 H     16   6   1     1.087499742012   120.97694287   178.36725043
 C     15   1   2     1.444740359815   125.98325687   185.06378073
 H     15   1   2     1.089395073237   116.31772829     3.09350660
 C     19  15   1     1.350007061233   126.59414285   185.24881733
 H     19  15   1     1.087720359764   115.71185281     5.92692849
 C     21  19  15     1.507449822204   125.77283290     1.82945770
 C     23  21  19     1.541347040296   111.68549821   125.74312226
 H     23  21  19     1.093428534920   112.31188175     2.02067873
 H     23  21  19     1.101741518545   107.84789498   244.36438123
 C     24  23  21     1.534828926545   112.70349531    50.69687049
 H     24  23  21     1.097353107932   109.02453919   288.57391692
 H     24  23  21     1.096888045144   109.10272602   172.65516956
 C     27  24  23     1.534952921041   111.86825817   306.34138509
 H     27  24  23     1.095006208066   108.96236688   182.75467581
 H     27  24  23     1.100498516207   109.25473565    66.25466050
 C     21  19  15     1.497622894088   122.64242446   180.36748138
 H     33  21  19     1.105966954723   106.42394816   126.11738932
 C     33  21  19     1.524237367468   121.12084048     3.47059964
 H     13   3   2     0.967908998149   107.59930113    41.90687100
 C     35  33  21     1.547709014416   103.30689123   195.07938476
 H     35  33  21     1.095123911789   112.25537295    73.30404599
 H     35  33  21     1.095775942655   110.74912015   313.57459016
 C     30  27  24     1.556112250961   115.81415404   166.48677166
 H     37  35  33     1.093318052688   111.08232423   252.12259103
 H     37  35  33     1.096420482675   111.26078452   133.83159756
 H     40  30  27     1.101431874662   105.77832425   322.36019789
 C     40  30  27     1.534786384635   117.98774816    83.31620487
 C     30  27  24     1.535235866666   111.07036002   294.73806205
 H     45  30  27     1.094677856317   111.76239525   187.17839763
 H     45  30  27     1.094472273283   111.34036505    67.23579736
 H     45  30  27     1.095178177558   110.83826306   307.19568642
 H     44  40  30     1.101534474371   107.28047982    62.44636698
 C     44  40  30     1.539714758031   114.19738245   303.61091074
 C     44  40  30     1.514018607363   113.60828287   180.17955883
 C     51  44  40     1.333065037757   126.99549228    23.76029766
 H     51  44  40     1.091383781152   113.91555468   199.12790040
 H     52  51  44     1.088856172124   118.84834736   355.92049760
 C     52  51  44     1.509384035573   126.19631763   174.61526072
 C     55  52  51     1.530495787575   113.16665870    19.81893822
 C     55  52  51     1.555275213774   110.61412474   253.60645407
 H     55  52  51     1.103686943982   106.89556885   138.52526761
 H     57  55  52     1.101792275462   106.58266761    65.90023068
 C     57  55  52     1.532133481447   112.05289042   307.72270131
 C     57  55  52     1.531619208859   111.75937410   184.33903436
 H     56  55  52     1.096780611580   111.35687486   288.21014334
 H     56  55  52     1.092889198930   111.09767096   168.13597532
 H     56  55  52     1.094821717546   110.78075003    48.38895725
 H     60  57  55     1.093914072328   112.14860208    63.66619400
 H     60  57  55     1.098045511092   110.61755569   303.00951658
 H     60  57  55     1.095365405439   110.41561189   183.83943799
 H     61  57  55     1.093386645823   112.45676618   296.64767145
 H     61  57  55     1.095591600484   110.35242384   176.48155916
 H     61  57  55     1.097906146979   110.39913248    57.51363162
 H     50  44  40     1.092969287369   112.14116479    67.47969766
 H     50  44  40     1.096563741093   110.31915789   306.31743413
 H     50  44  40     1.095857564319   110.28669715   187.44978821

---------------------------
INTERNAL COORDINATES (A.U.)
---------------------------
 C      0   0   0     0.000000000000     0.00000000     0.00000000
 C      1   0   0     2.853723149097     0.00000000     0.00000000
 C      2   1   0     2.899165355527   110.38461142     0.00000000
 H      2   1   3     2.070975420160   110.78832530   237.85276829
 H      2   1   3     2.078853518725   109.82394951   118.67500572
 C      1   2   3     2.797006365056   113.84612524   305.86036618
 C      6   1   2     2.858284874674   114.38710239    50.03731224
 C      3   2   1     2.890134422383   110.18823080    56.88932889
 H      7   6   1     2.069583967773   110.22812693   188.68471012
 H      7   6   1     2.080027272687   108.28710877    72.00046924
 H      8   3   2     2.075932422232   108.29429820    64.53613991
 H      8   3   2     2.071493041965   109.51547194   181.48972760
 O      3   2   1     2.716295458729   110.64159214   292.86178916
 H      3   2   1     2.073173114191   109.48090870   177.33656596
 C      1   2   3     2.559280795258   121.31097270   122.55004870
 C      6   1   2     2.527262939340   123.10785977   232.03283655
 H     16   6   1     2.053565350620   121.32034113   358.92270398
 H     16   6   1     2.055076683113   120.97694287   178.36725043
 C     15   1   2     2.730163614673   125.98325687   185.06378073
 H     15   1   2     2.058658340062   116.31772829     3.09350660
 C     19  15   1     2.551143624590   126.59414285   185.24881733
 H     19  15   1     2.055493590243   115.71185281     5.92692849
 C     21  19  15     2.848667324593   125.77283290     1.82945770
 C     23  21  19     2.912723783490   111.68549821   125.74312226
 H     23  21  19     2.066280478013   112.31188175     2.02067873
 H     23  21  19     2.081989740420   107.84789498   244.36438123
 C     24  23  21     2.900406333590   112.70349531    50.69687049
 H     24  23  21     2.073696846198   109.02453919   288.57391692
 H     24  23  21     2.072818004895   109.10272602   172.65516956
 C     27  24  23     2.900640649230   111.86825817   306.34138509
 H     27  24  23     2.069261848189   108.96236688   182.75467581
 H     27  24  23     2.079640806418   109.25473565    66.25466050
 C     21  19  15     2.830097121717   122.64242446   180.36748138
 H     33  21  19     2.089974657593   106.42394816   126.11738932
 C     33  21  19     2.880391187603   121.12084048     3.47059964
 H     13   3   2     1.829082929059   107.59930113    41.90687100
 C     35  33  21     2.924746172247   103.30689123   195.07938476
 H     35  33  21     2.069484275990   112.25537295    73.30404599
 H     35  33  21     2.070716435757   110.74912015   313.57459016
 C     30  27  24     2.940625987957   115.81415404   166.48677166
 H     37  35  33     2.066071696853   111.08232423   252.12259103
 H     37  35  33     2.071934439878   111.26078452   133.83159756
 H     40  30  27     2.081404598282   105.77832425   322.36019789
 C     40  30  27     2.900325941030   117.98774816    83.31620487
 C     30  27  24     2.901175338972   111.07036002   294.73806205
 H     45  30  27     2.068641353307   111.76239525   187.17839763
 H     45  30  27     2.068252857675   111.34036505    67.23579736
 H     45  30  27     2.069586823432   110.83826306   307.19568642
 H     44  40  30     2.081598483634   107.28047982    62.44636698
 C     44  40  30     2.909639217035   114.19738245   303.61091074
 C     44  40  30     2.861080529577   113.60828287   180.17955883
 C     51  44  40     2.519127840067   126.99549228    23.76029766
 H     51  44  40     2.062416453380   113.91555468   199.12790040
 H     52  51  44     2.057639964545   118.84834736   355.92049760
 C     52  51  44     2.852322458147   126.19631763   174.61526072
 C     55  52  51     2.892217887638   113.16665870    19.81893822
 C     55  52  51     2.939044216909   110.61412474   253.60645407
 H     55  52  51     2.085666061711   106.89556885   138.52526761
 H     57  55  52     2.082085657094   106.58266761    65.90023068
 C     57  55  52     2.895312680546   112.05289042   307.72270131
 C     57  55  52     2.894340846196   111.75937410   184.33903436
 H     56  55  52     2.072614984881   111.35687486   288.21014334
 H     56  55  52     2.065261280699   111.09767096   168.13597532
 H     56  55  52     2.068913211632   110.78075003    48.38895725
 H     60  57  55     2.067198010743   112.14860208    63.66619400
 H     60  57  55     2.075005298546   110.61755569   303.00951658
 H     60  57  55     2.069940632851   110.41561189   183.83943799
 H     61  57  55     2.066201319091   112.45676618   296.64767145
 H     61  57  55     2.070368079540   110.35242384   176.48155916
 H     61  57  55     2.074741938539   110.39913248    57.51363162
 H     50  44  40     2.065412625915   112.14116479    67.47969766
 H     50  44  40     2.072205159054   110.31915789   306.31743413
 H     50  44  40     2.070870678349   110.28669715   187.44978821

---------------------
BASIS SET INFORMATION
---------------------
There are 3 groups of distinct atoms

 Group   1 Type C   : 8s5p1d contracted to 3s3p1d pattern {521/311/1}
 Group   2 Type H   : 4s2p contracted to 2s1p pattern {31/2}
 Group   3 Type O   : 8s5p1d contracted to 3s3p1d pattern {521/311/1}

Atom   0C    basis set group =>   1
Atom   1C    basis set group =>   1
Atom   2C    basis set group =>   1
Atom   3H    basis set group =>   2
Atom   4H    basis set group =>   2
Atom   5C    basis set group =>   1
Atom   6C    basis set group =>   1
Atom   7C    basis set group =>   1
Atom   8H    basis set group =>   2
Atom   9H    basis set group =>   2
Atom  10H    basis set group =>   2
Atom  11H    basis set group =>   2
Atom  12O    basis set group =>   3
Atom  13H    basis set group =>   2
Atom  14C    basis set group =>   1
Atom  15C    basis set group =>   1
Atom  16H    basis set group =>   2
Atom  17H    basis set group =>   2
Atom  18C    basis set group =>   1
Atom  19H    basis set group =>   2
Atom  20C    basis set group =>   1
Atom  21H    basis set group =>   2
Atom  22C    basis set group =>   1
Atom  23C    basis set group =>   1
Atom  24H    basis set group =>   2
Atom  25H    basis set group =>   2
Atom  26C    basis set group =>   1
Atom  27H    basis set group =>   2
Atom  28H    basis set group =>   2
Atom  29C    basis set group =>   1
Atom  30H    basis set group =>   2
Atom  31H    basis set group =>   2
Atom  32C    basis set group =>   1
Atom  33H    basis set group =>   2
Atom  34C    basis set group =>   1
Atom  35H    basis set group =>   2
Atom  36C    basis set group =>   1
Atom  37H    basis set group =>   2
Atom  38H    basis set group =>   2
Atom  39C    basis set group =>   1
Atom  40H    basis set group =>   2
Atom  41H    basis set group =>   2
Atom  42H    basis set group =>   2
Atom  43C    basis set group =>   1
Atom  44C    basis set group =>   1
Atom  45H    basis set group =>   2
Atom  46H    basis set group =>   2
Atom  47H    basis set group =>   2
Atom  48H    basis set group =>   2
Atom  49C    basis set group =>   1
Atom  50C    basis set group =>   1
Atom  51C    basis set group =>   1
Atom  52H    basis set group =>   2
Atom  53H    basis set group =>   2
Atom  54C    basis set group =>   1
Atom  55C    basis set group =>   1
Atom  56C    basis set group =>   1
Atom  57H    basis set group =>   2
Atom  58H    basis set group =>   2
Atom  59C    basis set group =>   1
Atom  60C    basis set group =>   1
Atom  61H    basis set group =>   2
Atom  62H    basis set group =>   2
Atom  63H    basis set group =>   2
Atom  64H    basis set group =>   2
Atom  65H    basis set group =>   2
Atom  66H    basis set group =>   2
Atom  67H    basis set group =>   2
Atom  68H    basis set group =>   2
Atom  69H    basis set group =>   2
Atom  70H    basis set group =>   2
Atom  71H    basis set group =>   2
Atom  72H    basis set group =>   2

-------------------------
BASIS SET IN INPUT FORMAT
-------------------------

 # Basis set for element : H 
 NewGTO H 
 S 3 
   1      12.2518000000      0.0372173893
   2       1.8687100000      0.2538082070
   3       0.4182080000      0.7973867639
 S 1 
   1       0.1061000000      1.0000000000
 P 2 
   1       9.0000000000      0.0402678705
   2       1.0000000000      0.9880231245
  end;

 # Basis set for element : C 
 NewGTO C 
 S 5 
   1    1243.2000000000      0.0056300977
   2     187.1450000000      0.0419506039
   3      42.5126000000      0.1846643605
   4      11.7393000000      0.4665574214
   5       3.5054800000      0.4482347783
 S 2 
   1       5.3908900000     -0.1481148174
   2       0.4933410000      1.0519817143
 S 1 
   1       0.1497410000      1.0000000000
 P 3 
   1      59.6736000000      0.0113906672
   2       9.1805600000      0.1672414929
   3       1.9365800000      0.9041087436
 P 1 
   1       0.5262960000      1.0000000000
 P 1 
   1       0.1363190000      1.0000000000
 D 1 
   1       0.8000000000      1.0000000000
  end;

 # Basis set for element : O 
 NewGTO O 
 S 5 
   1    2288.6400000000      0.0054511382
   2     344.4160000000      0.0407189228
   3      78.2538000000      0.1813694209
   4      21.7195000000      0.4655368202
   5       6.5590700000      0.4512113212
 S 2 
   1      10.4656000000     -0.1502112012
   2       0.9643510000      1.0528679834
 S 1 
   1       0.2851270000      1.0000000000
 P 3 
   1     110.8840000000      0.0113058003
   2      17.0590000000      0.1699226452
   3       3.6899900000      0.9008060328
 P 1 
   1       0.9929960000      1.0000000000
 P 1 
   1       0.2449240000      1.0000000000
 D 1 
   1       1.0000000000      1.0000000000
  end;

---------------------------------
AUXILIARY/J BASIS SET INFORMATION
---------------------------------
There are 3 groups of distinct atoms

 Group   1 Type C   : 12s5p4d2f1g contracted to 6s4p3d1f1g pattern {711111/2111/211/2/1}
 Group   2 Type H   : 5s2p1d contracted to 3s1p1d pattern {311/2/1}
 Group   3 Type O   : 12s5p4d2f1g contracted to 6s4p3d1f1g pattern {711111/2111/211/2/1}

Atom   0C    basis set group =>   1
Atom   1C    basis set group =>   1
Atom   2C    basis set group =>   1
Atom   3H    basis set group =>   2
Atom   4H    basis set group =>   2
Atom   5C    basis set group =>   1
Atom   6C    basis set group =>   1
Atom   7C    basis set group =>   1
Atom   8H    basis set group =>   2
Atom   9H    basis set group =>   2
Atom  10H    basis set group =>   2
Atom  11H    basis set group =>   2
Atom  12O    basis set group =>   3
Atom  13H    basis set group =>   2
Atom  14C    basis set group =>   1
Atom  15C    basis set group =>   1
Atom  16H    basis set group =>   2
Atom  17H    basis set group =>   2
Atom  18C    basis set group =>   1
Atom  19H    basis set group =>   2
Atom  20C    basis set group =>   1
Atom  21H    basis set group =>   2
Atom  22C    basis set group =>   1
Atom  23C    basis set group =>   1
Atom  24H    basis set group =>   2
Atom  25H    basis set group =>   2
Atom  26C    basis set group =>   1
Atom  27H    basis set group =>   2
Atom  28H    basis set group =>   2
Atom  29C    basis set group =>   1
Atom  30H    basis set group =>   2
Atom  31H    basis set group =>   2
Atom  32C    basis set group =>   1
Atom  33H    basis set group =>   2
Atom  34C    basis set group =>   1
Atom  35H    basis set group =>   2
Atom  36C    basis set group =>   1
Atom  37H    basis set group =>   2
Atom  38H    basis set group =>   2
Atom  39C    basis set group =>   1
Atom  40H    basis set group =>   2
Atom  41H    basis set group =>   2
Atom  42H    basis set group =>   2
Atom  43C    basis set group =>   1
Atom  44C    basis set group =>   1
Atom  45H    basis set group =>   2
Atom  46H    basis set group =>   2
Atom  47H    basis set group =>   2
Atom  48H    basis set group =>   2
Atom  49C    basis set group =>   1
Atom  50C    basis set group =>   1
Atom  51C    basis set group =>   1
Atom  52H    basis set group =>   2
Atom  53H    basis set group =>   2
Atom  54C    basis set group =>   1
Atom  55C    basis set group =>   1
Atom  56C    basis set group =>   1
Atom  57H    basis set group =>   2
Atom  58H    basis set group =>   2
Atom  59C    basis set group =>   1
Atom  60C    basis set group =>   1
Atom  61H    basis set group =>   2
Atom  62H    basis set group =>   2
Atom  63H    basis set group =>   2
Atom  64H    basis set group =>   2
Atom  65H    basis set group =>   2
Atom  66H    basis set group =>   2
Atom  67H    basis set group =>   2
Atom  68H    basis set group =>   2
Atom  69H    basis set group =>   2
Atom  70H    basis set group =>   2
Atom  71H    basis set group =>   2
Atom  72H    basis set group =>   2

-------------------------------------
AUXILIARY/J BASIS SET IN INPUT FORMAT
-------------------------------------

 # Auxiliary/J basis set for element : H 
 NewAuxJGTO H 
 S 3 
   1      15.6752927000      0.1007184237
   2       3.6063578000      0.3404257499
   3       1.2080016000      0.6491996172
 S 1 
   1       0.4726794000      1.0000000000
 S 1 
   1       0.2018100000      1.0000000000
 P 2 
   1       2.0281365000      0.5596620919
   2       0.5358730000      0.5596620919
 D 1 
   1       2.2165124000      1.0000000000
  end;

 # Auxiliary/J basis set for element : C 
 NewAuxJGTO C 
 S 7 
   1    1861.0916331000      0.0134602335
   2     642.9939764000      0.0299160374
   3     235.1105725000      0.1008649584
   4      90.7028894000      0.2370970548
   5      36.7794552000      0.3924037254
   6      15.6046273000      0.3195862154
   7       6.8907294000      0.0530104441
 S 1 
   1       3.1478850000     -1.0000000000
 S 1 
   1       1.4777287000      1.0000000000
 S 1 
   1       0.7076466000      1.0000000000
 S 1 
   1       0.3430122000      1.0000000000
 S 1 
   1       0.1669453000      1.0000000000
 P 2 
   1      13.5472892000     -0.6769313712
   2       5.4669419000     -0.3779500978
 P 1 
   1       2.1751721000      1.0000000000
 P 1 
   1       0.8582194000      1.0000000000
 P 1 
   1       0.3376720000      1.0000000000
 D 2 
   1       5.9287253000     -0.3533329857
   2       1.9809209000     -0.7456525731
 D 1 
   1       0.8055417000     -1.0000000000
 D 1 
   1       0.3531244000     -1.0000000000
 F 2 
   1       1.6755626000      0.6311076882
   2       0.5997536000      0.4968166032
 G 1 
   1       1.0024600000     -1.0000000000
  end;

 # Auxiliary/J basis set for element : O 
 NewAuxJGTO O 
 S 7 
   1    2876.8216605000      0.0168151159
   2    1004.7443032000      0.0340137548
   3     369.7579954000      0.1194951309
   4     142.9442404000      0.2664627624
   5      57.8366425000      0.4202764046
   6      24.3864983000      0.2765077335
   7      10.6622662000      0.0057008815
 S 1 
   1       4.8070437000     -1.0000000000
 S 1 
   1       2.2210770000      1.0000000000
 S 1 
   1       1.0447795000      1.0000000000
 S 1 
   1       0.4968425000      1.0000000000
 S 1 
   1       0.2371384000      1.0000000000
 P 2 
   1      64.2613382000     -0.2731534179
   2      16.3006076000     -0.8168011598
 P 1 
   1       4.3550542000      1.0000000000
 P 1 
   1       1.2019554000      1.0000000000
 P 1 
   1       0.3354196000      1.0000000000
 D 2 
   1       9.2146611000     -0.4661230638
   2       2.8435251000     -0.6600908911
 D 1 
   1       0.9955759000     -1.0000000000
 D 1 
   1       0.3649441000     -1.0000000000
 F 2 
   1       2.6420115000      0.5931563945
   2       0.7345613000      0.5931563945
 G 1 
   1       1.3931000000     -1.0000000000
  end;



           ************************************************************
           *        Program running with 4 parallel MPI-processes     *
           *              working on a common directory               *
           ************************************************************
------------------------------------------------------------------------------
                           ORCA GTO INTEGRAL CALCULATION
                           -- RI-GTO INTEGRALS CHOSEN --
------------------------------------------------------------------------------
------------------------------------------------------------------------------
                   ___                                                        
                  /   \      - P O W E R E D   B Y -                         
                 /     \                                                     
                 |  |  |   _    _      __       _____    __    __             
                 |  |  |  | |  | |    /  \     |  _  \  |  |  /  |          
                  \  \/   | |  | |   /    \    | | | |  |  | /  /          
                 / \  \   | |__| |  /  /\  \   | |_| |  |  |/  /          
                |  |  |   |  __  | /  /__\  \  |    /   |      \           
                |  |  |   | |  | | |   __   |  |    \   |  |\   \          
                \     /   | |  | | |  |  |  |  | |\  \  |  | \   \       
                 \___/    |_|  |_| |__|  |__|  |_| \__\ |__|  \__/        
                                                                              
                      - O R C A' S   B I G   F R I E N D -                    
                                      &                                       
                       - I N T E G R A L  F E E D E R -                       
                                                                              
 v1 FN, 2020, v2 2021                                                         
------------------------------------------------------------------------------


Reading SHARK input file inpS.SHARKINP.tmp ... ok
----------------------
SHARK INTEGRAL PACKAGE
----------------------

Number of atoms                             ...     73
Number of basis functions                   ...    713
Number of shells                            ...    335
Maximum angular momentum                    ...      2
Integral batch strategy                     ... SHARK/LIBINT Hybrid
RI-J (if used) integral strategy            ... SPLIT-RIJ (Revised 2003 algorithm where possible)
Printlevel                                  ...      1
Contraction scheme used                     ... SEGMENTED contraction
Coulomb Range Separation                    ... NOT USED
Exchange Range Separation                   ... NOT USED
Finite Nucleus Model                        ... NOT USED
Auxiliary Coulomb fitting basis             ... AVAILABLE
   # of basis functions in Aux-J            ...   1905
   # of shells in Aux-J                     ...    655
   Maximum angular momentum in Aux-J        ...      4
Auxiliary J/K fitting basis                 ... NOT available
Auxiliary Correlation fitting basis         ... NOT available
Auxiliary 'external' fitting basis          ... NOT available
Integral threshold                          ...     3.000000e-11
Primitive cut-off                           ...     1.000000e-12
Primitive pair pre-selection threshold      ...     1.000000e-12

Calculating pre-screening integrals         ... done (  0.0 sec) Dimension = 335
Organizing shell pair data                  ... done (  0.2 sec)
Shell pair information
Total number of shell pairs                 ...     56280
Shell pairs after pre-screening             ...     31814
Total number of primitive shell pairs       ...    225367
Primitive shell pairs kept                  ...     74897
          la=0 lb=0:   9718 shell pairs
          la=1 lb=0:  13069 shell pairs
          la=1 lb=1:   4278 shell pairs
          la=2 lb=0:   2782 shell pairs
          la=2 lb=1:   1771 shell pairs
          la=2 lb=2:    196 shell pairs

Calculating one electron integrals          ... done (  0.1 sec)
Calculating RI/J V-Matrix + Cholesky decomp.... done (  0.2 sec)
Calculating Nuclear repulsion               ... done (  0.0 sec) ENN=   2792.485175336531 Eh

SHARK setup successfully completed in   0.6 seconds

Maximum memory used throughout the entire GTOINT-calculation: 61.3 MB


           ************************************************************
           *        Program running with 4 parallel MPI-processes     *
           *              working on a common directory               *
           ************************************************************
-------------------------------------------------------------------------------
                                 ORCA SCF
-------------------------------------------------------------------------------

------------
SCF SETTINGS
------------
Hamiltonian:
 Density Functional     Method          .... DFT(GTOs)
 Exchange Functional    Exchange        .... revTPSS
 Correlation Functional Correlation     .... revTPSS
 LDA part of GGA corr.  LDAOpt          .... PW91-LDA
 Gradients option       PostSCFGGA      .... off
   Density functional embedding theory  .... OFF
 RI-approximation to the Coulomb term is turned on
   Number of AuxJ basis functions       .... 1905


General Settings:
 Integral files         IntName         .... inpS
 Hartree-Fock type      HFTyp           .... RHF
 Total Charge           Charge          ....    0
 Multiplicity           Mult            ....    1
 Number of Electrons    NEL             ....  220
 Basis Dimension        Dim             ....  713
 Nuclear Repulsion      ENuc            ....   2792.4851753365 Eh

Convergence Acceleration:
 DIIS                   CNVDIIS         .... on
   Start iteration      DIISMaxIt       ....    12
   Startup error        DIISStart       ....  0.200000
   # of expansion vecs  DIISMaxEq       ....     5
   Bias factor          DIISBfac        ....   1.050
   Max. coefficient     DIISMaxC        ....  10.000
 Trust-Rad. Augm. Hess. CNVTRAH         .... auto
   Auto Start mean grad. ratio tolernc. ....  1.125000
   Auto Start start iteration           ....    20
   Auto Start num. interpolation iter.  ....    10
   Max. Number of Micro iterations      ....    16
   Max. Number of Macro iterations      .... Maxiter - #DIIS iter
   Number of Davidson start vectors     ....     2
   Converg. threshold I  (grad. norm)   ....   1.000e-04
   Converg. threshold II (energy diff.) ....   1.000e-07
   Grad. Scal. Fac. for Micro threshold ....   0.100
   Minimum threshold for Micro iter.    ....   0.010
   NR start threshold (gradient norm)   ....   0.001
   Initial trust radius                 ....   0.400
   Minimum AH scaling param. (alpha)    ....   1.000
   Maximum AH scaling param. (alpha)    .... 1000.000
   Orbital update algorithm             .... Taylor
   White noise on init. David. guess    .... on
   Maximum white noise                  ....   0.010
   Quad. conv. algorithm                .... NR
 SOSCF                  CNVSOSCF        .... off
 Level Shifting         CNVShift        .... on
   Level shift para.    LevelShift      ....    0.2500
   Turn off err/grad.   ShiftErr        ....    0.0010
 Zerner damping         CNVZerner       .... off
 Static damping         CNVDamp         .... on
   Fraction old density DampFac         ....    0.7000
   Max. Damping (<1)    DampMax         ....    0.9800
   Min. Damping (>=0)   DampMin         ....    0.0000
   Turn off err/grad.   DampErr         ....    0.1000
 Fernandez-Rico         CNVRico         .... off

SCF Procedure:
 Maximum # iterations   MaxIter         ....   125
 SCF integral mode      SCFMode         .... Direct
   Integral package                     .... SHARK and LIBINT hybrid scheme
 Reset frequency        DirectResetFreq ....    20
 Integral Threshold     Thresh          ....  3.000e-11 Eh
 Primitive CutOff       TCut            ....  1.000e-12 Eh

Convergence Tolerance:
 Convergence Check Mode ConvCheckMode   .... Total+1el-Energy
 Convergence forced     ConvForced      .... 0
 Energy Change          TolE            ....  1.000e-07 Eh
 1-El. energy change                    ....  1.000e-04 Eh
 DIIS Error             TolErr          ....  1.000e-07


Diagonalization of the overlap matrix:
Smallest eigenvalue                        ... 5.024e-04
Time for diagonalization                   ...    0.078 sec
Threshold for overlap eigenvalues          ... 1.000e-08
Number of eigenvalues below threshold      ... 0
Time for construction of square roots      ...    0.069 sec
Total time needed                          ...    0.150 sec

Time for model grid setup =    0.757 sec

------------------------------
INITIAL GUESS: MODEL POTENTIAL
------------------------------
Loading Hartree-Fock densities                     ... done
Calculating cut-offs                               ... done
Initializing the effective Hamiltonian             ... done
Setting up the integral package (SHARK)            ... done
Starting the Coulomb interaction                   ... done (   0.8 sec)
Reading the grid                                   ... done
Mapping shells                                     ... done
Starting the XC term evaluation                    ... done (   0.3 sec)
  promolecular density results
     # of electrons  =    219.972452766
     EX              =   -164.431070927
     EC              =     -7.328968945
     EX+EC           =   -171.760039872
Transforming the Hamiltonian                       ... done (   0.0 sec)
Diagonalizing the Hamiltonian                      ... done (   0.1 sec)
Back transforming the eigenvectors                 ... done (   0.0 sec)
Now organizing SCF variables                       ... done
                      ------------------
                      INITIAL GUESS DONE (   2.0 sec)
                      ------------------
-------------------
DFT GRID GENERATION
-------------------

General Integration Accuracy     IntAcc      ... 4.388
Radial Grid Type                 RadialGrid  ... OptM3 with GC (2021)
Angular Grid (max. ang.)         AngularGrid ... 4 (Lebedev-302)
Angular grid pruning method      GridPruning ... 4 (adaptive)
Weight generation scheme         WeightScheme... Becke
Basis function cutoff            BFCut       ... 1.0000e-11
Integration weight cutoff        WCut        ... 1.0000e-14
Angular grids for H and He will be reduced by one unit
Partially contracted basis set               ... off
Rotationally invariant grid construction     ... off

Total number of grid points                  ...   309822
Total number of batches                      ...     4878
Average number of points per batch           ...       63
Average number of grid points per atom       ...     4244
Time for grid setup =    3.986 sec


--------------------
CPCM SOLVATION MODEL
--------------------
CPCM parameters:
  Epsilon                                         ...       4.9000
  Refrac                                          ...       1.4500
  Rsolv                                           ...       1.3000
  Surface type                                    ... GAUSSIAN VDW
  Epsilon function type                           ...         CPCM
Radii:
 Radius for C  used is    3.8550 Bohr (=   2.0400 Ang.)
 Radius for H  used is    2.4944 Bohr (=   1.3200 Ang.)
 Radius for O  used is    3.4469 Bohr (=   1.8240 Ang.)
Calculating surface                               ...        done! (  0.0s)
GEPOL surface points                              ...         3620
GEPOL Volume                                      ...    3589.5513
GEPOL Surface-area                                ...    1779.8159
Calculating surface distance matrix               ...        done! (  0.1s)
Performing Cholesky decomposition & store         ...        done! (  0.6s)
Overall time for CPCM initialization              ...                 0.7s
--------------
SCF ITERATIONS
--------------
ITER       Energy         Delta-E        Max-DP      RMS-DP      [F,P]     Damp
               ***  Starting incremental Fock matrix formation  ***

  HOMO= 109 E= -1.940 eV LUMO=  7.771 eV gap=   9.711 eV
  0  -1167.5220395458   0.000000000000 0.05591962  0.00083263  0.2637315 0.7000

  HOMO= 109 E= -3.445 eV LUMO=  6.673 eV gap=  10.117 eV
  1  -1167.8950226742  -0.372983128340 0.02896471  0.00061537  0.1017876 0.7000
                               ***Turning on DIIS***

  HOMO= 109 E= -4.415 eV LUMO=  5.791 eV gap=  10.206 eV
  2  -1168.0411440809  -0.146121406666 0.04808554  0.00101414  0.0321471 0.0000

  HOMO= 109 E= -5.034 eV LUMO=  5.209 eV gap=  10.243 eV
  3  -1168.2383671324  -0.197223051513 0.02318848  0.00047496  0.0527910 0.0000

  HOMO= 109 E= -5.060 eV LUMO=  5.183 eV gap=  10.243 eV
  4  -1168.3052570392  -0.066889906853 0.00749694  0.00015182  0.0104813 0.0000

  HOMO= 109 E= -5.015 eV LUMO=  5.235 eV gap=  10.250 eV
  5  -1168.3083094211  -0.003052381836 0.00348054  0.00005719  0.0105119 0.0000

  HOMO= 109 E= -4.995 eV LUMO=  5.253 eV gap=  10.248 eV
  6  -1168.3085854215  -0.000276000444 0.00125219  0.00001927  0.0029733 0.0000

  HOMO= 109 E= -4.996 eV LUMO= -1.552 eV gap=   3.444 eV
  7  -1168.3086048703  -0.000019448820 0.00071290  0.00001169  0.0004983 0.0000

  HOMO= 109 E= -4.995 eV LUMO= -1.550 eV gap=   3.445 eV
  8  -1168.3086078932  -0.000003022832 0.00025416  0.00000286  0.0003716 0.0000

  HOMO= 109 E= -4.993 eV LUMO= -1.548 eV gap=   3.445 eV
  9  -1168.3086085099  -0.000000616757 0.00015396  0.00000151  0.0002327 0.0000

  HOMO= 109 E= -4.993 eV LUMO= -1.549 eV gap=   3.444 eV
 10  -1168.3086087745  -0.000000264550 0.00006942  0.00000070  0.0000904 0.0000

  HOMO= 109 E= -4.993 eV LUMO= -1.549 eV gap=   3.445 eV
 11  -1168.3086088018  -0.000000027333 0.00002937  0.00000028  0.0000263 0.0000

  HOMO= 109 E= -4.993 eV LUMO= -1.549 eV gap=   3.445 eV
 12  -1168.3086087964   0.000000005360 0.00001418  0.00000013  0.0000167 0.0000

  HOMO= 109 E= -4.993 eV LUMO= -1.549 eV gap=   3.445 eV
 13  -1168.3086088218  -0.000000025398 0.00000637  0.00000006  0.0000072 0.0000
                 **** Energy Check signals convergence ****

               *****************************************************
               *                     SUCCESS                       *
               *           SCF CONVERGED AFTER  14 CYCLES          *
               *****************************************************


----------------
TOTAL SCF ENERGY
----------------

Total Energy       :        -1168.30860883 Eh          -31791.29348 eV

Components:
Nuclear Repulsion  :         2792.48517534 Eh           75987.38474 eV
Electronic Energy  :        -3960.79378416 Eh         -107778.67823 eV
One Electron Energy:        -7131.13265754 Eh         -194047.98482 eV
Two Electron Energy:         3170.33887338 Eh           86269.30659 eV
CPCM Dielectric    :           -0.00912634 Eh              -0.24834 eV

Virial components:
Potential Energy   :        -2330.40775243 Eh          -63413.61883 eV
Kinetic Energy     :         1162.09914361 Eh           31622.32535 eV
Virial Ratio       :            2.00534332


DFT components:
N(Alpha)           :      110.000156439363 electrons
N(Beta)            :      110.000156439363 electrons
N(Total)           :      220.000312878727 electrons
E(X)               :     -169.583506369457 Eh       
E(C)               :       -7.444854548013 Eh       
E(XC)              :     -177.028360917469 Eh       
DFET-embed. en.    :        0.000000000000 Eh       
CPCM Solvation Model Properties:
Surface-charge          :           -0.04533287
Charge-correction       :           -0.00007755 Eh              -0.00211 eV
Free-energy (cav+disp)  :  This term is not implemented in the current solvation scheme

---------------
SCF CONVERGENCE
---------------

  Last Energy change         ...   -3.8176e-09  Tolerance :   1.0000e-07
  Last MAX-Density change    ...    2.6386e-06  Tolerance :   1.0000e-05
  Last RMS-Density change    ...    2.8477e-08  Tolerance :   1.0000e-06
  Last DIIS Error            ...    3.2383e-06  Tolerance :   1.0000e-07

             **** THE GBW FILE WAS UPDATED (inpS.gbw) ****
             **** DENSITY inpS.scfp WAS UPDATED ****
             **** ENERGY FILE WAS UPDATED (inpS.en.tmp) ****
             **** THE GBW FILE WAS UPDATED (inpS.gbw) ****
             **** DENSITY inpS.scfp WAS UPDATED ****
----------------
ORBITAL ENERGIES
----------------

  NO   OCC          E(Eh)            E(eV) 
   0   2.0000     -18.903682      -514.3954 
   1   2.0000     -10.057225      -273.6710 
   2   2.0000     -10.016413      -272.5605 
   3   2.0000     -10.014744      -272.5150 
   4   2.0000     -10.012179      -272.4452 
   5   2.0000     -10.012087      -272.4427 
   6   2.0000     -10.012071      -272.4423 
   7   2.0000     -10.011536      -272.4278 
   8   2.0000     -10.010824      -272.4084 
   9   2.0000     -10.009722      -272.3784 
  10   2.0000     -10.009713      -272.3781 
  11   2.0000     -10.009304      -272.3670 
  12   2.0000     -10.007633      -272.3215 
  13   2.0000     -10.006282      -272.2848 
  14   2.0000     -10.006053      -272.2785 
  15   2.0000     -10.005053      -272.2513 
  16   2.0000     -10.004997      -272.2498 
  17   2.0000     -10.000941      -272.1394 
  18   2.0000     -10.000574      -272.1294 
  19   2.0000      -9.999400      -272.0975 
  20   2.0000      -9.999107      -272.0895 
  21   2.0000      -9.998576      -272.0751 
  22   2.0000      -9.998524      -272.0737 
  23   2.0000      -9.997839      -272.0550 
  24   2.0000      -9.996262      -272.0121 
  25   2.0000      -9.996169      -272.0096 
  26   2.0000      -9.995910      -272.0025 
  27   2.0000      -9.995696      -271.9967 
  28   2.0000      -9.995134      -271.9814 
  29   2.0000      -0.954337       -25.9688 
  30   2.0000      -0.807789       -21.9811 
  31   2.0000      -0.789558       -21.4850 
  32   2.0000      -0.770741       -20.9729 
  33   2.0000      -0.756714       -20.5912 
  34   2.0000      -0.734429       -19.9848 
  35   2.0000      -0.727921       -19.8077 
  36   2.0000      -0.708943       -19.2913 
  37   2.0000      -0.708832       -19.2883 
  38   2.0000      -0.694310       -18.8931 
  39   2.0000      -0.676076       -18.3970 
  40   2.0000      -0.657764       -17.8987 
  41   2.0000      -0.654309       -17.8046 
  42   2.0000      -0.635807       -17.3012 
  43   2.0000      -0.628002       -17.0888 
  44   2.0000      -0.625630       -17.0243 
  45   2.0000      -0.619364       -16.8537 
  46   2.0000      -0.591331       -16.0909 
  47   2.0000      -0.589942       -16.0531 
  48   2.0000      -0.558094       -15.1865 
  49   2.0000      -0.547653       -14.9024 
  50   2.0000      -0.541325       -14.7302 
  51   2.0000      -0.536909       -14.6100 
  52   2.0000      -0.526408       -14.3243 
  53   2.0000      -0.516821       -14.0634 
  54   2.0000      -0.497173       -13.5288 
  55   2.0000      -0.473260       -12.8780 
  56   2.0000      -0.465248       -12.6600 
  57   2.0000      -0.463027       -12.5996 
  58   2.0000      -0.451226       -12.2785 
  59   2.0000      -0.447839       -12.1863 
  60   2.0000      -0.434861       -11.8332 
  61   2.0000      -0.431225       -11.7342 
  62   2.0000      -0.417486       -11.3604 
  63   2.0000      -0.416303       -11.3282 
  64   2.0000      -0.410261       -11.1638 
  65   2.0000      -0.407049       -11.0764 
  66   2.0000      -0.404639       -11.0108 
  67   2.0000      -0.400960       -10.9107 
  68   2.0000      -0.397819       -10.8252 
  69   2.0000      -0.390638       -10.6298 
  70   2.0000      -0.389021       -10.5858 
  71   2.0000      -0.382975       -10.4213 
  72   2.0000      -0.381691       -10.3863 
  73   2.0000      -0.375678       -10.2227 
  74   2.0000      -0.371684       -10.1140 
  75   2.0000      -0.363580        -9.8935 
  76   2.0000      -0.362230        -9.8568 
  77   2.0000      -0.358213        -9.7475 
  78   2.0000      -0.354366        -9.6428 
  79   2.0000      -0.349128        -9.5003 
  80   2.0000      -0.346093        -9.4177 
  81   2.0000      -0.345389        -9.3985 
  82   2.0000      -0.341874        -9.3029 
  83   2.0000      -0.337114        -9.1733 
  84   2.0000      -0.334287        -9.0964 
  85   2.0000      -0.325869        -8.8673 
  86   2.0000      -0.322970        -8.7885 
  87   2.0000      -0.318991        -8.6802 
  88   2.0000      -0.315095        -8.5742 
  89   2.0000      -0.311936        -8.4882 
  90   2.0000      -0.308485        -8.3943 
  91   2.0000      -0.307911        -8.3787 
  92   2.0000      -0.303822        -8.2674 
  93   2.0000      -0.296789        -8.0760 
  94   2.0000      -0.290691        -7.9101 
  95   2.0000      -0.286389        -7.7930 
  96   2.0000      -0.285248        -7.7620 
  97   2.0000      -0.283541        -7.7156 
  98   2.0000      -0.282220        -7.6796 
  99   2.0000      -0.280160        -7.6235 
 100   2.0000      -0.275693        -7.5020 
 101   2.0000      -0.272529        -7.4159 
 102   2.0000      -0.272105        -7.4043 
 103   2.0000      -0.266965        -7.2645 
 104   2.0000      -0.259604        -7.0642 
 105   2.0000      -0.249918        -6.8006 
 106   2.0000      -0.229738        -6.2515 
 107   2.0000      -0.228691        -6.2230 
 108   2.0000      -0.212936        -5.7943 
 109   2.0000      -0.183503        -4.9934 
 110   0.0000      -0.056919        -1.5489 
 111   0.0000      -0.014201        -0.3864 
 112   0.0000      -0.006287        -0.1711 
 113   0.0000       0.028935         0.7874 
 114   0.0000       0.037258         1.0138 
 115   0.0000       0.041041         1.1168 
 116   0.0000       0.047531         1.2934 
 117   0.0000       0.048584         1.3220 
 118   0.0000       0.052324         1.4238 
 119   0.0000       0.055955         1.5226 
 120   0.0000       0.060679         1.6512 
 121   0.0000       0.064175         1.7463 
 122   0.0000       0.071203         1.9375 
 123   0.0000       0.073666         2.0046 
 124   0.0000       0.078930         2.1478 
 125   0.0000       0.080049         2.1783 
 126   0.0000       0.082350         2.2409 
 127   0.0000       0.086020         2.3407 
 128   0.0000       0.089421         2.4333 
 129   0.0000       0.092369         2.5135 
 130   0.0000       0.099110         2.6969 
 131   0.0000       0.101746         2.7687 
 132   0.0000       0.105453         2.8695 
 133   0.0000       0.106842         2.9073 
 134   0.0000       0.107467         2.9243 
 135   0.0000       0.111373         3.0306 
 136   0.0000       0.113002         3.0750 
 137   0.0000       0.119219         3.2441 
 138   0.0000       0.120720         3.2849 
 139   0.0000       0.124833         3.3969 
 140   0.0000       0.127276         3.4634 
 141   0.0000       0.128150         3.4872 
 142   0.0000       0.129302         3.5185 
 143   0.0000       0.134201         3.6518 
 144   0.0000       0.138009         3.7554 
 145   0.0000       0.140213         3.8154 
 146   0.0000       0.142423         3.8755 
 147   0.0000       0.146215         3.9787 
 148   0.0000       0.146820         3.9952 
 149   0.0000       0.153370         4.1734 
 150   0.0000       0.155049         4.2191 
 151   0.0000       0.156157         4.2492 
 152   0.0000       0.157349         4.2817 
 153   0.0000       0.162937         4.4338 
 154   0.0000       0.164961         4.4888 
 155   0.0000       0.166837         4.5399 
 156   0.0000       0.176083         4.7915 
 157   0.0000       0.178258         4.8506 
 158   0.0000       0.181080         4.9274 
 159   0.0000       0.182692         4.9713 
 160   0.0000       0.190106         5.1730 
 161   0.0000       0.192618         5.2414 
 162   0.0000       0.197380         5.3710 
 163   0.0000       0.201942         5.4951 
 164   0.0000       0.202820         5.5190 
 165   0.0000       0.204501         5.5648 
 166   0.0000       0.206107         5.6085 
 167   0.0000       0.207305         5.6411 
 168   0.0000       0.211014         5.7420 
 169   0.0000       0.213171         5.8007 
 170   0.0000       0.219100         5.9620 
 171   0.0000       0.222078         6.0431 
 172   0.0000       0.226890         6.1740 
 173   0.0000       0.230256         6.2656 
 174   0.0000       0.236850         6.4450 
 175   0.0000       0.244138         6.6433 
 176   0.0000       0.244394         6.6503 
 177   0.0000       0.254180         6.9166 
 178   0.0000       0.261054         7.1036 
 179   0.0000       0.264490         7.1971 
 180   0.0000       0.271759         7.3949 
 181   0.0000       0.283188         7.7059 
 182   0.0000       0.291069         7.9204 
 183   0.0000       0.294613         8.0168 
 184   0.0000       0.304339         8.2815 
 185   0.0000       0.327490         8.9115 
 186   0.0000       0.334006         9.0888 
 187   0.0000       0.344944         9.3864 
 188   0.0000       0.345843         9.4109 
 189   0.0000       0.354332         9.6419 
 190   0.0000       0.354990         9.6598 
 191   0.0000       0.360212         9.8019 
 192   0.0000       0.367275         9.9941 
 193   0.0000       0.369385        10.0515 
 194   0.0000       0.377695        10.2776 
 195   0.0000       0.383017        10.4224 
 196   0.0000       0.385900        10.5009 
 197   0.0000       0.389617        10.6020 
 198   0.0000       0.397821        10.8253 
 199   0.0000       0.399516        10.8714 
 200   0.0000       0.403185        10.9712 
 201   0.0000       0.408711        11.1216 
 202   0.0000       0.413576        11.2540 
 203   0.0000       0.419277        11.4091 
 204   0.0000       0.422191        11.4884 
 205   0.0000       0.427282        11.6269 
 206   0.0000       0.432913        11.7802 
 207   0.0000       0.437248        11.8981 
 208   0.0000       0.447551        12.1785 
 209   0.0000       0.453201        12.3322 
 210   0.0000       0.461673        12.5628 
 211   0.0000       0.464865        12.6496 
 212   0.0000       0.469500        12.7758 
 213   0.0000       0.475152        12.9295 
 214   0.0000       0.478570        13.0226 
 215   0.0000       0.483755        13.1636 
 216   0.0000       0.486777        13.2459 
 217   0.0000       0.493836        13.4380 
 218   0.0000       0.498383        13.5617 
 219   0.0000       0.501207        13.6385 
 220   0.0000       0.504593        13.7307 
 221   0.0000       0.509544        13.8654 
 222   0.0000       0.514415        13.9979 
 223   0.0000       0.521827        14.1996 
 224   0.0000       0.523835        14.2543 
 225   0.0000       0.533389        14.5143 
 226   0.0000       0.534814        14.5530 
 227   0.0000       0.536153        14.5895 
 228   0.0000       0.541728        14.7412 
 229   0.0000       0.544546        14.8179 
 230   0.0000       0.547291        14.8925 
 231   0.0000       0.555440        15.1143 
 232   0.0000       0.556801        15.1513 
 233   0.0000       0.560691        15.2572 
 234   0.0000       0.562471        15.3056 
 235   0.0000       0.569841        15.5062 
 236   0.0000       0.570554        15.5256 
 237   0.0000       0.574118        15.6225 
 238   0.0000       0.579417        15.7667 
 239   0.0000       0.580049        15.7839 
 240   0.0000       0.582446        15.8492 
 241   0.0000       0.583964        15.8905 
 242   0.0000       0.588556        16.0154 
 243   0.0000       0.589679        16.0460 
 244   0.0000       0.592174        16.1139 
 245   0.0000       0.596145        16.2219 
 246   0.0000       0.597780        16.2664 
 247   0.0000       0.600594        16.3430 
 248   0.0000       0.603351        16.4180 
 249   0.0000       0.605875        16.4867 
 250   0.0000       0.606922        16.5152 
 251   0.0000       0.608568        16.5600 
 252   0.0000       0.611193        16.6314 
 253   0.0000       0.613255        16.6875 
 254   0.0000       0.616275        16.7697 
 255   0.0000       0.617518        16.8035 
 256   0.0000       0.619335        16.8530 
 257   0.0000       0.625595        17.0233 
 258   0.0000       0.630931        17.1685 
 259   0.0000       0.632420        17.2090 
 260   0.0000       0.634957        17.2781 
 261   0.0000       0.636285        17.3142 
 262   0.0000       0.641450        17.4548 
 263   0.0000       0.643821        17.5193 
 264   0.0000       0.646592        17.5947 
 265   0.0000       0.648151        17.6371 
 266   0.0000       0.650061        17.6891 
 267   0.0000       0.652723        17.7615 
 268   0.0000       0.655306        17.8318 
 269   0.0000       0.658532        17.9196 
 270   0.0000       0.663981        18.0678 
 271   0.0000       0.665289        18.1034 
 272   0.0000       0.666607        18.1393 
 273   0.0000       0.672876        18.3099 
 274   0.0000       0.677043        18.4233 
 275   0.0000       0.678761        18.4700 
 276   0.0000       0.681263        18.5381 
 277   0.0000       0.684359        18.6224 
 278   0.0000       0.687079        18.6964 
 279   0.0000       0.690274        18.7833 
 280   0.0000       0.691770        18.8240 
 281   0.0000       0.698406        19.0046 
 282   0.0000       0.701818        19.0974 
 283   0.0000       0.708706        19.2849 
 284   0.0000       0.712249        19.3813 
 285   0.0000       0.714302        19.4371 
 286   0.0000       0.723133        19.6775 
 287   0.0000       0.727562        19.7980 
 288   0.0000       0.731160        19.8959 
 289   0.0000       0.738889        20.1062 
 290   0.0000       0.742705        20.2100 
 291   0.0000       0.744722        20.2649 
 292   0.0000       0.751217        20.4417 
 293   0.0000       0.758136        20.6299 
 294   0.0000       0.763567        20.7777 
 295   0.0000       0.766096        20.8465 
 296   0.0000       0.775980        21.1155 
 297   0.0000       0.782640        21.2967 
 298   0.0000       0.784285        21.3415 
 299   0.0000       0.788120        21.4458 
 300   0.0000       0.800473        21.7820 
 301   0.0000       0.806416        21.9437 
 302   0.0000       0.810882        22.0652 
 303   0.0000       0.821728        22.3604 
 304   0.0000       0.836054        22.7502 
 305   0.0000       0.857571        23.3357 
 306   0.0000       0.873497        23.7691 
 307   0.0000       0.890321        24.2269 
 308   0.0000       0.893557        24.3149 
 309   0.0000       0.922573        25.1045 
 310   0.0000       0.932784        25.3824 
 311   0.0000       0.939587        25.5675 
 312   0.0000       0.950516        25.8649 
 313   0.0000       0.970725        26.4148 
 314   0.0000       0.981353        26.7040 
 315   0.0000       0.991841        26.9894 
 316   0.0000       1.008269        27.4364 
 317   0.0000       1.017087        27.6764 
 318   0.0000       1.026464        27.9315 
 319   0.0000       1.033067        28.1112 
 320   0.0000       1.042970        28.3807 
 321   0.0000       1.056181        28.7401 
 322   0.0000       1.059854        28.8401 
 323   0.0000       1.068131        29.0653 
 324   0.0000       1.092239        29.7213 
 325   0.0000       1.113113        30.2894 
 326   0.0000       1.132140        30.8071 
 327   0.0000       1.146974        31.2107 
 328   0.0000       1.161049        31.5937 
 329   0.0000       1.178891        32.0793 
 330   0.0000       1.182720        32.1834 
 331   0.0000       1.223868        33.3031 
 332   0.0000       1.225349        33.3435 
 333   0.0000       1.237132        33.6641 
 334   0.0000       1.251345        34.0508 
 335   0.0000       1.265298        34.4305 
 336   0.0000       1.284303        34.9477 
 337   0.0000       1.290831        35.1253 
 338   0.0000       1.304658        35.5016 
 339   0.0000       1.313494        35.7420 
 340   0.0000       1.330499        36.2047 
 341   0.0000       1.334059        36.3016 
 342   0.0000       1.339684        36.4547 
 343   0.0000       1.355748        36.8918 
 344   0.0000       1.363008        37.0893 
 345   0.0000       1.377358        37.4798 
 346   0.0000       1.379598        37.5408 
 347   0.0000       1.399078        38.0709 
 348   0.0000       1.408123        38.3170 
 349   0.0000       1.414123        38.4802 
 350   0.0000       1.425599        38.7925 
 351   0.0000       1.428824        38.8803 
 352   0.0000       1.437169        39.1073 
 353   0.0000       1.452829        39.5335 
 354   0.0000       1.456634        39.6370 
 355   0.0000       1.472835        40.0779 
 356   0.0000       1.481171        40.3047 
 357   0.0000       1.493208        40.6323 
 358   0.0000       1.504991        40.9529 
 359   0.0000       1.508358        41.0445 
 360   0.0000       1.518765        41.3277 
 361   0.0000       1.522098        41.4184 
 362   0.0000       1.525114        41.5005 
 363   0.0000       1.543985        42.0140 
 364   0.0000       1.551590        42.2209 
 365   0.0000       1.557372        42.3782 
 366   0.0000       1.577178        42.9172 
 367   0.0000       1.588892        43.2360 
 368   0.0000       1.601828        43.5880 
 369   0.0000       1.606576        43.7171 
 370   0.0000       1.615958        43.9725 
 371   0.0000       1.619094        44.0578 
 372   0.0000       1.630106        44.3574 
 373   0.0000       1.643953        44.7342 
 374   0.0000       1.651163        44.9304 
 375   0.0000       1.658201        45.1219 
 376   0.0000       1.665625        45.3240 
 377   0.0000       1.676165        45.6108 
 378   0.0000       1.681956        45.7683 
 379   0.0000       1.683909        45.8215 
 380   0.0000       1.688104        45.9356 
 381   0.0000       1.690628        46.0043 
 382   0.0000       1.693789        46.0903 
 383   0.0000       1.702632        46.3310 
 384   0.0000       1.713826        46.6356 
 385   0.0000       1.716417        46.7061 
 386   0.0000       1.721039        46.8319 
 387   0.0000       1.726075        46.9689 
 388   0.0000       1.730617        47.0925 
 389   0.0000       1.735251        47.2186 
 390   0.0000       1.745356        47.4936 
 391   0.0000       1.750691        47.6387 
 392   0.0000       1.756030        47.7840 
 393   0.0000       1.760242        47.8986 
 394   0.0000       1.768779        48.1309 
 395   0.0000       1.773078        48.2479 
 396   0.0000       1.774893        48.2973 
 397   0.0000       1.786635        48.6168 
 398   0.0000       1.788949        48.6798 
 399   0.0000       1.795131        48.8480 
 400   0.0000       1.797631        48.9160 
 401   0.0000       1.800332        48.9895 
 402   0.0000       1.809298        49.2335 
 403   0.0000       1.811443        49.2919 
 404   0.0000       1.820289        49.5326 
 405   0.0000       1.821580        49.5677 
 406   0.0000       1.826498        49.7015 
 407   0.0000       1.834762        49.9264 
 408   0.0000       1.847794        50.2810 
 409   0.0000       1.853493        50.4361 
 410   0.0000       1.861485        50.6536 
 411   0.0000       1.871346        50.9219 
 412   0.0000       1.878765        51.1238 
 413   0.0000       1.880444        51.1695 
 414   0.0000       1.891943        51.4824 
 415   0.0000       1.898391        51.6579 
 416   0.0000       1.900303        51.7099 
 417   0.0000       1.904818        51.8327 
 418   0.0000       1.912732        52.0481 
 419   0.0000       1.919776        52.2398 
 420   0.0000       1.931657        52.5631 
 421   0.0000       1.941889        52.8415 
 422   0.0000       1.942485        52.8577 
 423   0.0000       1.951334        53.0985 
 424   0.0000       1.952150        53.1207 
 425   0.0000       1.962564        53.4041 
 426   0.0000       1.966480        53.5106 
 427   0.0000       1.968961        53.5781 
 428   0.0000       1.972978        53.6875 
 429   0.0000       1.979374        53.8615 
 430   0.0000       1.982711        53.9523 
 431   0.0000       1.987165        54.0735 
 432   0.0000       1.991407        54.1889 
 433   0.0000       1.993057        54.2338 
 434   0.0000       1.996739        54.3340 
 435   0.0000       2.002174        54.4819 
 436   0.0000       2.005184        54.5638 
 437   0.0000       2.010213        54.7007 
 438   0.0000       2.015587        54.8469 
 439   0.0000       2.015722        54.8506 
 440   0.0000       2.019482        54.9529 
 441   0.0000       2.027713        55.1769 
 442   0.0000       2.035699        55.3942 
 443   0.0000       2.044062        55.6218 
[...]

 --------------
 Nucleus  47H :
 --------------

Diamagnetic contribution to the shielding tensor (ppm) : 
            33.690         -3.169        -5.985
            -4.094         38.209         6.309
            -5.843          7.269        44.798

Paramagnetic contribution to the shielding tensor (ppm): 
            -2.065          1.088         3.819
             1.754        -10.399        -3.146
             2.993         -3.452       -10.429

Total shielding tensor (ppm): 
            31.626         -2.081        -2.165
            -2.340         27.810         3.163
            -2.851          3.817        34.369


 Diagonalized sT*s matrix:
 
 sDSO            34.002           31.469           51.226  iso=      38.899
 sPSO            -7.937           -1.327          -13.628  iso=      -7.631
        ---------------  ---------------  ---------------
 Total           26.065           30.142           37.598  iso=      31.268

 --------------
 Nucleus  48H :
 --------------

Diamagnetic contribution to the shielding tensor (ppm) : 
            35.815          0.553        -2.801
            -1.301         39.959        -6.963
            -1.267         -3.154        43.754

Paramagnetic contribution to the shielding tensor (ppm): 
            -4.192          0.558         3.224
             1.744        -13.058         3.956
             1.251          0.944       -12.926

Total shielding tensor (ppm): 
            31.623          1.111         0.423
             0.443         26.902        -3.007
            -0.016         -2.211        30.828


 Diagonalized sT*s matrix:
 
 sDSO            37.017           35.589           46.923  iso=      39.843
 sPSO           -11.517           -3.923          -14.736  iso=     -10.059
        ---------------  ---------------  ---------------
 Total           25.500           31.666           32.188  iso=      29.784

 --------------
 Nucleus  52H :
 --------------

Diamagnetic contribution to the shielding tensor (ppm) : 
            43.426          4.085        -8.238
            10.606         26.193        -5.949
           -11.315         -8.136        49.551

Paramagnetic contribution to the shielding tensor (ppm): 
           -15.579         -0.934        12.348
            -7.518         -1.750         7.572
            13.768          9.395       -23.050

Total shielding tensor (ppm): 
            27.846          3.152         4.110
             3.088         24.443         1.623
             2.453          1.259        26.501


 Diagonalized sT*s matrix:
 
 sDSO            26.061           57.361           35.748  iso=      39.723
 sPSO            -3.554          -33.081           -3.744  iso=     -13.460
        ---------------  ---------------  ---------------
 Total           22.507           24.280           32.004  iso=      26.264

 --------------
 Nucleus  53H :
 --------------

Diamagnetic contribution to the shielding tensor (ppm) : 
            47.326          8.561       -10.085
             6.620         40.919       -11.247
            -4.064        -11.831        51.168

Paramagnetic contribution to the shielding tensor (ppm): 
           -18.031         -7.550        17.250
            -5.835        -18.904        13.091
            10.150         12.767       -25.180

Total shielding tensor (ppm): 
            29.295          1.011         7.165
             0.785         22.015         1.844
             6.086          0.935        25.988


 Diagonalized sT*s matrix:
 
 sDSO            64.216           33.603           41.594  iso=      46.471
 sPSO           -43.634          -11.548           -6.932  iso=     -20.705
        ---------------  ---------------  ---------------
 Total           20.581           22.055           34.662  iso=      25.766

 --------------
 Nucleus  57H :
 --------------

Diamagnetic contribution to the shielding tensor (ppm) : 
            36.583          0.875        -4.124
            13.092         36.366         8.593
            -7.683         -1.667        42.625

Paramagnetic contribution to the shielding tensor (ppm): 
            -6.340         -1.540         3.257
           -13.642         -5.883        -5.132
             6.884          3.894       -12.743

Total shielding tensor (ppm): 
            30.243         -0.666        -0.867
            -0.550         30.483         3.462
            -0.799          2.226        29.882


 Diagonalized sT*s matrix:
 
 sDSO            35.026           38.981           41.567  iso=      38.525
 sPSO            -7.719           -9.049           -8.198  iso=      -8.322
        ---------------  ---------------  ---------------
 Total           27.307           29.932           33.368  iso=      30.203

 --------------
 Nucleus  58H :
 --------------

Diamagnetic contribution to the shielding tensor (ppm) : 
            34.183         -7.556        -0.104
           -13.426         28.497        -1.259
             1.919          8.199        31.667

Paramagnetic contribution to the shielding tensor (ppm): 
            -3.616          6.394        -0.237
            11.793          2.636         3.550
            -2.110         -5.936        -0.598

Total shielding tensor (ppm): 
            30.567         -1.162        -0.340
            -1.633         31.133         2.292
            -0.192          2.263        31.068


 Diagonalized sT*s matrix:
 
 sDSO            21.274           34.817           38.256  iso=      31.449
 sPSO             7.202           -4.349           -4.432  iso=      -0.526
        ---------------  ---------------  ---------------
 Total           28.476           30.468           33.825  iso=      30.923

 --------------
 Nucleus  61H :
 --------------

Diamagnetic contribution to the shielding tensor (ppm) : 
            38.606         -3.108        -5.601
             8.003         24.645         8.910
           -18.401          3.723        30.121

Paramagnetic contribution to the shielding tensor (ppm): 
            -6.869          2.634         2.379
            -8.371          3.441        -7.130
            15.442         -1.727         2.648

Total shielding tensor (ppm): 
            31.737         -0.473        -3.222
            -0.368         28.086         1.780
            -2.959          1.997        32.768


 Diagonalized sT*s matrix:
 
 sDSO            18.496           29.320           45.556  iso=      31.124
 sPSO             8.787            0.215           -9.782  iso=      -0.260
        ---------------  ---------------  ---------------
 Total           27.284           29.534           35.774  iso=      30.864

 --------------
 Nucleus  62H :
 --------------

Diamagnetic contribution to the shielding tensor (ppm) : 
            38.955          5.555         3.176
            27.363         29.504        17.378
            -8.065          7.854        18.824

Paramagnetic contribution to the shielding tensor (ppm): 
            -6.992         -0.297        -0.813
           -21.984          1.009       -18.547
             9.704         -8.999         9.925

Total shielding tensor (ppm): 
            31.963          5.258         2.363
             5.379         30.513        -1.169
             1.639         -1.146        28.749


 Diagonalized sT*s matrix:
 
 sDSO            26.869            8.219           52.196  iso=      29.094
 sPSO            -2.188           21.646          -15.516  iso=       1.314
        ---------------  ---------------  ---------------
 Total           24.681           29.865           36.680  iso=      30.409

 --------------
 Nucleus  63H :
 --------------

Diamagnetic contribution to the shielding tensor (ppm) : 
            34.138         -1.300         1.381
            23.427         34.854        -2.268
           -12.433         -9.400        35.303

Paramagnetic contribution to the shielding tensor (ppm): 
            -4.466          1.076         0.316
           -23.458         -2.288        -2.946
            14.670          4.818        -5.003

Total shielding tensor (ppm): 
            29.672         -0.224         1.697
            -0.031         32.566        -5.214
             2.236         -4.582        30.300


 Diagonalized sT*s matrix:
 
 sDSO            28.837           39.414           36.044  iso=      34.765
 sPSO            -3.010           -9.420            0.672  iso=      -3.919
        ---------------  ---------------  ---------------
 Total           25.827           29.994           36.716  iso=      30.846

 --------------
 Nucleus  64H :
 --------------

Diamagnetic contribution to the shielding tensor (ppm) : 
            33.357          8.931        -4.424
            -5.624         31.829       -15.495
            10.985         -7.349        43.794

Paramagnetic contribution to the shielding tensor (ppm): 
            -0.897         -4.428         8.555
            10.545         -2.417        13.842
            -8.631          5.744       -14.770

Total shielding tensor (ppm): 
            32.460          4.503         4.131
             4.921         29.413        -1.653
             2.354         -1.605        29.024


 Diagonalized sT*s matrix:
 
 sDSO            24.856           50.648           33.476  iso=      36.327
 sPSO            -0.984          -19.951            2.851  iso=      -6.028
        ---------------  ---------------  ---------------
 Total           23.872           30.697           36.327  iso=      30.299

 --------------
 Nucleus  65H :
 --------------

Diamagnetic contribution to the shielding tensor (ppm) : 
            26.008         -1.780       -10.793
           -10.574         28.301        -3.674
             6.934          0.914        47.262

Paramagnetic contribution to the shielding tensor (ppm): 
             4.895          0.824         8.155
             9.762         -0.018         4.403
            -9.713          0.799       -13.306

Total shielding tensor (ppm): 
            30.903         -0.956        -2.638
            -0.812         28.283         0.729
            -2.778          1.713        33.957


 Diagonalized sT*s matrix:
 
 sDSO            26.603           31.375           43.594  iso=      33.857
 sPSO             1.367           -2.039           -7.757  iso=      -2.810
        ---------------  ---------------  ---------------
 Total           27.970           29.336           35.836  iso=      31.048

 --------------
 Nucleus  66H :
 --------------

Diamagnetic contribution to the shielding tensor (ppm) : 
            21.405         -6.505         0.153
           -20.973         26.784       -11.384
            18.040         -4.240        38.771

Paramagnetic contribution to the shielding tensor (ppm): 
             7.943          5.473         1.560
            19.399          5.369         5.813
           -15.641         -0.995        -7.544

Total shielding tensor (ppm): 
            29.348         -1.032         1.712
            -1.574         32.152        -5.571
             2.399         -5.235        31.227


 Diagonalized sT*s matrix:
 
 sDSO            26.728           12.782           47.450  iso=      28.987
 sPSO            -0.608           16.055           -9.680  iso=       1.923
        ---------------  ---------------  ---------------
 Total           26.120           28.837           37.770  iso=      30.909

 --------------
 Nucleus  67H :
 --------------

Diamagnetic contribution to the shielding tensor (ppm) : 
            40.668          1.562         3.608
             6.447         13.000        13.051
            -4.979          6.465        12.250

Paramagnetic contribution to the shielding tensor (ppm): 
            -5.457          1.770        -4.677
            -3.472         13.611       -16.048
             5.053         -8.341        16.953

Total shielding tensor (ppm): 
            35.212          3.332        -1.068
             2.975         26.611        -2.997
             0.073         -1.876        29.204


 Diagonalized sT*s matrix:
 
 sDSO            20.125            7.839           37.955  iso=      21.973
 sPSO             4.423           22.175           -1.490  iso=       8.369
        ---------------  ---------------  ---------------
 Total           24.548           30.014           36.465  iso=      30.342

 --------------
 Nucleus  68H :
 --------------

Diamagnetic contribution to the shielding tensor (ppm) : 
            29.580         -6.828        12.756
           -15.924          7.433        -0.581
            16.881          1.415        19.679

Paramagnetic contribution to the shielding tensor (ppm): 
             3.749          4.326        -7.858
            13.937         21.780        -2.034
           -12.439         -4.598        10.400

Total shielding tensor (ppm): 
            33.329         -2.502         4.899
            -1.987         29.213        -2.615
             4.442         -3.182        30.080


 Diagonalized sT*s matrix:
 
 sDSO            13.862            1.174           41.656  iso=      18.897
 sPSO            12.297           27.231           -3.599  iso=      11.977
        ---------------  ---------------  ---------------
 Total           26.160           28.405           38.057  iso=      30.874

 --------------
 Nucleus  69H :
 --------------

Diamagnetic contribution to the shielding tensor (ppm) : 
            26.266         -2.417         5.056
             4.934         19.732        19.980
            10.904         12.275        25.722

Paramagnetic contribution to the shielding tensor (ppm): 
             3.086          3.832        -2.792
            -4.007         11.906       -15.926
            -9.283         -8.091         6.687

Total shielding tensor (ppm): 
            29.352          1.415         2.264
             0.927         31.638         4.054
             1.622          4.184        32.409


 Diagonalized sT*s matrix:
 
 sDSO             6.255           23.712           41.754  iso=      23.907
 sPSO            21.448            5.160           -4.929  iso=       7.226
        ---------------  ---------------  ---------------
 Total           27.703           28.872           36.825  iso=      31.133

 --------------
 Nucleus  70H :
 --------------

Diamagnetic contribution to the shielding tensor (ppm) : 
            31.645          2.060         3.226
            -6.493         41.462         6.528
             0.442          7.465        36.010

Paramagnetic contribution to the shielding tensor (ppm): 
             0.502         -1.938        -2.737
             7.883        -10.984        -0.961
             0.955         -2.760        -7.756

Total shielding tensor (ppm): 
            32.147          0.122         0.489
             1.390         30.478         5.567
             1.397          4.704        28.254


 Diagonalized sT*s matrix:
 
 sDSO            31.137           34.368           43.612  iso=      36.373
 sPSO            -7.034           -2.686           -8.518  iso=      -6.080
        ---------------  ---------------  ---------------
 Total           24.103           31.682           35.094  iso=      30.293

 --------------
 Nucleus  71H :
 --------------

Diamagnetic contribution to the shielding tensor (ppm) : 
            28.535         -5.604        -0.147
           -12.192         41.408        -8.892
             0.000         -7.829        35.911

Paramagnetic contribution to the shielding tensor (ppm): 
             2.335          3.392         1.490
            10.546         -8.343         6.146
             0.624          5.475        -6.065

Total shielding tensor (ppm): 
            30.870         -2.212         1.343
            -1.647         33.065        -2.746
             0.624         -2.354        29.846


 Diagonalized sT*s matrix:
 
 sDSO            29.682           26.349           49.823  iso=      35.285
 sPSO            -1.244            3.509          -14.338  iso=      -4.024
        ---------------  ---------------  ---------------
 Total           28.437           29.858           35.486  iso=      31.260

 --------------
 Nucleus  72H :
 --------------

Diamagnetic contribution to the shielding tensor (ppm) : 
            36.756         -7.387        -8.472
           -12.791         28.416        -2.074
            -9.414          2.791        31.103

Paramagnetic contribution to the shielding tensor (ppm): 
            -2.244          5.626         4.435
            10.500          0.577         5.427
             5.731         -0.441        -2.270

Total shielding tensor (ppm): 
            34.513         -1.760        -4.037
            -2.291         28.992         3.352
            -3.683          2.350        28.832


 Diagonalized sT*s matrix:
 
 sDSO            29.593           19.589           47.094  iso=      32.092
 sPSO            -3.842            9.391           -9.486  iso=      -1.312
        ---------------  ---------------  ---------------
 Total           25.750           28.979           37.608  iso=      30.779



--------------------------------
CHEMICAL SHIELDING SUMMARY (ppm)
--------------------------------


  Nucleus  Element    Isotropic     Anisotropy
  -------  -------  ------------   ------------
      3       H           29.364          6.488 
      4       H           29.053          7.430 
      8       H           29.571          7.955 
      9       H           29.336          5.439 
     10       H           30.108          8.361 
     11       H           29.858         10.220 
     13       H           27.731          7.784 
     16       H           26.798          4.689 
     17       H           26.512          4.776 
     19       H           25.400         10.389 
     21       H           25.593         14.863 
     24       H           28.904         10.140 
     25       H           30.015          9.483 
     27       H           30.237          7.194 
     28       H           30.116         11.798 
     30       H           29.743          8.003 
     31       H           30.414          6.866 
     33       H           29.771          4.053 
     35       H           30.157         14.847 
     37       H           30.372         10.650 
     38       H           30.272          9.934 
     40       H           29.730          9.590 
     41       H           30.762          7.705 
     42       H           30.133          7.617 
     45       H           31.242          7.506 
     46       H           31.014          8.061 
     47       H           31.268          9.494 
     48       H           29.784          3.605 
     52       H           26.264          8.610 
     53       H           25.766         13.344 
     57       H           30.203          4.749 
     58       H           30.923          4.352 
     61       H           30.864          7.365 
     62       H           30.409          9.408 
     63       H           30.846          8.806 
     64       H           30.299          9.042 
     65       H           31.048          7.183 
     66       H           30.909         10.292 
     67       H           30.342          9.184 
     68       H           30.874         10.775 
     69       H           31.133          8.538 
     70       H           30.293          7.201 
     71       H           31.260          6.338 
     72       H           30.779         10.243 



Maximum memory used throughout the entire EPRNMR-calculation: 141.0 MB

Timings for individual modules:

Sum of individual times         ...      145.749 sec (=   2.429 min)
GTO integral calculation        ...        0.798 sec (=   0.013 min)   0.5 %
SCF iterations                  ...       98.603 sec (=   1.643 min)  67.7 %
EPR/NMR calculation             ...       46.348 sec (=   0.772 min)  31.8 %
                             ****ORCA TERMINATED NORMALLY****
TOTAL RUN TIME: 0 days 0 hours 2 minutes 26 seconds 220 msec
