
                                 *****************
                                 * O   R   C   A *
                                 *****************

                                            #,                                       
                                            ###                                      
                                            ####                                     
                                            #####                                    
                                            ######                                   
                                           ########,                                 
                                     ,,################,,,,,                         
                               ,,#################################,,                 
                          ,,##########################################,,             
                       ,#########################################, ''#####,          
                    ,#############################################,,   '####,        
                  ,##################################################,,,,####,       
                ,###########''''           ''''###############################       
              ,#####''   ,,,,##########,,,,          '''####'''          '####       
            ,##' ,,,,###########################,,,                        '##       
           ' ,,###''''                  '''############,,,                           
         ,,##''                                '''############,,,,        ,,,,,,###''
      ,#''                                            '''#######################'''  
     '                                                          ''''####''''         
             ,#######,   #######,   ,#######,      ##                                
            ,#'     '#,  ##    ##  ,#'     '#,    #''#        ######   ,####,        
            ##       ##  ##   ,#'  ##            #'  '#       #        #'  '#        
            ##       ##  #######   ##           ,######,      #####,   #    #        
            '#,     ,#'  ##    ##  '#,     ,#' ,#      #,         ##   #,  ,#        
             '#######'   ##     ##  '#######'  #'      '#     #####' # '####'        



                  #######################################################
                  #                        -***-                        #
                  #          Department of theory and spectroscopy      #
                  #    Directorship and core code : Frank Neese         #
                  #        Max Planck Institute fuer Kohlenforschung    #
                  #                Kaiser Wilhelm Platz 1               #
                  #                 D-45470 Muelheim/Ruhr               #
                  #                      Germany                        #
                  #                                                     #
                  #                  All rights reserved                #
                  #                        -***-                        #
                  #######################################################


                         Program Version 5.0.2 -  RELEASE  -


 With contributions from (in alphabetic order):
   Daniel Aravena         : Magnetic Suceptibility
   Michael Atanasov       : Ab Initio Ligand Field Theory (pilot matlab implementation)
   Alexander A. Auer      : GIAO ZORA, VPT2 properties, NMR spectrum
   Ute Becker             : Parallelization
   Giovanni Bistoni       : ED, misc. LED, open-shell LED, HFLD
   Martin Brehm           : Molecular dynamics
   Dmytro Bykov           : SCF Hessian
   Vijay G. Chilkuri      : MRCI spin determinant printing, contributions to CSF-ICE
   Dipayan Datta          : RHF DLPNO-CCSD density
   Achintya Kumar Dutta   : EOM-CC, STEOM-CC
   Dmitry Ganyushin       : Spin-Orbit,Spin-Spin,Magnetic field MRCI
   Miquel Garcia          : C-PCM and meta-GGA Hessian, CC/C-PCM, Gaussian charge scheme
   Yang Guo               : DLPNO-NEVPT2, F12-NEVPT2, CIM, IAO-localization
   Andreas Hansen         : Spin unrestricted coupled pair/coupled cluster methods
   Benjamin Helmich-Paris : MC-RPA, TRAH-SCF, COSX integrals
   Lee Huntington         : MR-EOM, pCC
   Robert Izsak           : Overlap fitted RIJCOSX, COSX-SCS-MP3, EOM
   Marcus Kettner         : VPT2
   Christian Kollmar      : KDIIS, OOCD, Brueckner-CCSD(T), CCSD density, CASPT2, CASPT2-K
   Simone Kossmann        : Meta GGA functionals, TD-DFT gradient, OOMP2, MP2 Hessian
   Martin Krupicka        : Initial AUTO-CI
   Lucas Lang             : DCDCAS
   Marvin Lechner         : AUTO-CI (C++ implementation), FIC-MRCC
   Dagmar Lenk            : GEPOL surface, SMD
   Dimitrios Liakos       : Extrapolation schemes; Compound Job, initial MDCI parallelization
   Dimitrios Manganas     : Further ROCIS development; embedding schemes
   Dimitrios Pantazis     : SARC Basis sets
   Anastasios Papadopoulos: AUTO-CI, single reference methods and gradients
   Taras Petrenko         : DFT Hessian,TD-DFT gradient, ASA, ECA, R-Raman, ABS, FL, XAS/XES, NRVS
   Peter Pinski           : DLPNO-MP2, DLPNO-MP2 Gradient
   Christoph Reimann      : Effective Core Potentials
   Marius Retegan         : Local ZFS, SOC
   Christoph Riplinger    : Optimizer, TS searches, QM/MM, DLPNO-CCSD(T), (RO)-DLPNO pert. Triples
   Tobias Risthaus        : Range-separated hybrids, TD-DFT gradient, RPA, STAB
   Michael Roemelt        : Original ROCIS implementation
   Masaaki Saitow         : Open-shell DLPNO-CCSD energy and density
   Barbara Sandhoefer     : DKH picture change effects
   Avijit Sen             : IP-ROCIS
   Kantharuban Sivalingam : CASSCF convergence, NEVPT2, FIC-MRCI
   Bernardo de Souza      : ESD, SOC TD-DFT
   Georgi Stoychev        : AutoAux, RI-MP2 NMR, DLPNO-MP2 response
   Willem Van den Heuvel  : Paramagnetic NMR
   Boris Wezisla          : Elementary symmetry handling
   Frank Wennmohs         : Technical directorship


 We gratefully acknowledge several colleagues who have allowed us to
 interface, adapt or use parts of their codes:
   Stefan Grimme, W. Hujo, H. Kruse, P. Pracht,  : VdW corrections, initial TS optimization,
                  C. Bannwarth, S. Ehlert          DFT functionals, gCP, sTDA/sTD-DF
   Ed Valeev, F. Pavosevic, A. Kumar             : LibInt (2-el integral package), F12 methods
   Garnet Chan, S. Sharma, J. Yang, R. Olivares  : DMRG
   Ulf Ekstrom                                   : XCFun DFT Library
   Mihaly Kallay                                 : mrcc  (arbitrary order and MRCC methods)
   Jiri Pittner, Ondrej Demel                    : Mk-CCSD
   Frank Weinhold                                : gennbo (NPA and NBO analysis)
   Christopher J. Cramer and Donald G. Truhlar   : smd solvation model
   Lars Goerigk                                  : TD-DFT with DH, B97 family of functionals
   V. Asgeirsson, H. Jonsson                     : NEB implementation
   FAccTs GmbH                                   : IRC, NEB, NEB-TS, DLPNO-Multilevel, CI-OPT
                                                   MM, QMMM, 2- and 3-layer-ONIOM, Crystal-QMMM,
                                                   LR-CPCM, SF, NACMEs, symmetry and pop. for TD-DFT,
                                                   nearIR, NL-DFT gradient (VV10), updates on ESD,
                                                   ML-optimized integration grids
   S Lehtola, MJT Oliveira, MAL Marques          : LibXC Library
   Liviu Ungur et al                             : ANISO software


 Your calculation uses the libint2 library for the computation of 2-el integrals
 For citations please refer to: http://libint.valeyev.net

 Your ORCA version has been built with support for libXC version: 5.1.0
 For citations please refer to: https://tddft.org/programs/libxc/

 This ORCA versions uses:
   CBLAS   interface :  Fast vector & matrix operations
   LAPACKE interface :  Fast linear algebra routines
   SCALAPACK package :  Parallel linear algebra routines
   Shared memory     :  Shared parallel matrices
   BLAS/LAPACK       :  OpenBLAS 0.3.15  USE64BITINT DYNAMIC_ARCH NO_AFFINITY Zen SINGLE_THREADED
        Core in use  :  Zen
   Copyright (c) 2011-2014, The OpenBLAS Project


Your calculation utilizes the atom-pairwise dispersion correction
based on tight binding partial charges (D4)
Cite in your paper:
E.Caldeweyher, C.Bannwarth, S.Grimme, J.Chem.Phys., (2017), 147, 034112.
E.Caldeweyher, S.Ehlert, A.Hansen, H.Neugebauer, S.Grimme, J.Chem.Phys., (2018), in progress.
   

================================================================================

----- Orbital basis set information -----
Your calculation utilizes the basis: pcJ-0
   F. Jensen, Theor. Chem. Acc. 126, 371 (2010).

----- AuxJ basis set information -----
Your calculation utilizes the auxiliary basis: def2/J
   F. Weigend, Phys. Chem. Chem. Phys. 8, 1057 (2006).

================================================================================
                                        WARNINGS
                       Please study these warnings very carefully!
================================================================================


INFO   : the flag for use of the SHARK integral package has been found!

================================================================================
                                       INPUT FILE
================================================================================
NAME = inpJ
|  1> ! pbe0
|  2> ! D4
|  3> ! pcJ-0
|  4> ! def2/J RIJCOSX
|  5> ! DEFGRID2
|  6> ! scfconv7
|  7> ! smallprint printgap noloewdin
|  8> ! NOSOSCF
|  9> %MaxCore 4000
| 10> %output
| 11>        print[P_BondOrder_M] 1
| 12>        print[P_Mayer] 1
| 13>        print[P_basis] 2
| 14> end
| 15> %pal
| 16>     nprocs 4
| 17> end
| 18> ! CPCM(chloroform)
| 19> *xyz 0 1
| 20> C   -5.0849278100   0.1873012400  -0.6740374500
| 21> C   -6.5206266800  -0.2484841000  -0.8453213100
| 22> C   -7.4642048800   0.7273605200  -0.1304283900
| 23> H   -6.6676306900  -1.2636620100  -0.4595378000
| 24> H   -6.7852896700  -0.2496715400  -1.9130910800
| 25> C   -4.8291624100   1.5833343500  -1.0940460300
| 26> C   -5.7914058100   2.5961678500  -0.5143643900
| 27> C   -7.2526959000   2.1475275100  -0.6571478900
| 28> H   -5.6405468000   3.5738796600  -0.9841868100
| 29> H   -5.5636720200   2.7157760000   0.5558591200
| 30> H   -7.5422787300   2.1690659300  -1.7166097800
| 31> H   -7.9127564600   2.8391102400  -0.1208092700
| 32> O   -7.2828493400   0.6560472300   1.2937022500
| 33> H   -8.5041592500   0.4241130200  -0.3039551200
| 34> C   -4.1624145900  -0.6323217400  -0.1160487300
| 35> C   -3.8568341400   1.9230286900  -1.9471250800
| 36> H   -3.1865307500   1.1771150800  -2.3657216600
| 37> H   -3.7162779100   2.9572403700  -2.2525851200
| 38> C   -2.7935083200  -0.2860531300   0.1896772600
| 39> H   -4.5028804600  -1.6322975400   0.1502462500
| 40> C   -1.8371512800  -1.1184187600   0.6534312200
| 41> H   -2.5246692400   0.7565271800   0.0351216800
| 42> C   -2.0021876400  -2.5948365600   0.9090842000
| 43> C   -0.9357906800  -3.4240793600   0.1668547200
| 44> H   -2.9998660800  -2.9534888700   0.6415169900
| 45> H   -1.8774266400  -2.7663471300   1.9902193400
| 46> C    0.4901466400  -2.9131644400   0.4145814600
| 47> H   -1.1541383300  -3.4073078400  -0.9084251800
| 48> H   -1.0111047300  -4.4715703500   0.4834835300
| 49> C    0.6249690900  -1.4176265400   0.0963523500
| 50> H    1.1904553100  -3.5118589500  -0.1771712300
| 51> H    0.7518991700  -3.0664216700   1.4724542400
| 52> C   -0.4421270800  -0.6609532200   0.9492472000
| 53> H   -0.2286269600  -0.9623974000   1.9917020000
| 54> C   -0.0481578300   0.8051240100   0.8124797400
| 55> H   -6.3318030200   0.6019672900   1.4652659000
| 56> C    1.4988861500   0.7605456300   0.8208990800
| 57> H   -0.4588819000   1.4219311900   1.6187991700
| 58> H   -0.4176248500   1.2199013200  -0.1320724400
| 59> C    1.9201939500  -0.7285464100   0.6150492500
| 60> H    1.8984915900   1.1517587300   1.7603734900
| 61> H    1.9189504500   1.3843294700   0.0230409600
| 62> H    2.1259804900  -1.1794238200   1.5986719600
| 63> C    3.1907132900  -0.8483560000  -0.2375910700
| 64> C    0.4116686800  -1.1503830200  -1.4003216300
| 65> H    0.6286224200  -0.1097544300  -1.6617462300
| 66> H   -0.6224108400  -1.3511863700  -1.6973521300
| 67> H    1.0645689100  -1.7871317600  -2.0066941000
| 68> H    2.9847092300  -0.3583719100  -1.2023999200
| 69> C    3.6137533000  -2.2976893600  -0.5395703700
| 70> C    4.3910602100  -0.1460846100   0.3609358800
| 71> C    4.5905456700   0.1471593300   1.6459557000
| 72> H    5.1858544600   0.0616421000  -0.3575836200
| 73> H    3.8014929400  -0.0721936600   2.3635125400
| 74> C    5.8425499300   0.7456284500   2.2397235100
| 75> C    6.7252473000   1.4455048600   1.2036560800
| 76> C    6.6352105000  -0.3262935200   3.0406938600
| 77> H    5.5187963500   1.5008753700   2.9765481700
| 78> H    6.9855338800  -1.0709222900   2.3080631600
| 79> C    5.7545606300  -1.0440347900   4.0686706500
| 80> C    7.8550354800   0.2770448600   3.7434507300
| 81> H    7.2195255100   0.7208690300   0.5452339700
| 82> H    7.5039457100   2.0402525500   1.6877126600
| 83> H    6.1305634400   2.1192773100   0.5783430500
| 84> H    4.9490203300  -1.6133428600   3.5957635300
| 85> H    5.2997351200  -0.3218591400   4.7595396900
| 86> H    6.3530662400  -1.7429991100   4.6628636200
| 87> H    8.5878358700   0.6776911700   3.0377734100
| 88> H    8.3599688000  -0.4829292200   4.3499181200
| 89> H    7.5470494100   1.0896392200   4.4144446900
| 90> H    2.9024601100  -2.8063005400  -1.1952826000
| 91> H    3.7019514100  -2.8704384800   0.3913601200
| 92> H    4.5914632900  -2.3128768000  -1.0342989000
| 93> *
| 94> %eprnmr
| 95>  Nuclei = all H { ssfc }
| 96>  SpinSpinRThresh 8.0
| 97> end
| 98> 
| 99>                          ****END OF INPUT****
================================================================================

                       ****************************
                       * Single Point Calculation *
                       ****************************

---------------------------------
CARTESIAN COORDINATES (ANGSTROEM)
---------------------------------
  C     -5.084928    0.187301   -0.674037
  C     -6.520627   -0.248484   -0.845321
  C     -7.464205    0.727361   -0.130428
  H     -6.667631   -1.263662   -0.459538
  H     -6.785290   -0.249672   -1.913091
  C     -4.829162    1.583334   -1.094046
  C     -5.791406    2.596168   -0.514364
  C     -7.252696    2.147528   -0.657148
  H     -5.640547    3.573880   -0.984187
  H     -5.563672    2.715776    0.555859
  H     -7.542279    2.169066   -1.716610
  H     -7.912756    2.839110   -0.120809
  O     -7.282849    0.656047    1.293702
  H     -8.504159    0.424113   -0.303955
  C     -4.162415   -0.632322   -0.116049
  C     -3.856834    1.923029   -1.947125
  H     -3.186531    1.177115   -2.365722
  H     -3.716278    2.957240   -2.252585
  C     -2.793508   -0.286053    0.189677
  H     -4.502880   -1.632298    0.150246
  C     -1.837151   -1.118419    0.653431
  H     -2.524669    0.756527    0.035122
  C     -2.002188   -2.594837    0.909084
  C     -0.935791   -3.424079    0.166855
  H     -2.999866   -2.953489    0.641517
  H     -1.877427   -2.766347    1.990219
  C      0.490147   -2.913164    0.414581
  H     -1.154138   -3.407308   -0.908425
  H     -1.011105   -4.471570    0.483484
  C      0.624969   -1.417627    0.096352
  H      1.190455   -3.511859   -0.177171
  H      0.751899   -3.066422    1.472454
  C     -0.442127   -0.660953    0.949247
  H     -0.228627   -0.962397    1.991702
  C     -0.048158    0.805124    0.812480
  H     -6.331803    0.601967    1.465266
  C      1.498886    0.760546    0.820899
  H     -0.458882    1.421931    1.618799
  H     -0.417625    1.219901   -0.132072
  C      1.920194   -0.728546    0.615049
  H      1.898492    1.151759    1.760373
  H      1.918950    1.384329    0.023041
  H      2.125980   -1.179424    1.598672
  C      3.190713   -0.848356   -0.237591
  C      0.411669   -1.150383   -1.400322
  H      0.628622   -0.109754   -1.661746
  H     -0.622411   -1.351186   -1.697352
  H      1.064569   -1.787132   -2.006694
  H      2.984709   -0.358372   -1.202400
  C      3.613753   -2.297689   -0.539570
  C      4.391060   -0.146085    0.360936
  C      4.590546    0.147159    1.645956
  H      5.185854    0.061642   -0.357584
  H      3.801493   -0.072194    2.363513
  C      5.842550    0.745628    2.239724
  C      6.725247    1.445505    1.203656
  C      6.635210   -0.326294    3.040694
  H      5.518796    1.500875    2.976548
  H      6.985534   -1.070922    2.308063
  C      5.754561   -1.044035    4.068671
  C      7.855035    0.277045    3.743451
  H      7.219526    0.720869    0.545234
  H      7.503946    2.040253    1.687713
  H      6.130563    2.119277    0.578343
  H      4.949020   -1.613343    3.595764
  H      5.299735   -0.321859    4.759540
  H      6.353066   -1.742999    4.662864
  H      8.587836    0.677691    3.037773
  H      8.359969   -0.482929    4.349918
  H      7.547049    1.089639    4.414445
  H      2.902460   -2.806301   -1.195283
  H      3.701951   -2.870438    0.391360
  H      4.591463   -2.312877   -1.034299

----------------------------
CARTESIAN COORDINATES (A.U.)
----------------------------
  NO LB      ZA    FRAG     MASS         X           Y           Z
   0 C     6.0000    0    12.011   -9.609121    0.353948   -1.273746
   1 C     6.0000    0    12.011  -12.322199   -0.469567   -1.597426
   2 C     6.0000    0    12.011  -14.105303    1.374512   -0.246474
   3 H     1.0000    0     1.008  -12.599996   -2.387975   -0.868401
   4 H     1.0000    0     1.008  -12.822339   -0.471811   -3.615218
   5 C     6.0000    0    12.011   -9.125794    2.992068   -2.067447
   6 C     6.0000    0    12.011  -10.944171    4.906046   -0.972008
   7 C     6.0000    0    12.011  -13.705609    4.058239   -1.241830
   8 H     1.0000    0     1.008  -10.659089    6.753654   -1.859844
   9 H     1.0000    0     1.008  -10.513816    5.132073    1.050422
  10 H     1.0000    0     1.008  -14.252841    4.098941   -3.243922
  11 H     1.0000    0     1.008  -14.952943    5.365141   -0.228296
  12 O     8.0000    0    15.999  -13.762591    1.239750    2.444743
  13 H     1.0000    0     1.008  -16.070532    0.801457   -0.574392
  14 C     6.0000    0    12.011   -7.865824   -1.194915   -0.219300
  15 C     6.0000    0    12.011   -7.288360    3.633998   -3.679533
  16 H     1.0000    0     1.008   -6.021670    2.224425   -4.470566
  17 H     1.0000    0     1.008   -7.022747    5.588374   -4.256769
  18 C     6.0000    0    12.011   -5.278966   -0.540562    0.358438
  19 H     1.0000    0     1.008   -8.509211   -3.084595    0.283924
  20 C     6.0000    0    12.011   -3.471713   -2.113505    1.234806
  21 H     1.0000    0     1.008   -4.770933    1.429629    0.066370
  22 C     6.0000    0    12.011   -3.783586   -4.903530    1.717920
  23 C     6.0000    0    12.011   -1.768388   -6.470572    0.315310
  24 H     1.0000    0     1.008   -5.668925   -5.581285    1.212291
  25 H     1.0000    0     1.008   -3.547822   -5.227638    3.760969
  26 C     6.0000    0    12.011    0.926243   -5.505083    0.783445
  27 H     1.0000    0     1.008   -2.181005   -6.438879   -1.716675
  28 H     1.0000    0     1.008   -1.910711   -8.450043    0.913651
  29 C     6.0000    0    12.011    1.181020   -2.678926    0.182080
  30 H     1.0000    0     1.008    2.249635   -6.636452   -0.334805
  31 H     1.0000    0     1.008    1.420884   -5.794697    2.782535
  32 C     6.0000    0    12.011   -0.835499   -1.249021    1.793817
  33 H     1.0000    0     1.008   -0.432042   -1.818668    3.763771
  34 C     6.0000    0    12.011   -0.091005    1.521464    1.535364
  35 H     1.0000    0     1.008  -11.965374    1.137553    2.768951
  36 C     6.0000    0    12.011    2.832484    1.437223    1.551274
  37 H     1.0000    0     1.008   -0.867161    2.687061    3.059087
  38 H     1.0000    0     1.008   -0.789197    2.305279   -0.249581
  39 C     6.0000    0    12.011    3.628641   -1.376753    1.162275
  40 H     1.0000    0     1.008    3.587629    2.176509    3.326624
  41 H     1.0000    0     1.008    3.626291    2.616004    0.043541
  42 H     1.0000    0     1.008    4.017521   -2.228788    3.021052
  43 C     6.0000    0    12.011    6.029574   -1.603161   -0.448982
  44 C     6.0000    0    12.011    0.777941   -2.173909   -2.646224
  45 H     1.0000    0     1.008    1.187924   -0.207406   -3.140245
  46 H     1.0000    0     1.008   -1.176186   -2.553372   -3.207531
  47 H     1.0000    0     1.008    2.011744   -3.377190   -3.792102
  48 H     1.0000    0     1.008    5.640283   -0.677225   -2.272207
  49 C     6.0000    0    12.011    6.829004   -4.342004   -1.019640
  50 C     6.0000    0    12.011    8.297901   -0.276060    0.682070
  51 C     6.0000    0    12.011    8.674874    0.278091    3.110406
  52 H     1.0000    0     1.008    9.799845    0.116487   -0.675735
  53 H     1.0000    0     1.008    7.183781   -0.136426    4.466391
  54 C     6.0000    0    12.011   11.040819    1.409034    4.232464
  55 C     6.0000    0    12.011   12.708876    2.731608    2.274580
  56 C     6.0000    0    12.011   12.538731   -0.616605    5.746079
  57 H     1.0000    0     1.008   10.429014    2.836243    5.624861
  58 H     1.0000    0     1.008   13.200746   -2.023750    4.361607
  59 C     6.0000    0    12.011   10.874544   -1.972940    7.688673
  60 C     6.0000    0    12.011   14.843866    0.523539    7.074097
  61 H     1.0000    0     1.008   13.642926    1.362245    1.030343
  62 H     1.0000    0     1.008   14.180402    3.855519    3.189315
  63 H     1.0000    0     1.008   11.585086    4.004854    1.092910
  64 H     1.0000    0     1.008    9.352293   -3.048776    6.795008
  65 H     1.0000    0     1.008   10.015048   -0.608226    8.994227
  66 H     1.0000    0     1.008   12.005555   -3.293791    8.811535
  67 H     1.0000    0     1.008   16.228658    1.280651    5.740560
  68 H     1.0000    0     1.008   15.798052   -0.912604    8.220154
  69 H     1.0000    0     1.008   14.261857    2.059120    8.342091
  70 H     1.0000    0     1.008    5.484855   -5.303139   -2.258757
  71 H     1.0000    0     1.008    6.995674   -5.424343    0.739563
  72 H     1.0000    0     1.008    8.676608   -4.370704   -1.954542

--------------------------------
INTERNAL COORDINATES (ANGSTROEM)
--------------------------------
 C      0   0   0     0.000000000000     0.00000000     0.00000000
 C      1   0   0     1.510125249300     0.00000000     0.00000000
 C      2   1   0     1.534172229238   110.38461142     0.00000000
 H      2   1   3     1.095912991298   110.78832530   237.85276829
 H      2   1   3     1.100081901503   109.82394951   118.67500572
 C      1   2   3     1.480112019858   113.84612524   305.86036618
 C      6   1   2     1.512539210506   114.38710239    50.03731224
 C      3   2   1     1.529393265248   110.18823080    56.88932889
 H      7   6   1     1.095176666409   110.22812693   188.68471012
 H      7   6   1     1.100703025348   108.28710877    72.00046924
 H      8   3   2     1.098536123816   108.29429820    64.53613991
 H      8   3   2     1.096186904960   109.51547194   181.48972760
 O      3   2   1     1.437401647768   110.64159214   292.86178916
 H      3   2   1     1.097075960890   109.48090870   177.33656596
 C      1   2   3     1.354313066490   121.31097270   122.55004870
 C      6   1   2     1.337369946880   123.10785977   232.03283655
 H     16   6   1     1.086699979303   121.32034113   358.92270398
 H     16   6   1     1.087499742012   120.97694287   178.36725043
 C     15   1   2     1.444740359815   125.98325687   185.06378073
 H     15   1   2     1.089395073237   116.31772829     3.09350660
 C     19  15   1     1.350007061233   126.59414285   185.24881733
 H     19  15   1     1.087720359764   115.71185281     5.92692849
 C     21  19  15     1.507449822204   125.77283290     1.82945770
 C     23  21  19     1.541347040296   111.68549821   125.74312226
 H     23  21  19     1.093428534920   112.31188175     2.02067873
 H     23  21  19     1.101741518545   107.84789498   244.36438123
 C     24  23  21     1.534828926545   112.70349531    50.69687049
 H     24  23  21     1.097353107932   109.02453919   288.57391692
 H     24  23  21     1.096888045144   109.10272602   172.65516956
 C     27  24  23     1.534952921041   111.86825817   306.34138509
 H     27  24  23     1.095006208066   108.96236688   182.75467581
 H     27  24  23     1.100498516207   109.25473565    66.25466050
 C     21  19  15     1.497622894088   122.64242446   180.36748138
 H     33  21  19     1.105966954723   106.42394816   126.11738932
 C     33  21  19     1.524237367468   121.12084048     3.47059964
 H     13   3   2     0.967908998149   107.59930113    41.90687100
 C     35  33  21     1.547709014416   103.30689123   195.07938476
 H     35  33  21     1.095123911789   112.25537295    73.30404599
 H     35  33  21     1.095775942655   110.74912015   313.57459016
 C     30  27  24     1.556112250961   115.81415404   166.48677166
 H     37  35  33     1.093318052688   111.08232423   252.12259103
 H     37  35  33     1.096420482675   111.26078452   133.83159756
 H     40  30  27     1.101431874662   105.77832425   322.36019789
 C     40  30  27     1.534786384635   117.98774816    83.31620487
 C     30  27  24     1.535235866666   111.07036002   294.73806205
 H     45  30  27     1.094677856317   111.76239525   187.17839763
 H     45  30  27     1.094472273283   111.34036505    67.23579736
 H     45  30  27     1.095178177558   110.83826306   307.19568642
 H     44  40  30     1.101534474371   107.28047982    62.44636698
 C     44  40  30     1.539714758031   114.19738245   303.61091074
 C     44  40  30     1.514018607363   113.60828287   180.17955883
 C     51  44  40     1.333065037757   126.99549228    23.76029766
 H     51  44  40     1.091383781152   113.91555468   199.12790040
 H     52  51  44     1.088856172124   118.84834736   355.92049760
 C     52  51  44     1.509384035573   126.19631763   174.61526072
 C     55  52  51     1.530495787575   113.16665870    19.81893822
 C     55  52  51     1.555275213774   110.61412474   253.60645407
 H     55  52  51     1.103686943982   106.89556885   138.52526761
 H     57  55  52     1.101792275462   106.58266761    65.90023068
 C     57  55  52     1.532133481447   112.05289042   307.72270131
 C     57  55  52     1.531619208859   111.75937410   184.33903436
 H     56  55  52     1.096780611580   111.35687486   288.21014334
 H     56  55  52     1.092889198930   111.09767096   168.13597532
 H     56  55  52     1.094821717546   110.78075003    48.38895725
 H     60  57  55     1.093914072328   112.14860208    63.66619400
 H     60  57  55     1.098045511092   110.61755569   303.00951658
 H     60  57  55     1.095365405439   110.41561189   183.83943799
 H     61  57  55     1.093386645823   112.45676618   296.64767145
 H     61  57  55     1.095591600484   110.35242384   176.48155916
 H     61  57  55     1.097906146979   110.39913248    57.51363162
 H     50  44  40     1.092969287369   112.14116479    67.47969766
 H     50  44  40     1.096563741093   110.31915789   306.31743413
 H     50  44  40     1.095857564319   110.28669715   187.44978821

---------------------------
INTERNAL COORDINATES (A.U.)
---------------------------
 C      0   0   0     0.000000000000     0.00000000     0.00000000
 C      1   0   0     2.853723149097     0.00000000     0.00000000
 C      2   1   0     2.899165355527   110.38461142     0.00000000
 H      2   1   3     2.070975420160   110.78832530   237.85276829
 H      2   1   3     2.078853518725   109.82394951   118.67500572
 C      1   2   3     2.797006365056   113.84612524   305.86036618
 C      6   1   2     2.858284874674   114.38710239    50.03731224
 C      3   2   1     2.890134422383   110.18823080    56.88932889
 H      7   6   1     2.069583967773   110.22812693   188.68471012
 H      7   6   1     2.080027272687   108.28710877    72.00046924
 H      8   3   2     2.075932422232   108.29429820    64.53613991
 H      8   3   2     2.071493041965   109.51547194   181.48972760
 O      3   2   1     2.716295458729   110.64159214   292.86178916
 H      3   2   1     2.073173114191   109.48090870   177.33656596
 C      1   2   3     2.559280795258   121.31097270   122.55004870
 C      6   1   2     2.527262939340   123.10785977   232.03283655
 H     16   6   1     2.053565350620   121.32034113   358.92270398
 H     16   6   1     2.055076683113   120.97694287   178.36725043
 C     15   1   2     2.730163614673   125.98325687   185.06378073
 H     15   1   2     2.058658340062   116.31772829     3.09350660
 C     19  15   1     2.551143624590   126.59414285   185.24881733
 H     19  15   1     2.055493590243   115.71185281     5.92692849
 C     21  19  15     2.848667324593   125.77283290     1.82945770
 C     23  21  19     2.912723783490   111.68549821   125.74312226
 H     23  21  19     2.066280478013   112.31188175     2.02067873
 H     23  21  19     2.081989740420   107.84789498   244.36438123
 C     24  23  21     2.900406333590   112.70349531    50.69687049
 H     24  23  21     2.073696846198   109.02453919   288.57391692
 H     24  23  21     2.072818004895   109.10272602   172.65516956
 C     27  24  23     2.900640649230   111.86825817   306.34138509
 H     27  24  23     2.069261848189   108.96236688   182.75467581
 H     27  24  23     2.079640806418   109.25473565    66.25466050
 C     21  19  15     2.830097121717   122.64242446   180.36748138
 H     33  21  19     2.089974657593   106.42394816   126.11738932
 C     33  21  19     2.880391187603   121.12084048     3.47059964
 H     13   3   2     1.829082929059   107.59930113    41.90687100
 C     35  33  21     2.924746172247   103.30689123   195.07938476
 H     35  33  21     2.069484275990   112.25537295    73.30404599
 H     35  33  21     2.070716435757   110.74912015   313.57459016
 C     30  27  24     2.940625987957   115.81415404   166.48677166
 H     37  35  33     2.066071696853   111.08232423   252.12259103
 H     37  35  33     2.071934439878   111.26078452   133.83159756
 H     40  30  27     2.081404598282   105.77832425   322.36019789
 C     40  30  27     2.900325941030   117.98774816    83.31620487
 C     30  27  24     2.901175338972   111.07036002   294.73806205
 H     45  30  27     2.068641353307   111.76239525   187.17839763
 H     45  30  27     2.068252857675   111.34036505    67.23579736
 H     45  30  27     2.069586823432   110.83826306   307.19568642
 H     44  40  30     2.081598483634   107.28047982    62.44636698
 C     44  40  30     2.909639217035   114.19738245   303.61091074
 C     44  40  30     2.861080529577   113.60828287   180.17955883
 C     51  44  40     2.519127840067   126.99549228    23.76029766
 H     51  44  40     2.062416453380   113.91555468   199.12790040
 H     52  51  44     2.057639964545   118.84834736   355.92049760
 C     52  51  44     2.852322458147   126.19631763   174.61526072
 C     55  52  51     2.892217887638   113.16665870    19.81893822
 C     55  52  51     2.939044216909   110.61412474   253.60645407
 H     55  52  51     2.085666061711   106.89556885   138.52526761
 H     57  55  52     2.082085657094   106.58266761    65.90023068
 C     57  55  52     2.895312680546   112.05289042   307.72270131
 C     57  55  52     2.894340846196   111.75937410   184.33903436
 H     56  55  52     2.072614984881   111.35687486   288.21014334
 H     56  55  52     2.065261280699   111.09767096   168.13597532
 H     56  55  52     2.068913211632   110.78075003    48.38895725
 H     60  57  55     2.067198010743   112.14860208    63.66619400
 H     60  57  55     2.075005298546   110.61755569   303.00951658
 H     60  57  55     2.069940632851   110.41561189   183.83943799
 H     61  57  55     2.066201319091   112.45676618   296.64767145
 H     61  57  55     2.070368079540   110.35242384   176.48155916
 H     61  57  55     2.074741938539   110.39913248    57.51363162
 H     50  44  40     2.065412625915   112.14116479    67.47969766
 H     50  44  40     2.072205159054   110.31915789   306.31743413
 H     50  44  40     2.070870678349   110.28669715   187.44978821

---------------------
BASIS SET INFORMATION
---------------------
There are 3 groups of distinct atoms

 Group   1 Type C   : 7s4p contracted to 4s3p pattern {4111/211}
 Group   2 Type H   : 5s contracted to 3s pattern {311}
 Group   3 Type O   : 7s4p contracted to 4s3p pattern {4111/211}

Atom   0C    basis set group =>   1
Atom   1C    basis set group =>   1
Atom   2C    basis set group =>   1
Atom   3H    basis set group =>   2
Atom   4H    basis set group =>   2
Atom   5C    basis set group =>   1
Atom   6C    basis set group =>   1
Atom   7C    basis set group =>   1
Atom   8H    basis set group =>   2
Atom   9H    basis set group =>   2
Atom  10H    basis set group =>   2
Atom  11H    basis set group =>   2
Atom  12O    basis set group =>   3
Atom  13H    basis set group =>   2
Atom  14C    basis set group =>   1
Atom  15C    basis set group =>   1
Atom  16H    basis set group =>   2
Atom  17H    basis set group =>   2
Atom  18C    basis set group =>   1
Atom  19H    basis set group =>   2
Atom  20C    basis set group =>   1
Atom  21H    basis set group =>   2
Atom  22C    basis set group =>   1
Atom  23C    basis set group =>   1
Atom  24H    basis set group =>   2
Atom  25H    basis set group =>   2
Atom  26C    basis set group =>   1
Atom  27H    basis set group =>   2
Atom  28H    basis set group =>   2
Atom  29C    basis set group =>   1
Atom  30H    basis set group =>   2
Atom  31H    basis set group =>   2
Atom  32C    basis set group =>   1
Atom  33H    basis set group =>   2
Atom  34C    basis set group =>   1
Atom  35H    basis set group =>   2
Atom  36C    basis set group =>   1
Atom  37H    basis set group =>   2
Atom  38H    basis set group =>   2
Atom  39C    basis set group =>   1
Atom  40H    basis set group =>   2
Atom  41H    basis set group =>   2
Atom  42H    basis set group =>   2
Atom  43C    basis set group =>   1
Atom  44C    basis set group =>   1
Atom  45H    basis set group =>   2
Atom  46H    basis set group =>   2
Atom  47H    basis set group =>   2
Atom  48H    basis set group =>   2
Atom  49C    basis set group =>   1
Atom  50C    basis set group =>   1
Atom  51C    basis set group =>   1
Atom  52H    basis set group =>   2
Atom  53H    basis set group =>   2
Atom  54C    basis set group =>   1
Atom  55C    basis set group =>   1
Atom  56C    basis set group =>   1
Atom  57H    basis set group =>   2
Atom  58H    basis set group =>   2
Atom  59C    basis set group =>   1
Atom  60C    basis set group =>   1
Atom  61H    basis set group =>   2
Atom  62H    basis set group =>   2
Atom  63H    basis set group =>   2
Atom  64H    basis set group =>   2
Atom  65H    basis set group =>   2
Atom  66H    basis set group =>   2
Atom  67H    basis set group =>   2
Atom  68H    basis set group =>   2
Atom  69H    basis set group =>   2
Atom  70H    basis set group =>   2
Atom  71H    basis set group =>   2
Atom  72H    basis set group =>   2

-------------------------
BASIS SET IN INPUT FORMAT
-------------------------

 # Basis set for element : H 
 NewGTO H 
 S 3 
   1    1357.7500000000      0.0012928364
   2      54.3100000000      0.0588280685
   3       4.3448000000      0.9761499708
 S 1 
   1       0.6604910000      1.0000000000
 S 1 
   1       0.1366870000      1.0000000000
  end;

 # Basis set for element : C 
 NewGTO C 
 S 4 
   1  139534.0000000000      0.0001655246
   2    5581.3600000000      0.0074486101
   3     446.5090000000      0.1285821065
   4      67.4620000000      0.9218029311
 S 1 
   1      15.0674000000      1.0000000000
 S 1 
   1       3.9387600000      1.0000000000
 S 1 
   1       0.2999150000      1.0000000000
 P 2 
   1      28.3900000000      0.0816325586
   2       4.3676900000      0.9660360576
 P 1 
   1       0.8698170000      1.0000000000
 P 1 
   1       0.1889340000      1.0000000000
  end;

 # Basis set for element : O 
 NewGTO O 
 S 4 
   1  253789.0000000000      0.0001641076
   2   10151.6000000000      0.0074010921
   3     812.1250000000      0.1277711901
   4     122.6930000000      0.9223372164
 S 1 
   1      27.5608000000      1.0000000000
 S 1 
   1       7.3172600000      1.0000000000
 S 1 
   1       0.5792400000      1.0000000000
 P 2 
   1      53.4157000000      0.0793786106
   2       8.2177900000      0.9670506337
 P 1 
   1       1.6754400000      1.0000000000
 P 1 
   1       0.3506720000      1.0000000000
  end;

---------------------------------
AUXILIARY/J BASIS SET INFORMATION
---------------------------------
There are 3 groups of distinct atoms

 Group   1 Type C   : 12s5p4d2f1g contracted to 6s4p3d1f1g pattern {711111/2111/211/2/1}
 Group   2 Type H   : 5s2p1d contracted to 3s1p1d pattern {311/2/1}
 Group   3 Type O   : 12s5p4d2f1g contracted to 6s4p3d1f1g pattern {711111/2111/211/2/1}

Atom   0C    basis set group =>   1
Atom   1C    basis set group =>   1
Atom   2C    basis set group =>   1
Atom   3H    basis set group =>   2
Atom   4H    basis set group =>   2
Atom   5C    basis set group =>   1
Atom   6C    basis set group =>   1
Atom   7C    basis set group =>   1
Atom   8H    basis set group =>   2
Atom   9H    basis set group =>   2
Atom  10H    basis set group =>   2
Atom  11H    basis set group =>   2
Atom  12O    basis set group =>   3
Atom  13H    basis set group =>   2
Atom  14C    basis set group =>   1
Atom  15C    basis set group =>   1
Atom  16H    basis set group =>   2
Atom  17H    basis set group =>   2
Atom  18C    basis set group =>   1
Atom  19H    basis set group =>   2
Atom  20C    basis set group =>   1
Atom  21H    basis set group =>   2
Atom  22C    basis set group =>   1
Atom  23C    basis set group =>   1
Atom  24H    basis set group =>   2
Atom  25H    basis set group =>   2
Atom  26C    basis set group =>   1
Atom  27H    basis set group =>   2
Atom  28H    basis set group =>   2
Atom  29C    basis set group =>   1
Atom  30H    basis set group =>   2
Atom  31H    basis set group =>   2
Atom  32C    basis set group =>   1
Atom  33H    basis set group =>   2
Atom  34C    basis set group =>   1
Atom  35H    basis set group =>   2
Atom  36C    basis set group =>   1
Atom  37H    basis set group =>   2
Atom  38H    basis set group =>   2
Atom  39C    basis set group =>   1
Atom  40H    basis set group =>   2
Atom  41H    basis set group =>   2
Atom  42H    basis set group =>   2
Atom  43C    basis set group =>   1
Atom  44C    basis set group =>   1
Atom  45H    basis set group =>   2
Atom  46H    basis set group =>   2
Atom  47H    basis set group =>   2
Atom  48H    basis set group =>   2
Atom  49C    basis set group =>   1
Atom  50C    basis set group =>   1
Atom  51C    basis set group =>   1
Atom  52H    basis set group =>   2
Atom  53H    basis set group =>   2
Atom  54C    basis set group =>   1
Atom  55C    basis set group =>   1
Atom  56C    basis set group =>   1
Atom  57H    basis set group =>   2
Atom  58H    basis set group =>   2
Atom  59C    basis set group =>   1
Atom  60C    basis set group =>   1
Atom  61H    basis set group =>   2
Atom  62H    basis set group =>   2
Atom  63H    basis set group =>   2
Atom  64H    basis set group =>   2
Atom  65H    basis set group =>   2
Atom  66H    basis set group =>   2
Atom  67H    basis set group =>   2
Atom  68H    basis set group =>   2
Atom  69H    basis set group =>   2
Atom  70H    basis set group =>   2
Atom  71H    basis set group =>   2
Atom  72H    basis set group =>   2

-------------------------------------
AUXILIARY/J BASIS SET IN INPUT FORMAT
-------------------------------------

 # Auxiliary/J basis set for element : H 
 NewAuxJGTO H 
 S 3 
   1      15.6752927000      0.1007184237
   2       3.6063578000      0.3404257499
   3       1.2080016000      0.6491996172
 S 1 
   1       0.4726794000      1.0000000000
 S 1 
   1       0.2018100000      1.0000000000
 P 2 
   1       2.0281365000      0.5596620919
   2       0.5358730000      0.5596620919
 D 1 
   1       2.2165124000      1.0000000000
  end;

 # Auxiliary/J basis set for element : C 
 NewAuxJGTO C 
 S 7 
   1    1861.0916331000      0.0134602335
   2     642.9939764000      0.0299160374
   3     235.1105725000      0.1008649584
   4      90.7028894000      0.2370970548
   5      36.7794552000      0.3924037254
   6      15.6046273000      0.3195862154
   7       6.8907294000      0.0530104441
 S 1 
   1       3.1478850000     -1.0000000000
 S 1 
   1       1.4777287000      1.0000000000
 S 1 
   1       0.7076466000      1.0000000000
 S 1 
   1       0.3430122000      1.0000000000
 S 1 
   1       0.1669453000      1.0000000000
 P 2 
   1      13.5472892000     -0.6769313712
   2       5.4669419000     -0.3779500978
 P 1 
   1       2.1751721000      1.0000000000
 P 1 
   1       0.8582194000      1.0000000000
 P 1 
   1       0.3376720000      1.0000000000
 D 2 
   1       5.9287253000     -0.3533329857
   2       1.9809209000     -0.7456525731
 D 1 
   1       0.8055417000     -1.0000000000
 D 1 
   1       0.3531244000     -1.0000000000
 F 2 
   1       1.6755626000      0.6311076882
   2       0.5997536000      0.4968166032
 G 1 
   1       1.0024600000     -1.0000000000
  end;

 # Auxiliary/J basis set for element : O 
 NewAuxJGTO O 
 S 7 
   1    2876.8216605000      0.0168151159
   2    1004.7443032000      0.0340137548
   3     369.7579954000      0.1194951309
   4     142.9442404000      0.2664627624
   5      57.8366425000      0.4202764046
   6      24.3864983000      0.2765077335
   7      10.6622662000      0.0057008815
 S 1 
   1       4.8070437000     -1.0000000000
 S 1 
   1       2.2210770000      1.0000000000
 S 1 
   1       1.0447795000      1.0000000000
 S 1 
   1       0.4968425000      1.0000000000
 S 1 
   1       0.2371384000      1.0000000000
 P 2 
   1      64.2613382000     -0.2731534179
   2      16.3006076000     -0.8168011598
 P 1 
   1       4.3550542000      1.0000000000
 P 1 
   1       1.2019554000      1.0000000000
 P 1 
   1       0.3354196000      1.0000000000
 D 2 
   1       9.2146611000     -0.4661230638
   2       2.8435251000     -0.6600908911
 D 1 
   1       0.9955759000     -1.0000000000
 D 1 
   1       0.3649441000     -1.0000000000
 F 2 
   1       2.6420115000      0.5931563945
   2       0.7345613000      0.5931563945
 G 1 
   1       1.3931000000     -1.0000000000
  end;



           ************************************************************
           *        Program running with 4 parallel MPI-processes     *
           *              working on a common directory               *
           ************************************************************
------------------------------------------------------------------------------
                           ORCA GTO INTEGRAL CALCULATION
                           -- RI-GTO INTEGRALS CHOSEN --
------------------------------------------------------------------------------
------------------------------------------------------------------------------
                   ___                                                        
                  /   \      - P O W E R E D   B Y -                         
                 /     \                                                     
                 |  |  |   _    _      __       _____    __    __             
                 |  |  |  | |  | |    /  \     |  _  \  |  |  /  |          
                  \  \/   | |  | |   /    \    | | | |  |  | /  /          
                 / \  \   | |__| |  /  /\  \   | |_| |  |  |/  /          
                |  |  |   |  __  | /  /__\  \  |    /   |      \           
                |  |  |   | |  | | |   __   |  |    \   |  |\   \          
                \     /   | |  | | |  |  |  |  | |\  \  |  | \   \       
                 \___/    |_|  |_| |__|  |__|  |_| \__\ |__|  \__/        
                                                                              
                      - O R C A' S   B I G   F R I E N D -                    
                                      &                                       
                       - I N T E G R A L  F E E D E R -                       
                                                                              
 v1 FN, 2020, v2 2021                                                         
------------------------------------------------------------------------------


Reading SHARK input file inpJ.SHARKINP.tmp ... ok
----------------------
SHARK INTEGRAL PACKAGE
----------------------

Number of atoms                             ...     73
Number of basis functions                   ...    509
Number of shells                            ...    335
Maximum angular momentum                    ...      1
Integral batch strategy                     ... SHARK/LIBINT Hybrid
RI-J (if used) integral strategy            ... SPLIT-RIJ (Revised 2003 algorithm where possible)
Printlevel                                  ...      1
Contraction scheme used                     ... SEGMENTED contraction
Coulomb Range Separation                    ... NOT USED
Exchange Range Separation                   ... NOT USED
Finite Nucleus Model                        ... NOT USED
Auxiliary Coulomb fitting basis             ... AVAILABLE
   # of basis functions in Aux-J            ...   1905
   # of shells in Aux-J                     ...    655
   Maximum angular momentum in Aux-J        ...      4
Auxiliary J/K fitting basis                 ... NOT available
Auxiliary Correlation fitting basis         ... NOT available
Auxiliary 'external' fitting basis          ... NOT available
Integral threshold                          ...     3.000000e-11
Primitive cut-off                           ...     1.000000e-12
Primitive pair pre-selection threshold      ...     1.000000e-12

Calculating pre-screening integrals         ... done (  0.0 sec) Dimension = 335
Organizing shell pair data                  ... done (  0.1 sec)
Shell pair information
Total number of shell pairs                 ...     56280
Shell pairs after pre-screening             ...     21983
Total number of primitive shell pairs       ...    145865
Primitive shell pairs kept                  ...     37804
          la=0 lb=0:  11060 shell pairs
          la=1 lb=0:   9040 shell pairs
          la=1 lb=1:   1883 shell pairs

Calculating one electron integrals          ... done (  0.0 sec)
Calculating RI/J V-Matrix + Cholesky decomp.... done (  0.2 sec)
Calculating Nuclear repulsion               ... done (  0.0 sec) ENN=   2792.485175336531 Eh

SHARK setup successfully completed in   0.4 seconds

Maximum memory used throughout the entire GTOINT-calculation: 46.4 MB


           ************************************************************
           *        Program running with 4 parallel MPI-processes     *
           *              working on a common directory               *
           ************************************************************
-------------------------------------------------------------------------------
                                 ORCA SCF
-------------------------------------------------------------------------------

------------
SCF SETTINGS
------------
Hamiltonian:
 Density Functional     Method          .... DFT(GTOs)
 Exchange Functional    Exchange        .... PBE
   PBE kappa parameter   XKappa         ....  0.804000
   PBE mue parameter    XMuePBE         ....  0.219520
 Correlation Functional Correlation     .... PBE
   PBE beta parameter  CBetaPBE         ....  0.066725
 LDA part of GGA corr.  LDAOpt          .... PW91-LDA
 Gradients option       PostSCFGGA      .... off
 Hybrid DFT is turned on
   Fraction HF Exchange ScalHFX         ....  0.250000
   Scaling of DF-GGA-X  ScalDFX         ....  0.750000
   Scaling of DF-GGA-C  ScalDFC         ....  1.000000
   Scaling of DF-LDA-C  ScalLDAC        ....  1.000000
   Perturbative correction              ....  0.000000
   Density functional embedding theory  .... OFF
   NL short-range parameter             ....  6.900000
 RI-approximation to the Coulomb term is turned on
   Number of AuxJ basis functions       .... 1905
   RIJ-COSX (HFX calculated with COS-X)).... on


General Settings:
 Integral files         IntName         .... inpJ
 Hartree-Fock type      HFTyp           .... RHF
 Total Charge           Charge          ....    0
 Multiplicity           Mult            ....    1
 Number of Electrons    NEL             ....  220
 Basis Dimension        Dim             ....  509
 Nuclear Repulsion      ENuc            ....   2792.4851753365 Eh

Convergence Acceleration:
 DIIS                   CNVDIIS         .... on
   Start iteration      DIISMaxIt       ....    12
   Startup error        DIISStart       ....  0.200000
   # of expansion vecs  DIISMaxEq       ....     5
   Bias factor          DIISBfac        ....   1.050
   Max. coefficient     DIISMaxC        ....  10.000
 Trust-Rad. Augm. Hess. CNVTRAH         .... auto
   Auto Start mean grad. ratio tolernc. ....  1.125000
   Auto Start start iteration           ....    20
   Auto Start num. interpolation iter.  ....    10
   Max. Number of Micro iterations      ....    16
   Max. Number of Macro iterations      .... Maxiter - #DIIS iter
   Number of Davidson start vectors     ....     2
   Converg. threshold I  (grad. norm)   ....   1.000e-04
   Converg. threshold II (energy diff.) ....   1.000e-07
   Grad. Scal. Fac. for Micro threshold ....   0.100
   Minimum threshold for Micro iter.    ....   0.010
   NR start threshold (gradient norm)   ....   0.001
   Initial trust radius                 ....   0.400
   Minimum AH scaling param. (alpha)    ....   1.000
   Maximum AH scaling param. (alpha)    .... 1000.000
   Orbital update algorithm             .... Taylor
   White noise on init. David. guess    .... on
   Maximum white noise                  ....   0.010
   Quad. conv. algorithm                .... NR
 SOSCF                  CNVSOSCF        .... off
 Level Shifting         CNVShift        .... on
   Level shift para.    LevelShift      ....    0.2500
   Turn off err/grad.   ShiftErr        ....    0.0010
 Zerner damping         CNVZerner       .... off
 Static damping         CNVDamp         .... on
   Fraction old density DampFac         ....    0.7000
   Max. Damping (<1)    DampMax         ....    0.9800
   Min. Damping (>=0)   DampMin         ....    0.0000
   Turn off err/grad.   DampErr         ....    0.1000
 Fernandez-Rico         CNVRico         .... off

SCF Procedure:
 Maximum # iterations   MaxIter         ....   125
 SCF integral mode      SCFMode         .... Direct
   Integral package                     .... SHARK and LIBINT hybrid scheme
 Reset frequency        DirectResetFreq ....    20
 Integral Threshold     Thresh          ....  3.000e-11 Eh
 Primitive CutOff       TCut            ....  1.000e-12 Eh

Convergence Tolerance:
 Convergence Check Mode ConvCheckMode   .... Total+1el-Energy
 Convergence forced     ConvForced      .... 0
 Energy Change          TolE            ....  1.000e-07 Eh
 1-El. energy change                    ....  1.000e-04 Eh
 DIIS Error             TolErr          ....  1.000e-07


Diagonalization of the overlap matrix:
Smallest eigenvalue                        ... 7.570e-03
Time for diagonalization                   ...    0.031 sec
Threshold for overlap eigenvalues          ... 1.000e-08
Number of eigenvalues below threshold      ... 0
Time for construction of square roots      ...    0.025 sec
Total time needed                          ...    0.057 sec

Time for model grid setup =    0.716 sec

------------------------------
INITIAL GUESS: MODEL POTENTIAL
------------------------------
Loading Hartree-Fock densities                     ... done
Calculating cut-offs                               ... done
Initializing the effective Hamiltonian             ... done
Setting up the integral package (SHARK)            ... done
Starting the Coulomb interaction                   ... done (   0.4 sec)
Reading the grid                                   ... done
Mapping shells                                     ... done
Starting the XC term evaluation                    ... done (   0.1 sec)
  promolecular density results
     # of electrons  =    219.972452766
     EX              =   -164.431070927
     EC              =     -7.328968945
     EX+EC           =   -171.760039872
Transforming the Hamiltonian                       ... done (   0.0 sec)
Diagonalizing the Hamiltonian                      ... done (   0.0 sec)
Back transforming the eigenvectors                 ... done (   0.0 sec)
Now organizing SCF variables                       ... done
                      ------------------
                      INITIAL GUESS DONE (   1.3 sec)
                      ------------------
-------------------
DFT GRID GENERATION
-------------------

General Integration Accuracy     IntAcc      ... 4.388
Radial Grid Type                 RadialGrid  ... OptM3 with GC (2021)
Angular Grid (max. ang.)         AngularGrid ... 4 (Lebedev-302)
Angular grid pruning method      GridPruning ... 4 (adaptive)
Weight generation scheme         WeightScheme... Becke
Basis function cutoff            BFCut       ... 1.0000e-11
Integration weight cutoff        WCut        ... 1.0000e-14
Angular grids for H and He will be reduced by one unit
Partially contracted basis set               ... off
Rotationally invariant grid construction     ... off

Total number of grid points                  ...   309822
Total number of batches                      ...     4878
Average number of points per batch           ...       63
Average number of grid points per atom       ...     4244
Time for grid setup =    2.774 sec

--------------------
COSX GRID GENERATION
--------------------

GRIDX 1
-------
General Integration Accuracy     IntAcc      ... 3.816
Radial Grid Type                 RadialGrid  ... OptM3 with GC (2021)
Angular Grid (max. ang.)         AngularGrid ... 1 (Lebedev-50)
Angular grid pruning method      GridPruning ... 4 (adaptive)
Weight generation scheme         WeightScheme... Becke
Basis function cutoff            BFCut       ... 1.0000e-11
Integration weight cutoff        WCut        ... 1.0000e-14
Angular grids for H and He will be reduced by one unit
Partially contracted basis set               ... on
Rotationally invariant grid construction     ... off

Total number of grid points                  ...    39362
Total number of batches                      ...      656
Average number of points per batch           ...       60
Average number of grid points per atom       ...      539
UseSFitting                                  ... on

GRIDX 2
-------
General Integration Accuracy     IntAcc      ... 4.020
Radial Grid Type                 RadialGrid  ... OptM3 with GC (2021)
Angular Grid (max. ang.)         AngularGrid ... 2 (Lebedev-110)
Angular grid pruning method      GridPruning ... 4 (adaptive)
Weight generation scheme         WeightScheme... Becke
Basis function cutoff            BFCut       ... 1.0000e-11
Integration weight cutoff        WCut        ... 1.0000e-14
Angular grids for H and He will be reduced by one unit
Partially contracted basis set               ... on
Rotationally invariant grid construction     ... off

Total number of grid points                  ...    81369
Total number of batches                      ...     1312
Average number of points per batch           ...       62
Average number of grid points per atom       ...     1115
UseSFitting                                  ... on

GRIDX 3
-------
General Integration Accuracy     IntAcc      ... 4.338
Radial Grid Type                 RadialGrid  ... OptM3 with GC (2021)
Angular Grid (max. ang.)         AngularGrid ... 3 (Lebedev-194)
Angular grid pruning method      GridPruning ... 4 (adaptive)
Weight generation scheme         WeightScheme... Becke
Basis function cutoff            BFCut       ... 1.0000e-11
Integration weight cutoff        WCut        ... 1.0000e-14
Angular grids for H and He will be reduced by one unit
Partially contracted basis set               ... on
Rotationally invariant grid construction     ... off

Total number of grid points                  ...   176161
Total number of batches                      ...     2791
Average number of points per batch           ...       63
Average number of grid points per atom       ...     2413
UseSFitting                                  ... on

Time for X-Grid setup             =    2.720 sec


--------------------
CPCM SOLVATION MODEL
--------------------
CPCM parameters:
  Epsilon                                         ...       4.9000
  Refrac                                          ...       1.4500
  Rsolv                                           ...       1.3000
  Surface type                                    ... GAUSSIAN VDW
  Epsilon function type                           ...         CPCM
Radii:
 Radius for C  used is    3.8550 Bohr (=   2.0400 Ang.)
 Radius for H  used is    2.4944 Bohr (=   1.3200 Ang.)
 Radius for O  used is    3.4469 Bohr (=   1.8240 Ang.)
Calculating surface                               ...        done! (  0.0s)
GEPOL surface points                              ...         3620
GEPOL Volume                                      ...    3589.5513
GEPOL Surface-area                                ...    1779.8159
Calculating surface distance matrix               ...        done! (  0.1s)
Performing Cholesky decomposition & store         ...        done! (  0.6s)
Overall time for CPCM initialization              ...                 0.7s
--------------
SCF ITERATIONS
--------------
ITER       Energy         Delta-E        Max-DP      RMS-DP      [F,P]     Damp
               ***  Starting incremental Fock matrix formation  ***

  HOMO= 109 E= -3.993 eV LUMO=  7.701 eV gap=  11.694 eV
  0  -1165.0087979499   0.000000000000 0.09754356  0.00106421  0.1969080 0.7000

  HOMO= 109 E= -4.852 eV LUMO=  7.021 eV gap=  11.872 eV
  1  -1165.2274445655  -0.218646615588 0.06544275  0.00078351  0.0953353 0.7000
                               ***Turning on DIIS***

  HOMO= 109 E= -5.447 eV LUMO=  6.474 eV gap=  11.921 eV
  2  -1165.3282593658  -0.100814800277 0.10304572  0.00138814  0.0375611 0.0000

  HOMO= 109 E= -6.003 eV LUMO=  5.945 eV gap=  11.949 eV
  3  -1165.4725532740  -0.144293908273 0.05141915  0.00057138  0.0463322 0.0000

  HOMO= 109 E= -6.073 eV LUMO=  5.874 eV gap=  11.948 eV
  4  -1165.5080489426  -0.035495668606 0.01160684  0.00013426  0.0057926 0.0000

  HOMO= 109 E= -6.023 eV LUMO=  5.932 eV gap=  11.955 eV
  5  -1165.5089016102  -0.000852667558 0.00252408  0.00003802  0.0052068 0.0000

  HOMO= 109 E= -6.009 eV LUMO=  5.946 eV gap=  11.955 eV
  6  -1165.5089813235  -0.000079713265 0.00117029  0.00001171  0.0010603 0.0000

  HOMO= 109 E= -6.011 eV LUMO= -0.858 eV gap=   5.153 eV
  7  -1165.5089863775  -0.000005054070 0.00051746  0.00000598  0.0002393 0.0000
               *** Restarting incremental Fock matrix formation ***
                                   *** Resetting DIIS ***

  HOMO= 109 E= -6.010 eV LUMO= -0.857 eV gap=   5.153 eV
  8  -1165.5089733691   0.000013008459 0.00030401  0.00000270  0.0001194 0.0000

  HOMO= 109 E= -6.010 eV LUMO= -0.857 eV gap=   5.153 eV
  9  -1165.5089734067  -0.000000037667 0.00013498  0.00000126  0.0001589 0.0000

  HOMO= 109 E= -6.010 eV LUMO= -0.857 eV gap=   5.153 eV
 10  -1165.5089735358  -0.000000129085 0.00005906  0.00000037  0.0000290 0.0000

  HOMO= 109 E= -6.010 eV LUMO= -0.857 eV gap=   5.153 eV
 11  -1165.5089735724  -0.000000036538 0.00002305  0.00000016  0.0000165 0.0000

  HOMO= 109 E= -6.010 eV LUMO= -0.857 eV gap=   5.153 eV
 12  -1165.5089735568   0.000000015620 0.00000682  0.00000004  0.0000030 0.0000
                 **** Energy Check signals convergence ****

               *****************************************************
               *                     SUCCESS                       *
               *           SCF CONVERGED AFTER  13 CYCLES          *
               *****************************************************

Old exchange energy                            =    -42.067760017 Eh
New exchange energy                            =    -42.067779524 Eh
Exchange energy change after final integration =     -0.000019507 Eh
Total energy after final integration           =  -1165.508993083 Eh
Final COS-X integration done in                =    13.635 sec

----------------
TOTAL SCF ENERGY
----------------

Total Energy       :        -1165.50899308 Eh          -31715.11207 eV

Components:
Nuclear Repulsion  :         2792.48517534 Eh           75987.38474 eV
Electronic Energy  :        -3957.99416842 Eh         -107702.49681 eV
One Electron Energy:        -7126.73482679 Eh         -193928.31376 eV
Two Electron Energy:         3168.74065837 Eh           86225.81695 eV
Max COSX asymmetry :            0.00000205 Eh               0.00006 eV
CPCM Dielectric    :           -0.01362302 Eh              -0.37070 eV

Virial components:
Potential Energy   :        -2322.40531863 Eh          -63195.86154 eV
Kinetic Energy     :         1156.89632555 Eh           31480.74947 eV
Virial Ratio       :            2.00744463


DFT components:
N(Alpha)           :      110.000123429803 electrons
N(Beta)            :      110.000123429803 electrons
N(Total)           :      220.000246859605 electrons
E(X)               :     -125.745686697203 Eh       
E(C)               :       -7.329219814952 Eh       
E(XC)              :     -133.074906512155 Eh       
DFET-embed. en.    :        0.000000000000 Eh       
CPCM Solvation Model Properties:
Surface-charge          :           -0.03442181
Charge-correction       :           -0.00008938 Eh              -0.00243 eV
Free-energy (cav+disp)  :  This term is not implemented in the current solvation scheme

---------------
SCF CONVERGENCE
---------------

  Last Energy change         ...   -1.9281e-08  Tolerance :   1.0000e-07
  Last MAX-Density change    ...    0.0000e+00  Tolerance :   1.0000e-05
  Last RMS-Density change    ...    0.0000e+00  Tolerance :   1.0000e-06
  Last DIIS Error            ...    1.9237e-06  Tolerance :   1.0000e-07

             **** THE GBW FILE WAS UPDATED (inpJ.gbw) ****
             **** DENSITY inpJ.scfp WAS UPDATED ****
             **** ENERGY FILE WAS UPDATED (inpJ.en.tmp) ****
             **** THE GBW FILE WAS UPDATED (inpJ.gbw) ****
             **** DENSITY inpJ.scfp WAS UPDATED ****
----------------
ORBITAL ENERGIES
----------------

  NO   OCC          E(Eh)            E(eV) 
   0   2.0000     -19.212367      -522.7951 
   1   2.0000     -10.300446      -280.2894 
   2   2.0000     -10.270350      -279.4704 
   3   2.0000     -10.268273      -279.4139 
   4   2.0000     -10.263537      -279.2850 
   5   2.0000     -10.257420      -279.1186 
   6   2.0000     -10.256924      -279.1051 
   7   2.0000     -10.251587      -278.9599 
   8   2.0000     -10.251425      -278.9555 
   9   2.0000     -10.250364      -278.9266 
  10   2.0000     -10.248040      -278.8634 
  11   2.0000     -10.247655      -278.8529 
  12   2.0000     -10.245826      -278.8031 
  13   2.0000     -10.244372      -278.7635 
  14   2.0000     -10.244240      -278.7599 
  15   2.0000     -10.243534      -278.7407 
  16   2.0000     -10.242901      -278.7235 
  17   2.0000     -10.241727      -278.6915 
  18   2.0000     -10.241581      -278.6876 
  19   2.0000     -10.241322      -278.6805 
  20   2.0000     -10.240060      -278.6462 
  21   2.0000     -10.233967      -278.4804 
  22   2.0000     -10.233874      -278.4779 
  23   2.0000     -10.232639      -278.4442 
  24   2.0000     -10.227006      -278.2910 
  25   2.0000     -10.224725      -278.2289 
  26   2.0000     -10.224704      -278.2283 
  27   2.0000     -10.224503      -278.2229 
  28   2.0000     -10.220590      -278.1164 
  29   2.0000      -1.043136       -28.3852 
  30   2.0000      -0.901439       -24.5294 
  31   2.0000      -0.882173       -24.0051 
  32   2.0000      -0.860181       -23.4067 
  33   2.0000      -0.845810       -23.0157 
  34   2.0000      -0.822344       -22.3771 
  35   2.0000      -0.814196       -22.1554 
  36   2.0000      -0.795870       -21.6567 
  37   2.0000      -0.795024       -21.6337 
  38   2.0000      -0.777445       -21.1554 
  39   2.0000      -0.758207       -20.6319 
  40   2.0000      -0.740217       -20.1423 
  41   2.0000      -0.733385       -19.9564 
  42   2.0000      -0.715113       -19.4592 
  43   2.0000      -0.702946       -19.1281 
  44   2.0000      -0.702270       -19.1097 
  45   2.0000      -0.695881       -18.9359 
  46   2.0000      -0.670531       -18.2461 
  47   2.0000      -0.663207       -18.0468 
  48   2.0000      -0.631738       -17.1905 
  49   2.0000      -0.622118       -16.9287 
  50   2.0000      -0.612494       -16.6668 
  51   2.0000      -0.607317       -16.5259 
  52   2.0000      -0.596536       -16.2326 
  53   2.0000      -0.586875       -15.9697 
  54   2.0000      -0.566554       -15.4167 
  55   2.0000      -0.541038       -14.7224 
  56   2.0000      -0.530234       -14.4284 
  57   2.0000      -0.529019       -14.3953 
  58   2.0000      -0.515081       -14.0161 
  59   2.0000      -0.511760       -13.9257 
  60   2.0000      -0.501037       -13.6339 
  61   2.0000      -0.493519       -13.4293 
  62   2.0000      -0.481623       -13.1056 
  63   2.0000      -0.477957       -13.0059 
  64   2.0000      -0.473689       -12.8897 
  65   2.0000      -0.468891       -12.7592 
  66   2.0000      -0.465133       -12.6569 
  67   2.0000      -0.460931       -12.5426 
  68   2.0000      -0.459091       -12.4925 
  69   2.0000      -0.451056       -12.2739 
  70   2.0000      -0.449471       -12.2307 
  71   2.0000      -0.442661       -12.0454 
  72   2.0000      -0.439810       -11.9679 
  73   2.0000      -0.433267       -11.7898 
  74   2.0000      -0.432276       -11.7628 
  75   2.0000      -0.421689       -11.4747 
  76   2.0000      -0.418230       -11.3806 
  77   2.0000      -0.415313       -11.3012 
  78   2.0000      -0.409609       -11.1460 
  79   2.0000      -0.403747       -10.9865 
  80   2.0000      -0.401406       -10.9228 
  81   2.0000      -0.398869       -10.8538 
  82   2.0000      -0.394397       -10.7321 
  83   2.0000      -0.389073       -10.5872 
  84   2.0000      -0.388553       -10.5731 
  85   2.0000      -0.381266       -10.3748 
  86   2.0000      -0.375093       -10.2068 
  87   2.0000      -0.373321       -10.1586 
  88   2.0000      -0.366563        -9.9747 
  89   2.0000      -0.362791        -9.8720 
  90   2.0000      -0.361182        -9.8283 
  91   2.0000      -0.359792        -9.7904 
  92   2.0000      -0.354200        -9.6383 
  93   2.0000      -0.345484        -9.4011 
  94   2.0000      -0.340791        -9.2734 
  95   2.0000      -0.338966        -9.2237 
  96   2.0000      -0.336861        -9.1665 
  97   2.0000      -0.333292        -9.0693 
  98   2.0000      -0.330679        -8.9982 
  99   2.0000      -0.329887        -8.9767 
 100   2.0000      -0.327345        -8.9075 
 101   2.0000      -0.325322        -8.8525 
 102   2.0000      -0.319121        -8.6837 
 103   2.0000      -0.315262        -8.5787 
 104   2.0000      -0.310216        -8.4414 
 105   2.0000      -0.300941        -8.1890 
 106   2.0000      -0.276474        -7.5232 
 107   2.0000      -0.274927        -7.4811 
 108   2.0000      -0.255604        -6.9553 
 109   2.0000      -0.220873        -6.0103 
 110   0.0000      -0.031490        -0.8569 
 111   0.0000       0.019433         0.5288 
 112   0.0000       0.027574         0.7503 
 113   0.0000       0.080327         2.1858 
 114   0.0000       0.088824         2.4170 
 115   0.0000       0.102282         2.7832 
 116   0.0000       0.104194         2.8353 
 117   0.0000       0.106232         2.8907 
 118   0.0000       0.109375         2.9762 
 119   0.0000       0.117502         3.1974 
 120   0.0000       0.119426         3.2498 
 121   0.0000       0.121584         3.3085 
 122   0.0000       0.123851         3.3702 
 123   0.0000       0.130695         3.5564 
 124   0.0000       0.133438         3.6310 
 125   0.0000       0.134511         3.6602 
 126   0.0000       0.139254         3.7893 
 127   0.0000       0.141897         3.8612 
 128   0.0000       0.144765         3.9393 
 129   0.0000       0.153169         4.1679 
 130   0.0000       0.156261         4.2521 
 131   0.0000       0.160864         4.3773 
 132   0.0000       0.162355         4.4179 
 133   0.0000       0.163718         4.4550 
 134   0.0000       0.167001         4.5443 
 135   0.0000       0.171664         4.6712 
 136   0.0000       0.174329         4.7437 
 137   0.0000       0.175753         4.7825 
 138   0.0000       0.176785         4.8106 
 139   0.0000       0.179113         4.8739 
 140   0.0000       0.181086         4.9276 
 141   0.0000       0.185275         5.0416 
 142   0.0000       0.186977         5.0879 
 143   0.0000       0.191035         5.1983 
 144   0.0000       0.195658         5.3241 
 145   0.0000       0.197526         5.3750 
 146   0.0000       0.201691         5.4883 
 147   0.0000       0.202490         5.5100 
 148   0.0000       0.204732         5.5711 
 149   0.0000       0.205315         5.5869 
 150   0.0000       0.208948         5.6858 
 151   0.0000       0.218681         5.9506 
 152   0.0000       0.220952         6.0124 
 153   0.0000       0.225823         6.1449 
 154   0.0000       0.228949         6.2300 
 155   0.0000       0.232479         6.3261 
 156   0.0000       0.241348         6.5674 
 157   0.0000       0.245247         6.6735 
 158   0.0000       0.249990         6.8026 
 159   0.0000       0.251565         6.8454 
 160   0.0000       0.258066         7.0223 
 161   0.0000       0.259494         7.0612 
 162   0.0000       0.263761         7.1773 
 163   0.0000       0.265402         7.2220 
 164   0.0000       0.269809         7.3419 
 165   0.0000       0.272753         7.4220 
 166   0.0000       0.275234         7.4895 
 167   0.0000       0.278395         7.5755 
 168   0.0000       0.283263         7.7080 
 169   0.0000       0.289057         7.8657 
 170   0.0000       0.295815         8.0495 
 171   0.0000       0.298313         8.1175 
 172   0.0000       0.302771         8.2388 
 173   0.0000       0.304334         8.2813 
 174   0.0000       0.310720         8.4551 
 175   0.0000       0.318518         8.6673 
 176   0.0000       0.326267         8.8782 
 177   0.0000       0.332290         9.0421 
 178   0.0000       0.343772         9.3545 
 179   0.0000       0.356323         9.6960 
 180   0.0000       0.361785         9.8447 
 181   0.0000       0.379815        10.3353 
 182   0.0000       0.382586        10.4107 
 183   0.0000       0.410066        11.1585 
 184   0.0000       0.419928        11.4268 
 185   0.0000       0.464093        12.6286 
 186   0.0000       0.482636        13.1332 
 187   0.0000       0.497039        13.5251 
 188   0.0000       0.506558        13.7841 
 189   0.0000       0.515979        14.0405 
 190   0.0000       0.522925        14.2295 
 191   0.0000       0.530554        14.4371 
 192   0.0000       0.556311        15.1380 
 193   0.0000       0.562377        15.3031 
 194   0.0000       0.568844        15.4790 
 195   0.0000       0.573614        15.6088 
 196   0.0000       0.574111        15.6224 
 197   0.0000       0.584890        15.9157 
 198   0.0000       0.591088        16.0843 
 199   0.0000       0.605802        16.4847 
 200   0.0000       0.614873        16.7315 
 201   0.0000       0.626978        17.0609 
 202   0.0000       0.627887        17.0857 
 203   0.0000       0.637018        17.3341 
 204   0.0000       0.642167        17.4742 
 205   0.0000       0.648915        17.6579 
 206   0.0000       0.652681        17.7604 
 207   0.0000       0.660506        17.9733 
 208   0.0000       0.666107        18.1257 
 209   0.0000       0.669002        18.2045 
 210   0.0000       0.676143        18.3988 
 211   0.0000       0.682300        18.5663 
 212   0.0000       0.688158        18.7257 
 213   0.0000       0.692096        18.8329 
 214   0.0000       0.704142        19.1607 
 215   0.0000       0.707537        19.2531 
 216   0.0000       0.711659        19.3652 
 217   0.0000       0.717738        19.5306 
 218   0.0000       0.720211        19.5979 
 219   0.0000       0.725749        19.7486 
 220   0.0000       0.731684        19.9101 
 221   0.0000       0.733476        19.9589 
 222   0.0000       0.738394        20.0927 
 223   0.0000       0.740066        20.1382 
 224   0.0000       0.744054        20.2467 
 225   0.0000       0.749627        20.3984 
 226   0.0000       0.753720        20.5098 
 227   0.0000       0.757578        20.6148 
 228   0.0000       0.760256        20.6876 
 229   0.0000       0.763511        20.7762 
 230   0.0000       0.767081        20.8733 
 231   0.0000       0.777322        21.1520 
 232   0.0000       0.779852        21.2209 
 233   0.0000       0.787006        21.4155 
 234   0.0000       0.789796        21.4914 
 235   0.0000       0.795028        21.6338 
 236   0.0000       0.798317        21.7233 
 237   0.0000       0.805559        21.9204 
 238   0.0000       0.811625        22.0855 
 239   0.0000       0.818989        22.2858 
 240   0.0000       0.821726        22.3603 
 241   0.0000       0.828939        22.5566 
 242   0.0000       0.834814        22.7164 
 243   0.0000       0.847660        23.0660 
 244   0.0000       0.852393        23.1948 
 245   0.0000       0.855617        23.2825 
 246   0.0000       0.861011        23.4293 
 247   0.0000       0.862696        23.4751 
 248   0.0000       0.865093        23.5404 
 249   0.0000       0.867741        23.6124 
 250   0.0000       0.871419        23.7125 
 251   0.0000       0.872960        23.7544 
 252   0.0000       0.874920        23.8078 
 253   0.0000       0.879718        23.9384 
 254   0.0000       0.882833        24.0231 
 255   0.0000       0.884863        24.0783 
 256   0.0000       0.887616        24.1533 
 257   0.0000       0.891873        24.2691 
 258   0.0000       0.893258        24.3068 
 259   0.0000       0.896202        24.3869 
 260   0.0000       0.902326        24.5535 
 261   0.0000       0.905437        24.6382 
 262   0.0000       0.908546        24.7228 
 263   0.0000       0.910358        24.7721 
 264   0.0000       0.912851        24.8399 
 265   0.0000       0.919036        25.0082 
 266   0.0000       0.924445        25.1554 
 267   0.0000       0.926696        25.2167 
 268   0.0000       0.929142        25.2832 
 269   0.0000       0.933286        25.3960 
 270   0.0000       0.939729        25.5713 
 271   0.0000       0.945994        25.7418 
 272   0.0000       0.947442        25.7812 
 273   0.0000       0.956060        26.0157 
 274   0.0000       0.961191        26.1553 
 275   0.0000       0.963060        26.2062 
 276   0.0000       0.966358        26.2959 
 277   0.0000       0.972426        26.4611 
 278   0.0000       0.974811        26.5260 
 279   0.0000       0.981710        26.7137 
 280   0.0000       0.992649        27.0113 
 281   0.0000       0.997031        27.1306 
 282   0.0000       1.003596        27.3092 
 283   0.0000       1.006132        27.3783 
 284   0.0000       1.018877        27.7251 
 285   0.0000       1.020874        27.7794 
 286   0.0000       1.032241        28.0887 
 287   0.0000       1.038961        28.2716 
 288   0.0000       1.041461        28.3396 
 289   0.0000       1.059393        28.8276 
 290   0.0000       1.073868        29.2214 
 291   0.0000       1.075625        29.2692 
 292   0.0000       1.080144        29.3922 
 293   0.0000       1.089519        29.6473 
 294   0.0000       1.098877        29.9020 
 295   0.0000       1.109260        30.1845 
 296   0.0000       1.116502        30.3816 
 297   0.0000       1.137271        30.9467 
 298   0.0000       1.139743        31.0140 
 299   0.0000       1.155112        31.4322 
 300   0.0000       1.161998        31.6196 
 301   0.0000       1.172021        31.8923 
 302   0.0000       1.208432        32.8831 
 303   0.0000       1.212500        32.9938 
 304   0.0000       1.228709        33.4349 
 305   0.0000       1.234263        33.5860 
 306   0.0000       1.245156        33.8824 
 307   0.0000       1.281533        34.8723 
 308   0.0000       1.293490        35.1977 
 309   0.0000       1.310605        35.6634 
 310   0.0000       1.327770        36.1304 
 311   0.0000       1.334340        36.3092 
 312   0.0000       1.356104        36.9015 
 313   0.0000       1.369313        37.2609 
 314   0.0000       1.410327        38.3769 
 315   0.0000       1.491131        40.5757 
 316   0.0000       1.527066        41.5536 
 317   0.0000       1.560786        42.4711 
 318   0.0000       1.591265        43.3005 
 319   0.0000       1.675309        45.5875 
 320   0.0000       6.202130       168.7685 
 321   0.0000       6.231968       169.5805 
 322   0.0000       6.248255       170.0237 
 323   0.0000       6.269405       170.5992 
 324   0.0000       6.286552       171.0658 
 325   0.0000       6.297113       171.3531 
 326   0.0000       6.300665       171.4498 
 327   0.0000       6.313320       171.7942 
 328   0.0000       6.322187       172.0355 
 329   0.0000       6.324199       172.0902 
 330   0.0000       6.341180       172.5523 
 331   0.0000       6.350708       172.8115 
 332   0.0000       6.361426       173.1032 
 333   0.0000       6.376503       173.5135 
 334   0.0000       6.385574       173.7603 
 335   0.0000       6.390518       173.8948 
 336   0.0000       6.399205       174.1312 
 337   0.0000       6.407804       174.3652 
 338   0.0000       6.415806       174.5830 
 339   0.0000       6.422481       174.7646 
 340   0.0000       6.428386       174.9253 
 341   0.0000       6.443811       175.3450 
 342   0.0000       6.454964       175.6485 
 343   0.0000       6.466433       175.9606 
 344   0.0000       6.473830       176.1619 
 345   0.0000       6.483248       176.4181 
 346   0.0000       6.486144       176.4969 
 347   0.0000       6.494898       176.7352 
 348   0.0000       6.510236       177.1525 
 349   0.0000       6.513099       177.2304 
 350   0.0000       6.526591       177.5976 
 351   0.0000       6.534702       177.8183 
 352   0.0000       6.540859       177.9858 
 353   0.0000       6.544626       178.0883 
 354   0.0000       6.547577       178.1686 
 355   0.0000       6.553115       178.3193 
 356   0.0000       6.559814       178.5016 
 357   0.0000       6.565430       178.6544 
 358   0.0000       6.571061       178.8077 
 359   0.0000       6.575253       178.9217 
 360   0.0000       6.584341       179.1690 
 361   0.0000       6.585523       179.2012 
 362   0.0000       6.592150       179.3815 
 363   0.0000       6.598117       179.5439 
 364   0.0000       6.603272       179.6842 
 365   0.0000       6.608645       179.8304 
 366   0.0000       6.610456       179.8796 
 367   0.0000       6.613741       179.9690 
 368   0.0000       6.614502       179.9898 
 369   0.0000       6.619625       180.1291 
 370   0.0000       6.628193       180.3623 
 371   0.0000       6.628962       180.3832 
 372   0.0000       6.631506       180.4524 
 373   0.0000       6.634982       180.5470 
 374   0.0000       6.635389       180.5581 
[...]
     69 H        0.000      0.000      0.000      0.000      0.000      0.000
     70 H        0.000      0.000      0.000     -0.000      0.001      0.019
     71 H        0.000      0.000      0.000      0.000      0.001      0.014
     72 H        0.000      0.000      0.000      0.000      0.003      0.035
                 25 H       27 H       28 H       30 H       31 H       33 H  
      3 H        0.074     -0.003      0.002      0.000      0.000      0.088
      4 H        2.347     -0.106      0.060      0.000      0.000      2.597
      8 H        0.122      0.000      0.000      0.000      0.000      0.113
      9 H       -0.262      0.014      0.000      0.000      0.000     -0.308
     10 H        0.000      0.000      0.000      0.000      0.000      0.000
     11 H        0.000      0.000      0.000      0.000      0.000      0.000
     13 H       -0.038      0.000      0.000      0.000      0.000      0.000
     16 H       -0.262      0.013     -0.004     -0.030     -0.002     -0.301
     17 H       -0.241      0.012      0.000      0.000      0.000     -0.296
     19 H        0.929     -0.043      0.070      0.062      0.005      0.984
     21 H       -2.892      0.184      0.679     -0.224     -0.028     -2.424
     24 H      -13.517      4.391      2.297      0.658     -0.504     -0.164
     25 H        0.000     12.943      5.304     -0.651     -0.363     -2.234
     27 H       12.943      0.000    -13.652      4.010     13.019      0.064
     28 H        5.304    -13.652      0.000      2.619      4.135      0.285
     30 H       -0.651      4.010      2.619      0.000    -13.026      0.038
     31 H       -0.363     13.019      4.135    -13.026      0.000     -0.314
     33 H       -2.234      0.064      0.285      0.038     -0.314      0.000
     35 H       -0.027      0.001     -0.001      0.000     -0.000     -0.035
     37 H        0.275      0.006     -0.035      0.538     -0.040      6.151
     38 H        0.183      0.002     -0.028     -0.021      0.120     12.301
     40 H       -0.014      0.023      0.138     -0.001     -0.038     -0.247
     41 H        0.008      0.019     -0.030      0.012      0.092     -0.388
     42 H       -0.019      0.006     -0.005     -0.263     -0.392     -0.204
     45 H       -0.060     -0.118     -0.146     -0.152      1.828     -0.477
     46 H       -0.011     -0.211      0.021     -0.199     -0.469     -0.183
     47 H        0.017      0.038      0.060     -0.309      0.048      0.870
     48 H       -0.014      0.032      0.022      0.036      0.018      0.000
     52 H       -0.002     -0.000      0.010     -0.010      0.002      0.017
     53 H       -0.000      0.000     -0.001      0.000     -0.001     -0.003
     57 H        0.000      0.000      0.000     -0.001     -0.000     -0.000
     58 H        0.000      0.000      0.000      0.000      0.000     -0.000
     61 H        0.000      0.000      0.000      0.000      0.000      0.000
     62 H        0.000      0.000      0.000      0.000      0.000      0.000
     63 H        0.000      0.000      0.000      0.000      0.000      0.000
     64 H       -0.000      0.000      0.000     -0.000     -0.000     -0.000
     65 H        0.000      0.000      0.000     -0.000      0.000      0.000
     66 H        0.000      0.000      0.000      0.000     -0.000     -0.000
     67 H        0.000      0.000      0.000      0.000      0.000      0.000
     68 H        0.000      0.000      0.000      0.000      0.000      0.000
     69 H        0.000      0.000      0.000      0.000      0.000      0.000
     70 H        0.003     -0.004     -0.007     -0.457     -0.101      0.005
     71 H       -0.000     -0.004     -0.005      0.040     -0.001      0.002
     72 H        0.000     -0.008     -0.010      0.050     -0.061      0.007
                 35 H       37 H       38 H       40 H       41 H       42 H  
      3 H       -0.268     -0.001     -0.001      0.000      0.000      0.000
      4 H       -0.646     -0.044     -0.018      0.000      0.000      0.000
      8 H       -0.029     -0.002     -0.002      0.000     -0.000      0.000
      9 H       -0.145      0.005      0.002      0.000      0.001      0.000
     10 H       -0.389     -0.000     -0.000      0.000      0.000      0.000
     11 H       -0.144     -0.002     -0.000      0.000      0.000      0.000
     13 H       12.400      0.000      0.000      0.000      0.000      0.000
     16 H       -0.003      0.004      0.004      0.000      0.001     -0.001
     17 H       -0.001      0.005      0.004     -0.001      0.001      0.000
     19 H        0.043     -0.010      0.085      0.013     -0.006      0.004
     21 H       -0.015      0.050     -0.544     -0.010      0.062     -0.026
     24 H       -0.001     -0.050     -0.080     -0.022      0.074     -0.024
     25 H       -0.027      0.275      0.183     -0.014      0.008     -0.019
     27 H        0.001      0.006      0.002      0.023      0.019      0.006
     28 H       -0.001     -0.035     -0.028      0.138     -0.030     -0.005
     30 H        0.000      0.538     -0.021     -0.001      0.012     -0.263
     31 H       -0.000     -0.040      0.120     -0.038      0.092     -0.392
     33 H       -0.035      6.151     12.301     -0.247     -0.388     -0.204
     35 H        0.000      0.000     -0.000      0.000      0.000      0.000
     37 H        0.000      0.000    -12.113      9.423      2.172     -0.248
     38 H       -0.000    -12.113      0.000      7.349     11.200     -0.458
     40 H        0.000      9.423      7.349      0.000    -13.986      9.788
     41 H        0.000      2.172     11.200    -13.986      0.000      7.975
     42 H        0.000     -0.248     -0.458      9.788      7.975      0.000
     45 H       -0.000      0.083     -0.093     -0.107     -0.027     -0.107
     46 H        0.000      0.054      0.034     -0.072      0.018      0.958
     47 H        0.000     -0.158      0.003      0.039      0.033     -0.398
     48 H        0.000      0.135      0.005     -0.157     -0.453     10.703
     52 H        0.000     -0.007     -0.001     -0.022      0.075     -0.577
     53 H        0.000      0.008      0.014     -0.208     -0.026     -0.439
     57 H        0.000     -0.003     -0.006      0.004      0.016      0.056
     58 H        0.000      0.000      0.000      0.000     -0.001      0.000
     61 H        0.000     -0.000     -0.000      0.001      0.000     -0.006
     62 H        0.000      0.000      0.000     -0.001     -0.001     -0.001
     63 H        0.000     -0.000     -0.000     -0.000     -0.000      0.003
     64 H        0.000      0.000      0.000     -0.001     -0.001     -0.002
     65 H        0.000     -0.000     -0.000     -0.000      0.000     -0.001
     66 H        0.000      0.000      0.000     -0.000     -0.000     -0.000
     67 H        0.000      0.000      0.000     -0.000      0.000      0.001
     68 H        0.000      0.000      0.000      0.000      0.002     -0.001
     69 H        0.000      0.000      0.000     -0.001     -0.000      0.000
     70 H        0.000     -0.016     -0.002      0.035     -0.004     -0.166
     71 H        0.000     -0.025      0.030     -0.002     -0.071     -0.352
     72 H        0.000      0.063      0.008     -0.040     -0.014     -0.447
                 45 H       46 H       47 H       48 H       52 H       53 H  
      3 H        0.001     -0.000     -0.001      0.000      0.000      0.000
      4 H        0.025     -0.020     -0.021      0.000      0.000      0.000
      8 H        0.001     -0.001      0.000      0.000      0.000      0.000
      9 H       -0.003      0.003      0.000      0.000      0.000      0.000
     10 H        0.000     -0.000      0.000      0.000      0.000      0.000
     11 H        0.000      0.000      0.000      0.000      0.000      0.000
     13 H        0.000      0.000      0.000      0.000      0.000      0.000
     16 H       -0.003      0.001      0.003     -0.002      0.000      0.000
     17 H       -0.003      0.000      0.001     -0.002      0.000      0.000
     19 H        0.010     -0.011     -0.009      0.005      0.000      0.000
     21 H       -0.017      0.048      0.017     -0.015      0.001     -0.000
     24 H       -0.022     -0.022     -0.015      0.003      0.000     -0.000
     25 H       -0.060     -0.011      0.017     -0.014     -0.002     -0.000
     27 H       -0.118     -0.211      0.038      0.032     -0.000      0.000
     28 H       -0.146      0.021      0.060      0.022      0.010     -0.001
     30 H       -0.152     -0.199     -0.309      0.036     -0.010      0.000
     31 H        1.828     -0.469      0.048      0.018      0.002     -0.001
     33 H       -0.477     -0.183      0.870      0.000      0.017     -0.003
     35 H       -0.000      0.000      0.000      0.000      0.000      0.000
     37 H        0.083      0.054     -0.158      0.135     -0.007      0.008
     38 H       -0.093      0.034      0.003      0.005     -0.001      0.014
     40 H       -0.107     -0.072      0.039     -0.157     -0.022     -0.208
     41 H       -0.027      0.018      0.033     -0.453      0.075     -0.026
     42 H       -0.107      0.958     -0.398     10.703     -0.577     -0.439
     45 H        0.000    -13.652    -13.092     -0.234      0.015      0.000
     46 H      -13.652      0.000    -13.059     -0.141      0.014      0.002
     47 H      -13.092    -13.059      0.000     -0.055      0.010     -0.004
     48 H       -0.234     -0.141     -0.055      0.000      6.020     -1.916
     52 H        0.015      0.014      0.010      6.020      0.000     17.582
     53 H        0.000      0.002     -0.004     -1.916     17.582      0.000
     57 H        0.003      0.000      0.005      2.120     -2.008      5.818
     58 H       -0.000      0.000     -0.000     -0.087      0.147     -0.193
     61 H        0.000      0.000      0.000      0.031     -0.217     -0.540
     62 H        0.002      0.000      0.000      0.127     -0.251      0.619
     63 H        0.000      0.001      0.000     -0.027     -0.124     -0.368
     64 H        0.000      0.001      0.000      0.011      0.021     -0.045
     65 H       -0.000      0.000      0.000      0.012      0.026     -0.029
     66 H        0.000      0.000      0.000     -0.015      0.108      0.175
     67 H        0.000      0.000      0.000      0.016     -0.011      0.040
     68 H        0.000      0.000      0.000      0.052     -0.090      0.036
     69 H        0.000      0.000      0.000     -0.006      0.019      0.004
     70 H       -0.025     -0.076     -0.317      5.425     -0.026     -0.418
     71 H        0.024     -0.039     -0.060     12.402     -0.242      0.137
     72 H       -0.011     -0.030     -0.017      1.959     -0.207     -0.046
                 57 H       58 H       61 H       62 H       63 H       64 H  
      3 H        0.000      0.000      0.000      0.000      0.000      0.000
      4 H        0.000      0.000      0.000      0.000      0.000      0.000
      8 H        0.000      0.000      0.000      0.000      0.000      0.000
      9 H        0.000      0.000      0.000      0.000      0.000      0.000
     10 H        0.000      0.000      0.000      0.000      0.000      0.000
     11 H        0.000      0.000      0.000      0.000      0.000      0.000
     13 H        0.000      0.000      0.000      0.000      0.000      0.000
     16 H        0.000      0.000      0.000      0.000      0.000      0.000
     17 H        0.000      0.000      0.000      0.000      0.000      0.000
     19 H        0.000      0.000      0.000      0.000      0.000      0.000
     21 H        0.000      0.000      0.000      0.000      0.000      0.000
     24 H        0.000      0.000      0.000      0.000      0.000      0.000
     25 H        0.000      0.000      0.000      0.000      0.000     -0.000
     27 H        0.000      0.000      0.000      0.000      0.000      0.000
     28 H        0.000      0.000      0.000      0.000      0.000      0.000
     30 H       -0.001      0.000      0.000      0.000      0.000     -0.000
     31 H       -0.000      0.000      0.000      0.000      0.000     -0.000
     33 H       -0.000     -0.000      0.000      0.000      0.000     -0.000
     35 H        0.000      0.000      0.000      0.000      0.000      0.000
     37 H       -0.003      0.000     -0.000      0.000     -0.000      0.000
     38 H       -0.006      0.000     -0.000      0.000     -0.000      0.000
     40 H        0.004      0.000      0.001     -0.001     -0.000     -0.001
     41 H        0.016     -0.001      0.000     -0.001     -0.000     -0.001
     42 H        0.056      0.000     -0.006     -0.001      0.003     -0.002
     45 H        0.003     -0.000      0.000      0.002      0.000      0.000
     46 H        0.000      0.000      0.000      0.000      0.001      0.001
     47 H        0.005     -0.000      0.000      0.000      0.000      0.000
     48 H        2.120     -0.087      0.031      0.127     -0.027      0.011
     52 H       -2.008      0.147     -0.217     -0.251     -0.124      0.021
     53 H        5.818     -0.193     -0.540      0.619     -0.368     -0.045
     57 H        0.000      9.728     12.795      5.133      1.978     -0.204
     58 H        9.728      0.000     -0.374     -0.209     -0.417      4.170
     61 H       12.795     -0.374      0.000    -12.804    -12.455      0.060
     62 H        5.133     -0.209    -12.804      0.000    -13.364      0.029
     63 H        1.978     -0.417    -12.455    -13.364      0.000      0.011
     64 H       -0.204      4.170      0.060      0.029      0.011      0.000
     65 H       -0.376     12.679      0.027      0.042     -0.058    -12.140
     66 H       -0.441      2.514     -0.021      0.006      0.729    -12.963
     67 H       -0.244      4.199     -0.015     -0.227      0.010      2.889
     68 H       -0.461      2.444      0.016     -0.005     -0.079      0.141
     69 H       -0.379     12.814      0.074     -0.007      0.017     -0.373
     70 H        0.242     -0.040     -0.007     -0.009     -0.019      0.001
     71 H       -0.095      0.005      0.000     -0.003      0.002     -0.007
     72 H       -0.004     -0.005      0.000     -0.001     -0.003     -0.001
                 65 H       66 H       67 H       68 H       69 H       70 H  
      3 H        0.000      0.000      0.000      0.000      0.000      0.000
      4 H        0.000      0.000      0.000      0.000      0.000      0.000
      8 H        0.000      0.000      0.000      0.000      0.000      0.000
      9 H        0.000      0.000      0.000      0.000      0.000      0.000
     10 H        0.000      0.000      0.000      0.000      0.000      0.000
     11 H        0.000      0.000      0.000      0.000      0.000      0.000
     13 H        0.000      0.000      0.000      0.000      0.000      0.000
     16 H        0.000      0.000      0.000      0.000      0.000      0.000
     17 H        0.000      0.000      0.000      0.000      0.000      0.000
     19 H        0.000      0.000      0.000      0.000      0.000     -0.000
     21 H        0.000      0.000      0.000      0.000      0.000      0.001
     24 H        0.000      0.000      0.000      0.000      0.000      0.019
     25 H        0.000      0.000      0.000      0.000      0.000      0.003
     27 H        0.000      0.000      0.000      0.000      0.000     -0.004
     28 H        0.000      0.000      0.000      0.000      0.000     -0.007
     30 H       -0.000      0.000      0.000      0.000      0.000     -0.457
     31 H        0.000     -0.000      0.000      0.000      0.000     -0.101
     33 H        0.000     -0.000      0.000      0.000      0.000      0.005
     35 H        0.000      0.000      0.000      0.000      0.000      0.000
     37 H       -0.000      0.000      0.000      0.000      0.000     -0.016
     38 H       -0.000      0.000      0.000      0.000      0.000     -0.002
     40 H       -0.000     -0.000     -0.000      0.000     -0.001      0.035
     41 H        0.000     -0.000      0.000      0.002     -0.000     -0.004
     42 H       -0.001     -0.000      0.001     -0.001      0.000     -0.166
     45 H       -0.000      0.000      0.000      0.000      0.000     -0.025
     46 H        0.000      0.000      0.000      0.000      0.000     -0.076
     47 H        0.000      0.000      0.000      0.000      0.000     -0.317
     48 H        0.012     -0.015      0.016      0.052     -0.006      5.425
     52 H        0.026      0.108     -0.011     -0.090      0.019     -0.026
     53 H       -0.029      0.175      0.040      0.036      0.004     -0.418
     57 H       -0.376     -0.441     -0.244     -0.461     -0.379      0.242
     58 H       12.679      2.514      4.199      2.444     12.814     -0.040
     61 H        0.027     -0.021     -0.015      0.016      0.074     -0.007
     62 H        0.042      0.006     -0.227     -0.005     -0.007     -0.009
     63 H       -0.058      0.729      0.010     -0.079      0.017     -0.019
     64 H      -12.140    -12.963      2.889      0.141     -0.373      0.001
     65 H        0.000    -12.767     -0.380     -0.228     -0.288      0.008
     66 H      -12.767      0.000      0.183     -0.273     -0.225     -0.003
     67 H       -0.380      0.183      0.000    -13.109    -12.056     -0.002
     68 H       -0.228     -0.273    -13.109      0.000    -12.865      0.000
     69 H       -0.288     -0.225    -12.056    -12.865      0.000      0.000
     70 H        0.008     -0.003     -0.002      0.000      0.000      0.000
     71 H       -0.003      0.001     -0.000     -0.008      0.002    -11.509
     72 H        0.001     -0.001     -0.000      0.008      0.001    -13.440
                 71 H       72 H  
      3 H        0.000      0.000
      4 H        0.000      0.000
      8 H        0.000      0.000
      9 H        0.000      0.000
     10 H        0.000      0.000
     11 H        0.000      0.000
     13 H        0.000      0.000
     16 H        0.000      0.000
     17 H        0.000      0.000
     19 H        0.000      0.000
     21 H        0.001      0.003
     24 H        0.014      0.035
     25 H       -0.000      0.000
     27 H       -0.004     -0.008
     28 H       -0.005     -0.010
     30 H        0.040      0.050
     31 H       -0.001     -0.061
     33 H        0.002      0.007
     35 H        0.000      0.000
     37 H       -0.025      0.063
     38 H        0.030      0.008
     40 H       -0.002     -0.040
     41 H       -0.071     -0.014
     42 H       -0.352     -0.447
     45 H        0.024     -0.011
     46 H       -0.039     -0.030
     47 H       -0.060     -0.017
     48 H       12.402      1.959
     52 H       -0.242     -0.207
     53 H        0.137     -0.046
     57 H       -0.095     -0.004
     58 H        0.005     -0.005
     61 H        0.000      0.000
     62 H       -0.003     -0.001
     63 H        0.002     -0.003
     64 H       -0.007     -0.001
     65 H       -0.003      0.001
     66 H        0.001     -0.001
     67 H       -0.000     -0.000
     68 H       -0.008      0.008
     69 H        0.002      0.001
     70 H      -11.509    -13.440
     71 H        0.000    -13.097
     72 H      -13.097      0.000

Maximum memory used throughout the entire EPRNMR-calculation: 984.8 MB

Timings for individual modules:

Sum of individual times         ...      394.133 sec (=   6.569 min)
GTO integral calculation        ...        0.523 sec (=   0.009 min)   0.1 %
SCF iterations                  ...      102.806 sec (=   1.713 min)  26.1 %
EPR/NMR calculation             ...      290.804 sec (=   4.847 min)  73.8 %
                             ****ORCA TERMINATED NORMALLY****
TOTAL RUN TIME: 0 days 0 hours 6 minutes 34 seconds 547 msec
