
                                 *****************
                                 * O   R   C   A *
                                 *****************

                                            #,                                       
                                            ###                                      
                                            ####                                     
                                            #####                                    
                                            ######                                   
                                           ########,                                 
                                     ,,################,,,,,                         
                               ,,#################################,,                 
                          ,,##########################################,,             
                       ,#########################################, ''#####,          
                    ,#############################################,,   '####,        
                  ,##################################################,,,,####,       
                ,###########''''           ''''###############################       
              ,#####''   ,,,,##########,,,,          '''####'''          '####       
            ,##' ,,,,###########################,,,                        '##       
           ' ,,###''''                  '''############,,,                           
         ,,##''                                '''############,,,,        ,,,,,,###''
      ,#''                                            '''#######################'''  
     '                                                          ''''####''''         
             ,#######,   #######,   ,#######,      ##                                
            ,#'     '#,  ##    ##  ,#'     '#,    #''#        ######   ,####,        
            ##       ##  ##   ,#'  ##            #'  '#       #        #'  '#        
            ##       ##  #######   ##           ,######,      #####,   #    #        
            '#,     ,#'  ##    ##  '#,     ,#' ,#      #,         ##   #,  ,#        
             '#######'   ##     ##  '#######'  #'      '#     #####' # '####'        



                  #######################################################
                  #                        -***-                        #
                  #          Department of theory and spectroscopy      #
                  #    Directorship and core code : Frank Neese         #
                  #        Max Planck Institute fuer Kohlenforschung    #
                  #                Kaiser Wilhelm Platz 1               #
                  #                 D-45470 Muelheim/Ruhr               #
                  #                      Germany                        #
                  #                                                     #
                  #                  All rights reserved                #
                  #                        -***-                        #
                  #######################################################


                         Program Version 5.0.2 -  RELEASE  -


 With contributions from (in alphabetic order):
   Daniel Aravena         : Magnetic Suceptibility
   Michael Atanasov       : Ab Initio Ligand Field Theory (pilot matlab implementation)
   Alexander A. Auer      : GIAO ZORA, VPT2 properties, NMR spectrum
   Ute Becker             : Parallelization
   Giovanni Bistoni       : ED, misc. LED, open-shell LED, HFLD
   Martin Brehm           : Molecular dynamics
   Dmytro Bykov           : SCF Hessian
   Vijay G. Chilkuri      : MRCI spin determinant printing, contributions to CSF-ICE
   Dipayan Datta          : RHF DLPNO-CCSD density
   Achintya Kumar Dutta   : EOM-CC, STEOM-CC
   Dmitry Ganyushin       : Spin-Orbit,Spin-Spin,Magnetic field MRCI
   Miquel Garcia          : C-PCM and meta-GGA Hessian, CC/C-PCM, Gaussian charge scheme
   Yang Guo               : DLPNO-NEVPT2, F12-NEVPT2, CIM, IAO-localization
   Andreas Hansen         : Spin unrestricted coupled pair/coupled cluster methods
   Benjamin Helmich-Paris : MC-RPA, TRAH-SCF, COSX integrals
   Lee Huntington         : MR-EOM, pCC
   Robert Izsak           : Overlap fitted RIJCOSX, COSX-SCS-MP3, EOM
   Marcus Kettner         : VPT2
   Christian Kollmar      : KDIIS, OOCD, Brueckner-CCSD(T), CCSD density, CASPT2, CASPT2-K
   Simone Kossmann        : Meta GGA functionals, TD-DFT gradient, OOMP2, MP2 Hessian
   Martin Krupicka        : Initial AUTO-CI
   Lucas Lang             : DCDCAS
   Marvin Lechner         : AUTO-CI (C++ implementation), FIC-MRCC
   Dagmar Lenk            : GEPOL surface, SMD
   Dimitrios Liakos       : Extrapolation schemes; Compound Job, initial MDCI parallelization
   Dimitrios Manganas     : Further ROCIS development; embedding schemes
   Dimitrios Pantazis     : SARC Basis sets
   Anastasios Papadopoulos: AUTO-CI, single reference methods and gradients
   Taras Petrenko         : DFT Hessian,TD-DFT gradient, ASA, ECA, R-Raman, ABS, FL, XAS/XES, NRVS
   Peter Pinski           : DLPNO-MP2, DLPNO-MP2 Gradient
   Christoph Reimann      : Effective Core Potentials
   Marius Retegan         : Local ZFS, SOC
   Christoph Riplinger    : Optimizer, TS searches, QM/MM, DLPNO-CCSD(T), (RO)-DLPNO pert. Triples
   Tobias Risthaus        : Range-separated hybrids, TD-DFT gradient, RPA, STAB
   Michael Roemelt        : Original ROCIS implementation
   Masaaki Saitow         : Open-shell DLPNO-CCSD energy and density
   Barbara Sandhoefer     : DKH picture change effects
   Avijit Sen             : IP-ROCIS
   Kantharuban Sivalingam : CASSCF convergence, NEVPT2, FIC-MRCI
   Bernardo de Souza      : ESD, SOC TD-DFT
   Georgi Stoychev        : AutoAux, RI-MP2 NMR, DLPNO-MP2 response
   Willem Van den Heuvel  : Paramagnetic NMR
   Boris Wezisla          : Elementary symmetry handling
   Frank Wennmohs         : Technical directorship


 We gratefully acknowledge several colleagues who have allowed us to
 interface, adapt or use parts of their codes:
   Stefan Grimme, W. Hujo, H. Kruse, P. Pracht,  : VdW corrections, initial TS optimization,
                  C. Bannwarth, S. Ehlert          DFT functionals, gCP, sTDA/sTD-DF
   Ed Valeev, F. Pavosevic, A. Kumar             : LibInt (2-el integral package), F12 methods
   Garnet Chan, S. Sharma, J. Yang, R. Olivares  : DMRG
   Ulf Ekstrom                                   : XCFun DFT Library
   Mihaly Kallay                                 : mrcc  (arbitrary order and MRCC methods)
   Jiri Pittner, Ondrej Demel                    : Mk-CCSD
   Frank Weinhold                                : gennbo (NPA and NBO analysis)
   Christopher J. Cramer and Donald G. Truhlar   : smd solvation model
   Lars Goerigk                                  : TD-DFT with DH, B97 family of functionals
   V. Asgeirsson, H. Jonsson                     : NEB implementation
   FAccTs GmbH                                   : IRC, NEB, NEB-TS, DLPNO-Multilevel, CI-OPT
                                                   MM, QMMM, 2- and 3-layer-ONIOM, Crystal-QMMM,
                                                   LR-CPCM, SF, NACMEs, symmetry and pop. for TD-DFT,
                                                   nearIR, NL-DFT gradient (VV10), updates on ESD,
                                                   ML-optimized integration grids
   S Lehtola, MJT Oliveira, MAL Marques          : LibXC Library
   Liviu Ungur et al                             : ANISO software


 Your calculation uses the libint2 library for the computation of 2-el integrals
 For citations please refer to: http://libint.valeyev.net

 Your ORCA version has been built with support for libXC version: 5.1.0
 For citations please refer to: https://tddft.org/programs/libxc/

 This ORCA versions uses:
   CBLAS   interface :  Fast vector & matrix operations
   LAPACKE interface :  Fast linear algebra routines
   SCALAPACK package :  Parallel linear algebra routines
   Shared memory     :  Shared parallel matrices
   BLAS/LAPACK       :  OpenBLAS 0.3.15  USE64BITINT DYNAMIC_ARCH NO_AFFINITY Zen SINGLE_THREADED
        Core in use  :  Zen
   Copyright (c) 2011-2014, The OpenBLAS Project


Your calculation utilizes the atom-pairwise dispersion correction
based on tight binding partial charges (D4)
Cite in your paper:
E.Caldeweyher, C.Bannwarth, S.Grimme, J.Chem.Phys., (2017), 147, 034112.
E.Caldeweyher, S.Ehlert, A.Hansen, H.Neugebauer, S.Grimme, J.Chem.Phys., (2018), in progress.
   

================================================================================

----- Orbital basis set information -----
Your calculation utilizes the basis: pcJ-0
   F. Jensen, Theor. Chem. Acc. 126, 371 (2010).

----- AuxJ basis set information -----
Your calculation utilizes the auxiliary basis: def2/J
   F. Weigend, Phys. Chem. Chem. Phys. 8, 1057 (2006).

================================================================================
                                        WARNINGS
                       Please study these warnings very carefully!
================================================================================


INFO   : the flag for use of the SHARK integral package has been found!

================================================================================
                                       INPUT FILE
================================================================================
NAME = inpJ
|  1> ! pbe0
|  2> ! D4
|  3> ! pcJ-0
|  4> ! def2/J RIJCOSX
|  5> ! DEFGRID2
|  6> ! scfconv7
|  7> ! smallprint printgap noloewdin
|  8> ! NOSOSCF
|  9> %MaxCore 4000
| 10> %output
| 11>        print[P_BondOrder_M] 1
| 12>        print[P_Mayer] 1
| 13>        print[P_basis] 2
| 14> end
| 15> %pal
| 16>     nprocs 4
| 17> end
| 18> ! CPCM(chloroform)
| 19> *xyz 0 1
| 20> C   -4.9560199800   0.2531921300  -0.5282765900
| 21> C   -6.4098534400  -0.1361937700  -0.6543092600
| 22> C   -7.2962544100   0.8460520100   0.1224831500
| 23> H   -6.5716134200  -1.1569165000  -0.2894755600
| 24> H   -6.7152719300  -0.1012180900  -1.7105742800
| 25> C   -4.6750516200   1.6523903000  -0.9203821700
| 26> C   -5.5840943200   2.6756786800  -0.2760487800
| 27> C   -7.0625492800   2.2736682000  -0.3744756200
| 28> H   -5.4223635500   3.6615043900  -0.7249327200
| 29> H   -5.3121873100   2.7584050800   0.7872850300
| 30> H   -7.3906058500   2.3326777200  -1.4211978200
| 31> H   -7.6808489300   2.9689202700   0.2051372400
| 32> O   -7.0627830800   0.7304932400   1.5360027100
| 33> H   -8.3505819500   0.5776631900  -0.0185244100
| 34> C   -4.0383798100  -0.6087815100  -0.0292337200
| 35> C   -3.7266355400   1.9885228400  -1.8014638200
| 36> H   -3.0951838400   1.2362133400  -2.2666734600
| 37> H   -3.5678009300   3.0266495600  -2.0839201900
| 38> C   -2.6479211800  -0.3144676900   0.2304980100
| 39> H   -4.3996028200  -1.6050112200   0.2233766300
| 40> C   -1.7031001800  -1.1900377900   0.6345105500
| 41> H   -2.3500703000   0.7222098100   0.0900775100
| 42> C   -1.9100501700  -2.6659710600   0.8630011600
| 43> C   -0.9144854800  -3.5136669000   0.0470027000
| 44> H   -2.9324239800  -2.9824941200   0.6390094700
| 45> H   -1.7367274300  -2.8691190600   1.9318175600
| 46> C    0.5405140500  -3.0611742900   0.2327123800
| 47> H   -1.1866210000  -3.4615892700  -1.0147855300
| 48> H   -1.0124071700  -4.5655889100   0.3421246600
| 49> C    0.7140402000  -1.5625516200  -0.0512249900
| 50> H    1.1857267300  -3.6664296700  -0.4127051200
| 51> H    0.8514398300  -3.2552334700   1.2703112700
| 52> C   -0.2795249300  -0.7931321200   0.8774801500
| 53> H   -0.0282220900  -1.1392809100   1.8969838200
| 54> C    0.1632557000   0.6632721100   0.7734723400
| 55> H   -6.1079456600   0.6441628600   1.6687518200
| 56> C    1.7041269900   0.5672833700   0.6561962000
| 57> H   -0.1623275500   1.2546648100   1.6357044100
| 58> H   -0.2592318300   1.1361244600  -0.1202407500
| 59> C    2.0546741000  -0.9323224600   0.4179708700
| 60> H    2.2084612800   0.9426194200   1.5521851800
| 61> H    2.0727137900   1.1737555800  -0.1794681800
| 62> H    2.2927414400  -1.3969792600   1.3887702200
| 63> C    3.3028027300  -1.0832813000  -0.4768547300
| 64> C    0.4452806500  -1.2457956600  -1.5280832700
| 65> H    0.6675489900  -0.2001700300  -1.7648433500
| 66> H   -0.6018147100  -1.4239757000  -1.7920806400
| 67> H    1.0674869400  -1.8722403800  -2.1765486000
| 68> H    3.0980281900  -0.5853294700  -1.4361209400
| 69> C    3.6907637200  -2.5436675500  -0.7498237500
| 70> C    4.4615304400  -0.3776498800   0.1768228000
| 71> C    5.0792336600   0.6960448900  -0.3143893400
| 72> H    4.7875536000  -0.8096668300   1.1262389400
| 73> H    4.7227431200   1.0974761000  -1.2647317700
| 74> C    6.2096627700   1.4550714800   0.3372419900
| 75> C    6.9853752900   0.6097638800   1.3517302500
| 76> C    5.6858693100   2.7748099400   0.9711150900
| 77> H    6.9068174700   1.7523320000  -0.4643282700
| 78> H    5.0050374600   2.4821817000   1.7867033200
| 79> C    4.8933477100   3.6180972400  -0.0325648800
| 80> C    6.8238230200   3.6131855300   1.5612765700
| 81> H    6.3930396100   0.4342325200   2.2577498800
| 82> H    7.9133141600   1.1039561200   1.6505370500
| 83> H    7.2457858300  -0.3641073900   0.9246857400
| 84> H    3.9926665800   3.1030621600  -0.3792979300
| 85> H    5.5094361200   3.8558025600  -0.9097045400
| 86> H    4.5835234800   4.5643879400   0.4241013200
| 87> H    7.3326803700   3.1063878000   2.3859260400
| 88> H    6.4374035400   4.5641122000   1.9443275200
| 89> H    7.5703131200   3.8417466700   0.7892953400
| 90> H    2.9482161000  -3.0545224000  -1.3679678700
| 91> H    3.7943733200  -3.1012329900   0.1892572200
| 92> H    4.6510155500  -2.5869819800  -1.2752299300
| 93> *
| 94> %eprnmr
| 95>  Nuclei = all H { ssfc }
| 96>  SpinSpinRThresh 8.0
| 97> end
| 98> 
| 99>                          ****END OF INPUT****
================================================================================

                       ****************************
                       * Single Point Calculation *
                       ****************************

---------------------------------
CARTESIAN COORDINATES (ANGSTROEM)
---------------------------------
  C     -4.956020    0.253192   -0.528277
  C     -6.409853   -0.136194   -0.654309
  C     -7.296254    0.846052    0.122483
  H     -6.571613   -1.156916   -0.289476
  H     -6.715272   -0.101218   -1.710574
  C     -4.675052    1.652390   -0.920382
  C     -5.584094    2.675679   -0.276049
  C     -7.062549    2.273668   -0.374476
  H     -5.422364    3.661504   -0.724933
  H     -5.312187    2.758405    0.787285
  H     -7.390606    2.332678   -1.421198
  H     -7.680849    2.968920    0.205137
  O     -7.062783    0.730493    1.536003
  H     -8.350582    0.577663   -0.018524
  C     -4.038380   -0.608782   -0.029234
  C     -3.726636    1.988523   -1.801464
  H     -3.095184    1.236213   -2.266673
  H     -3.567801    3.026650   -2.083920
  C     -2.647921   -0.314468    0.230498
  H     -4.399603   -1.605011    0.223377
  C     -1.703100   -1.190038    0.634511
  H     -2.350070    0.722210    0.090078
  C     -1.910050   -2.665971    0.863001
  C     -0.914485   -3.513667    0.047003
  H     -2.932424   -2.982494    0.639009
  H     -1.736727   -2.869119    1.931818
  C      0.540514   -3.061174    0.232712
  H     -1.186621   -3.461589   -1.014786
  H     -1.012407   -4.565589    0.342125
  C      0.714040   -1.562552   -0.051225
  H      1.185727   -3.666430   -0.412705
  H      0.851440   -3.255233    1.270311
  C     -0.279525   -0.793132    0.877480
  H     -0.028222   -1.139281    1.896984
  C      0.163256    0.663272    0.773472
  H     -6.107946    0.644163    1.668752
  C      1.704127    0.567283    0.656196
  H     -0.162328    1.254665    1.635704
  H     -0.259232    1.136124   -0.120241
  C      2.054674   -0.932322    0.417971
  H      2.208461    0.942619    1.552185
  H      2.072714    1.173756   -0.179468
  H      2.292741   -1.396979    1.388770
  C      3.302803   -1.083281   -0.476855
  C      0.445281   -1.245796   -1.528083
  H      0.667549   -0.200170   -1.764843
  H     -0.601815   -1.423976   -1.792081
  H      1.067487   -1.872240   -2.176549
  H      3.098028   -0.585329   -1.436121
  C      3.690764   -2.543668   -0.749824
  C      4.461530   -0.377650    0.176823
  C      5.079234    0.696045   -0.314389
  H      4.787554   -0.809667    1.126239
  H      4.722743    1.097476   -1.264732
  C      6.209663    1.455071    0.337242
  C      6.985375    0.609764    1.351730
  C      5.685869    2.774810    0.971115
  H      6.906817    1.752332   -0.464328
  H      5.005037    2.482182    1.786703
  C      4.893348    3.618097   -0.032565
  C      6.823823    3.613186    1.561277
  H      6.393040    0.434233    2.257750
  H      7.913314    1.103956    1.650537
  H      7.245786   -0.364107    0.924686
  H      3.992667    3.103062   -0.379298
  H      5.509436    3.855803   -0.909705
  H      4.583523    4.564388    0.424101
  H      7.332680    3.106388    2.385926
  H      6.437404    4.564112    1.944328
  H      7.570313    3.841747    0.789295
  H      2.948216   -3.054522   -1.367968
  H      3.794373   -3.101233    0.189257
  H      4.651016   -2.586982   -1.275230

----------------------------
CARTESIAN COORDINATES (A.U.)
----------------------------
  NO LB      ZA    FRAG     MASS         X           Y           Z
   0 C     6.0000    0    12.011   -9.365520    0.478464   -0.998298
   1 C     6.0000    0    12.011  -12.112868   -0.257369   -1.236465
   2 C     6.0000    0    12.011  -13.787923    1.598807    0.231460
   3 H     1.0000    0     1.008  -12.418550   -2.186255   -0.547030
   4 H     1.0000    0     1.008  -12.690025   -0.191274   -3.232517
   5 C     6.0000    0    12.011   -8.834567    3.122565   -1.739270
   6 C     6.0000    0    12.011  -10.552409    5.056300   -0.521657
   7 C     6.0000    0    12.011  -13.346284    4.296610   -0.707656
   8 H     1.0000    0     1.008  -10.246782    6.919241   -1.369924
   9 H     1.0000    0     1.008  -10.038579    5.212630    1.487753
  10 H     1.0000    0     1.008  -13.966221    4.408122   -2.685675
  11 H     1.0000    0     1.008  -14.514701    5.610446    0.387653
  12 O     8.0000    0    15.999  -13.346726    1.380432    2.902624
  13 H     1.0000    0     1.008  -15.780313    1.091625   -0.035006
  14 C     6.0000    0    12.011   -7.631432   -1.150430   -0.055244
  15 C     6.0000    0    12.011   -7.042321    3.757764   -3.404273
  16 H     1.0000    0     1.008   -5.849050    2.336105   -4.283392
  17 H     1.0000    0     1.008   -6.742167    5.719539   -3.938038
  18 C     6.0000    0    12.011   -5.003846   -0.594258    0.435578
  19 H     1.0000    0     1.008   -8.314044   -3.033032    0.422121
  20 C     6.0000    0    12.011   -3.218393   -2.248846    1.199051
  21 H     1.0000    0     1.008   -4.440989    1.364779    0.170222
  22 C     6.0000    0    12.011   -3.609472   -5.037955    1.630836
  23 C     6.0000    0    12.011   -1.728127   -6.639868    0.088822
  24 H     1.0000    0     1.008   -5.541478   -5.636097    1.207553
  25 H     1.0000    0     1.008   -3.281939   -5.421849    3.650606
  26 C     6.0000    0    12.011    1.021424   -5.784781    0.439763
  27 H     1.0000    0     1.008   -2.242389   -6.541456   -1.917667
  28 H     1.0000    0     1.008   -1.913172   -8.627713    0.646522
  29 C     6.0000    0    12.011    1.349340   -2.952795   -0.096801
  30 H     1.0000    0     1.008    2.240699   -6.928548   -0.779900
  31 H     1.0000    0     1.008    1.608988   -6.151500    2.400540
  32 C     6.0000    0    12.011   -0.528226   -1.498802    1.658197
  33 H     1.0000    0     1.008   -0.053332   -2.152929    3.584780
  34 C     6.0000    0    12.011    0.308509    1.253403    1.461651
  35 H     1.0000    0     1.008  -11.542345    1.217291    3.153484
  36 C     6.0000    0    12.011    3.220333    1.072010    1.240031
  37 H     1.0000    0     1.008   -0.306755    2.370973    3.091033
  38 H     1.0000    0     1.008   -0.489877    2.146964   -0.227222
  39 C     6.0000    0    12.011    3.882771   -1.761834    0.789850
  40 H     1.0000    0     1.008    4.173387    1.781293    2.933205
  41 H     1.0000    0     1.008    3.916861    2.218077   -0.339146
  42 H     1.0000    0     1.008    4.332653   -2.639908    2.624395
  43 C     6.0000    0    12.011    6.241393   -2.047105   -0.901125
  44 C     6.0000    0    12.011    0.841458   -2.354213   -2.887659
  45 H     1.0000    0     1.008    1.261485   -0.378267   -3.335071
  46 H     1.0000    0     1.008   -1.137265   -2.690924   -3.386542
  47 H     1.0000    0     1.008    2.017258   -3.538022   -4.113081
  48 H     1.0000    0     1.008    5.854425   -1.106112   -2.713875
  49 C     6.0000    0    12.011    6.974533   -4.806835   -1.416962
  50 C     6.0000    0    12.011    8.431071   -0.713655    0.334147
  51 C     6.0000    0    12.011    9.598361    1.315334   -0.594110
  52 H     1.0000    0     1.008    9.047165   -1.530049    2.128283
  53 H     1.0000    0     1.008    8.924691    2.073929   -2.389997
  54 C     6.0000    0    12.011   11.734562    2.749687    0.637295
  55 C     6.0000    0    12.011   13.200446    1.152287    2.554400
  56 C     6.0000    0    12.011   10.744736    5.243631    1.835142
  57 H     1.0000    0     1.008   13.051993    3.311428   -0.877453
  58 H     1.0000    0     1.008    9.458150    4.690644    3.376380
  59 C     6.0000    0    12.011    9.247087    6.837213   -0.061539
  60 C     6.0000    0    12.011   12.895157    6.827931    2.950385
  61 H     1.0000    0     1.008   12.081094    0.820581    4.266529
  62 H     1.0000    0     1.008   14.953997    2.086175    3.119063
  63 H     1.0000    0     1.008   13.692551   -0.688063    1.747403
  64 H     1.0000    0     1.008    7.545046    5.863938   -0.716769
  65 H     1.0000    0     1.008   10.411325    7.286411   -1.719092
  66 H     1.0000    0     1.008    8.661604    8.625443    0.801435
  67 H     1.0000    0     1.008   13.856758    5.870222    4.508747
  68 H     1.0000    0     1.008   12.164930    8.624922    3.674247
  69 H     1.0000    0     1.008   14.305819    7.259849    1.491552
  70 H     1.0000    0     1.008    5.571321   -5.772211   -2.585085
  71 H     1.0000    0     1.008    7.170326   -5.860481    0.357644
  72 H     1.0000    0     1.008    8.789146   -4.888687   -2.409835

--------------------------------
INTERNAL COORDINATES (ANGSTROEM)
--------------------------------
 C      0   0   0     0.000000000000     0.00000000     0.00000000
 C      1   0   0     1.510343451815     0.00000000     0.00000000
 C      2   1   0     1.534248969424   110.41528592     0.00000000
 H      2   1   3     1.095967522933   110.75713157   237.87105706
 H      2   1   3     1.100090698398   109.82618632   118.72251589
 C      1   2   3     1.480015379690   113.85137709   305.89010151
 C      6   1   2     1.512826247966   114.36574930    50.02005661
 C      3   2   1     1.529599324274   110.16719064    56.86719991
 H      7   6   1     1.095219596269   110.21533938   188.68119253
 H      7   6   1     1.100661560532   108.29229776    71.98514298
 H      8   3   2     1.098512904132   108.30558609    64.49123484
 H      8   3   2     1.096184731469   109.51115965   181.48735824
 O      3   2   1     1.437323984966   110.64633907   292.85937737
 H      3   2   1     1.097051617874   109.48383867   177.31198914
 C      1   2   3     1.354291631721   121.25749967   122.57830078
 C      6   1   2     1.337453931624   123.14441621   232.01358854
 H     16   6   1     1.086793836186   121.33464393   358.94616090
 H     16   6   1     1.087527986337   120.96894574   178.36085887
 C     15   1   2     1.444803238491   126.06360726   184.95921275
 H     15   1   2     1.089388675803   116.28394395     3.06481221
 C     19  15   1     1.350013279391   126.52825413   185.21072639
 H     19  15   1     1.087719312389   115.75153474     5.76346236
 C     21  19  15     1.507784890066   125.74333815     1.59973609
 C     23  21  19     1.541295161820   111.68388219   125.17561576
 H     23  21  19     1.093438307393   112.37398942     1.46255182
 H     23  21  19     1.101670721683   107.81424340   243.78611258
 C     24  23  21     1.535011817430   112.71086055    50.69612374
 H     24  23  21     1.097344096516   109.02506349   288.55143375
 H     24  23  21     1.096916379570   109.10664783   172.63635435
 C     27  24  23     1.535122686255   111.87238405   306.55009130
 H     27  24  23     1.095078639531   108.92012245   183.03333246
 H     27  24  23     1.100429580909   109.26344973    66.51187387
 C     21  19  15     1.497709861694   122.81256575   179.88148874
 H     33  21  19     1.105603832914   106.41971901   126.97775797
 C     33  21  19     1.525773768291   121.18059651     4.38140389
 H     13   3   2     0.967879000366   107.59582012    41.87202197
 C     35  33  21     1.548306127213   103.57943243   196.91182318
 H     35  33  21     1.095077130083   112.05764639    74.92842928
 H     35  33  21     1.095813919032   110.83013214   315.31570360
 C     30  27  24     1.553908878598   115.95137592   166.34030212
 H     37  35  33     1.094543959273   112.04253629   249.39215253
 H     37  35  33     1.096357481225   110.97849999   130.83574379
 H     40  30  27     1.102285524772   106.33748939   321.26779002
 C     40  30  27     1.543154724198   118.88425451    82.10060901
 C     30  27  24     1.534169616801   111.08836353   294.25491815
 H     45  30  27     1.094893377713   111.70182030   185.97158755
 H     45  30  27     1.094463992535   111.48071748    65.92187191
 H     45  30  27     1.095482057700   110.62596547   305.84124752
 H     44  40  30     1.100036498886   108.10849720    62.01970705
 C     44  40  30     1.535497904535   113.60822589   301.13820468
 C     44  40  30     1.505941539383   108.95318635   179.19790825
 C     51  44  40     1.332541591699   125.04446566   245.31646312
 H     51  44  40     1.092849830872   114.92349509    65.13328071
 H     52  51  44     1.091505041550   117.76797963   359.86390012
 C     52  51  44     1.509508107729   126.38201573   177.70458514
 C     55  52  51     1.531489889611   112.81323502    22.80025649
 C     55  52  51     1.554948326616   110.51687580   257.00503687
 H     55  52  51     1.103133434449   107.16306855   141.60685858
 H     57  55  52     1.101974344408   106.52573627    65.21543767
 C     57  55  52     1.531860776633   111.98783395   307.16951878
 C     57  55  52     1.531699333579   111.79947059   183.72172536
 H     56  55  52     1.096605848101   111.22616669   288.22392130
 H     56  55  52     1.092969359250   111.19604460   168.11357157
 H     56  55  52     1.094808619529   110.67537018    48.23411394
 H     60  57  55     1.093943069602   111.99047910    62.90208461
 H     60  57  55     1.097926560038   110.62933169   302.23279019
 H     60  57  55     1.095445644760   110.40955315   183.05706258
 H     61  57  55     1.093538517910   112.49487197   296.64898956
 H     61  57  55     1.095586407609   110.34996600   176.44675558
 H     61  57  55     1.097926538339   110.37478895    57.45299811
 H     50  44  40     1.092909785310   111.92821359    67.49245063
 H     50  44  40     1.097035659088   110.79785807   306.74536706
 H     50  44  40     1.095450305056   110.14204006   187.41265573

---------------------------
INTERNAL COORDINATES (A.U.)
---------------------------
 C      0   0   0     0.000000000000     0.00000000     0.00000000
 C      1   0   0     2.854135492092     0.00000000     0.00000000
 C      2   1   0     2.899310373462   110.41528592     0.00000000
 H      2   1   3     2.071078470015   110.75713157   237.87105706
 H      2   1   3     2.078870142446   109.82618632   118.72251589
 C      1   2   3     2.796823741606   113.85137709   305.89010151
 C      6   1   2     2.858827296864   114.36574930    50.02005661
 C      3   2   1     2.890523817508   110.16719064    56.86719991
 H      7   6   1     2.069665093452   110.21533938   188.68119253
 H      7   6   1     2.079948915540   108.29229776    71.98514298
 H      8   3   2     2.075888543387   108.30558609    64.49123484
 H      8   3   2     2.071488934663   109.51115965   181.48735824
 O      3   2   1     2.716148697302   110.64633907   292.85937737
 H      3   2   1     2.073127112558   109.48383867   177.31198914
 C      1   2   3     2.559240289415   121.25749967   122.57830078
 C      6   1   2     2.527421647505   123.14441621   232.01358854
 H     16   6   1     2.053742714425   121.33464393   358.94616090
 H     16   6   1     2.055130057151   120.96894574   178.36085887
 C     15   1   2     2.730282438150   126.06360726   184.95921275
 H     15   1   2     2.058646250662   116.28394395     3.06481221
 C     19  15   1     2.551155375206   126.52825413   185.21072639
 H     19  15   1     2.055491610992   115.75153474     5.76346236
 C     21  19  15     2.849300511090   125.74333815     1.59973609
 C     23  21  19     2.912625747378   111.68388219   125.17561576
 H     23  21  19     2.066298945311   112.37398942     1.46255182
 H     23  21  19     2.081855953741   107.81424340   243.78611258
 C     24  23  21     2.900751947276   112.71086055    50.69612374
 H     24  23  21     2.073679817091   109.02506349   288.55143375
 H     24  23  21     2.072871549200   109.10664783   172.63635435
 C     27  24  23     2.900961458991   111.87238405   306.55009130
 H     27  24  23     2.069398723821   108.92012245   183.03333246
 H     27  24  23     2.079510537584   109.26344973    66.51187387
 C     21  19  15     2.830261466674   122.81256575   179.88148874
 H     33  21  19     2.089288456821   106.41971901   126.97775797
 C     33  21  19     2.883294564392   121.18059651     4.38140389
 H     13   3   2     1.829026241465   107.59582012    41.87202197
 C     35  33  21     2.925874551905   103.57943243   196.91182318
 H     35  33  21     2.069395871377   112.05764639    74.92842928
 H     35  33  21     2.070788200709   110.83013214   315.31570360
 C     30  27  24     2.936462217618   115.95137592   166.34030212
 H     37  35  33     2.068388324564   112.04253629   249.39215253
 H     37  35  33     2.071815384390   110.97849999   130.83574379
 H     40  30  27     2.083017763204   106.33748939   321.26779002
 C     40  30  27     2.916139811001   118.88425451    82.10060901
 C     30  27  24     2.899160418737   111.08836353   294.25491815
 H     45  30  27     2.069048629722   111.70182030   185.97158755
 H     45  30  27     2.068237209328   111.48071748    65.92187191
 H     45  30  27     2.070161073678   110.62596547   305.84124752
 H     44  40  30     2.078767720211   108.10849720    62.01970705
 C     44  40  30     2.901670518781   113.60822589   301.13820468
 C     44  40  30     2.845817083130   108.95318635   179.19790825
 C     51  44  40     2.518138670370   125.04446566   245.31646312
 H     51  44  40     2.065186885850   114.92349509    65.13328071
 H     52  51  44     2.062645602325   117.76797963   359.86390012
 C     52  51  44     2.852556920542   126.38201573   177.70458514
 C     55  52  51     2.894096468234   112.81323502    22.80025649
 C     55  52  51     2.938426489703   110.51687580   257.00503687
 H     55  52  51     2.084620080281   107.16306855   141.60685858
 H     57  55  52     2.082429717539   106.52573627    65.21543767
 C     57  55  52     2.894797343133   111.98783395   307.16951878
 C     57  55  52     2.894492259974   111.79947059   183.72172536
 H     56  55  52     2.072284729768   111.22616669   288.22392130
 H     56  55  52     2.065412761750   111.19604460   168.11357157
 H     56  55  52     2.068888459967   110.67537018    48.23411394
 H     60  57  55     2.067252807650   111.99047910    62.90208461
 H     60  57  55     2.074780513631   110.62933169   302.23279019
 H     60  57  55     2.070092263194   110.40955315   183.05706258
 H     61  57  55     2.066488315745   112.49487197   296.64898956
 H     61  57  55     2.070358266427   110.34996600   176.44675558
 H     61  57  55     2.074780472624   110.37478895    57.45299811
 H     50  44  40     2.065300183319   111.92821359    67.49245063
 H     50  44  40     2.073096954822   110.79785807   306.74536706
 H     50  44  40     2.070101069876   110.14204006   187.41265573

---------------------
BASIS SET INFORMATION
---------------------
There are 3 groups of distinct atoms

 Group   1 Type C   : 7s4p contracted to 4s3p pattern {4111/211}
 Group   2 Type H   : 5s contracted to 3s pattern {311}
 Group   3 Type O   : 7s4p contracted to 4s3p pattern {4111/211}

Atom   0C    basis set group =>   1
Atom   1C    basis set group =>   1
Atom   2C    basis set group =>   1
Atom   3H    basis set group =>   2
Atom   4H    basis set group =>   2
Atom   5C    basis set group =>   1
Atom   6C    basis set group =>   1
Atom   7C    basis set group =>   1
Atom   8H    basis set group =>   2
Atom   9H    basis set group =>   2
Atom  10H    basis set group =>   2
Atom  11H    basis set group =>   2
Atom  12O    basis set group =>   3
Atom  13H    basis set group =>   2
Atom  14C    basis set group =>   1
Atom  15C    basis set group =>   1
Atom  16H    basis set group =>   2
Atom  17H    basis set group =>   2
Atom  18C    basis set group =>   1
Atom  19H    basis set group =>   2
Atom  20C    basis set group =>   1
Atom  21H    basis set group =>   2
Atom  22C    basis set group =>   1
Atom  23C    basis set group =>   1
Atom  24H    basis set group =>   2
Atom  25H    basis set group =>   2
Atom  26C    basis set group =>   1
Atom  27H    basis set group =>   2
Atom  28H    basis set group =>   2
Atom  29C    basis set group =>   1
Atom  30H    basis set group =>   2
Atom  31H    basis set group =>   2
Atom  32C    basis set group =>   1
Atom  33H    basis set group =>   2
Atom  34C    basis set group =>   1
Atom  35H    basis set group =>   2
Atom  36C    basis set group =>   1
Atom  37H    basis set group =>   2
Atom  38H    basis set group =>   2
Atom  39C    basis set group =>   1
Atom  40H    basis set group =>   2
Atom  41H    basis set group =>   2
Atom  42H    basis set group =>   2
Atom  43C    basis set group =>   1
Atom  44C    basis set group =>   1
Atom  45H    basis set group =>   2
Atom  46H    basis set group =>   2
Atom  47H    basis set group =>   2
Atom  48H    basis set group =>   2
Atom  49C    basis set group =>   1
Atom  50C    basis set group =>   1
Atom  51C    basis set group =>   1
Atom  52H    basis set group =>   2
Atom  53H    basis set group =>   2
Atom  54C    basis set group =>   1
Atom  55C    basis set group =>   1
Atom  56C    basis set group =>   1
Atom  57H    basis set group =>   2
Atom  58H    basis set group =>   2
Atom  59C    basis set group =>   1
Atom  60C    basis set group =>   1
Atom  61H    basis set group =>   2
Atom  62H    basis set group =>   2
Atom  63H    basis set group =>   2
Atom  64H    basis set group =>   2
Atom  65H    basis set group =>   2
Atom  66H    basis set group =>   2
Atom  67H    basis set group =>   2
Atom  68H    basis set group =>   2
Atom  69H    basis set group =>   2
Atom  70H    basis set group =>   2
Atom  71H    basis set group =>   2
Atom  72H    basis set group =>   2

-------------------------
BASIS SET IN INPUT FORMAT
-------------------------

 # Basis set for element : H 
 NewGTO H 
 S 3 
   1    1357.7500000000      0.0012928364
   2      54.3100000000      0.0588280685
   3       4.3448000000      0.9761499708
 S 1 
   1       0.6604910000      1.0000000000
 S 1 
   1       0.1366870000      1.0000000000
  end;

 # Basis set for element : C 
 NewGTO C 
 S 4 
   1  139534.0000000000      0.0001655246
   2    5581.3600000000      0.0074486101
   3     446.5090000000      0.1285821065
   4      67.4620000000      0.9218029311
 S 1 
   1      15.0674000000      1.0000000000
 S 1 
   1       3.9387600000      1.0000000000
 S 1 
   1       0.2999150000      1.0000000000
 P 2 
   1      28.3900000000      0.0816325586
   2       4.3676900000      0.9660360576
 P 1 
   1       0.8698170000      1.0000000000
 P 1 
   1       0.1889340000      1.0000000000
  end;

 # Basis set for element : O 
 NewGTO O 
 S 4 
   1  253789.0000000000      0.0001641076
   2   10151.6000000000      0.0074010921
   3     812.1250000000      0.1277711901
   4     122.6930000000      0.9223372164
 S 1 
   1      27.5608000000      1.0000000000
 S 1 
   1       7.3172600000      1.0000000000
 S 1 
   1       0.5792400000      1.0000000000
 P 2 
   1      53.4157000000      0.0793786106
   2       8.2177900000      0.9670506337
 P 1 
   1       1.6754400000      1.0000000000
 P 1 
   1       0.3506720000      1.0000000000
  end;

---------------------------------
AUXILIARY/J BASIS SET INFORMATION
---------------------------------
There are 3 groups of distinct atoms

 Group   1 Type C   : 12s5p4d2f1g contracted to 6s4p3d1f1g pattern {711111/2111/211/2/1}
 Group   2 Type H   : 5s2p1d contracted to 3s1p1d pattern {311/2/1}
 Group   3 Type O   : 12s5p4d2f1g contracted to 6s4p3d1f1g pattern {711111/2111/211/2/1}

Atom   0C    basis set group =>   1
Atom   1C    basis set group =>   1
Atom   2C    basis set group =>   1
Atom   3H    basis set group =>   2
Atom   4H    basis set group =>   2
Atom   5C    basis set group =>   1
Atom   6C    basis set group =>   1
Atom   7C    basis set group =>   1
Atom   8H    basis set group =>   2
Atom   9H    basis set group =>   2
Atom  10H    basis set group =>   2
Atom  11H    basis set group =>   2
Atom  12O    basis set group =>   3
Atom  13H    basis set group =>   2
Atom  14C    basis set group =>   1
Atom  15C    basis set group =>   1
Atom  16H    basis set group =>   2
Atom  17H    basis set group =>   2
Atom  18C    basis set group =>   1
Atom  19H    basis set group =>   2
Atom  20C    basis set group =>   1
Atom  21H    basis set group =>   2
Atom  22C    basis set group =>   1
Atom  23C    basis set group =>   1
Atom  24H    basis set group =>   2
Atom  25H    basis set group =>   2
Atom  26C    basis set group =>   1
Atom  27H    basis set group =>   2
Atom  28H    basis set group =>   2
Atom  29C    basis set group =>   1
Atom  30H    basis set group =>   2
Atom  31H    basis set group =>   2
Atom  32C    basis set group =>   1
Atom  33H    basis set group =>   2
Atom  34C    basis set group =>   1
Atom  35H    basis set group =>   2
Atom  36C    basis set group =>   1
Atom  37H    basis set group =>   2
Atom  38H    basis set group =>   2
Atom  39C    basis set group =>   1
Atom  40H    basis set group =>   2
Atom  41H    basis set group =>   2
Atom  42H    basis set group =>   2
Atom  43C    basis set group =>   1
Atom  44C    basis set group =>   1
Atom  45H    basis set group =>   2
Atom  46H    basis set group =>   2
Atom  47H    basis set group =>   2
Atom  48H    basis set group =>   2
Atom  49C    basis set group =>   1
Atom  50C    basis set group =>   1
Atom  51C    basis set group =>   1
Atom  52H    basis set group =>   2
Atom  53H    basis set group =>   2
Atom  54C    basis set group =>   1
Atom  55C    basis set group =>   1
Atom  56C    basis set group =>   1
Atom  57H    basis set group =>   2
Atom  58H    basis set group =>   2
Atom  59C    basis set group =>   1
Atom  60C    basis set group =>   1
Atom  61H    basis set group =>   2
Atom  62H    basis set group =>   2
Atom  63H    basis set group =>   2
Atom  64H    basis set group =>   2
Atom  65H    basis set group =>   2
Atom  66H    basis set group =>   2
Atom  67H    basis set group =>   2
Atom  68H    basis set group =>   2
Atom  69H    basis set group =>   2
Atom  70H    basis set group =>   2
Atom  71H    basis set group =>   2
Atom  72H    basis set group =>   2

-------------------------------------
AUXILIARY/J BASIS SET IN INPUT FORMAT
-------------------------------------

 # Auxiliary/J basis set for element : H 
 NewAuxJGTO H 
 S 3 
   1      15.6752927000      0.1007184237
   2       3.6063578000      0.3404257499
   3       1.2080016000      0.6491996172
 S 1 
   1       0.4726794000      1.0000000000
 S 1 
   1       0.2018100000      1.0000000000
 P 2 
   1       2.0281365000      0.5596620919
   2       0.5358730000      0.5596620919
 D 1 
   1       2.2165124000      1.0000000000
  end;

 # Auxiliary/J basis set for element : C 
 NewAuxJGTO C 
 S 7 
   1    1861.0916331000      0.0134602335
   2     642.9939764000      0.0299160374
   3     235.1105725000      0.1008649584
   4      90.7028894000      0.2370970548
   5      36.7794552000      0.3924037254
   6      15.6046273000      0.3195862154
   7       6.8907294000      0.0530104441
 S 1 
   1       3.1478850000     -1.0000000000
 S 1 
   1       1.4777287000      1.0000000000
 S 1 
   1       0.7076466000      1.0000000000
 S 1 
   1       0.3430122000      1.0000000000
 S 1 
   1       0.1669453000      1.0000000000
 P 2 
   1      13.5472892000     -0.6769313712
   2       5.4669419000     -0.3779500978
 P 1 
   1       2.1751721000      1.0000000000
 P 1 
   1       0.8582194000      1.0000000000
 P 1 
   1       0.3376720000      1.0000000000
 D 2 
   1       5.9287253000     -0.3533329857
   2       1.9809209000     -0.7456525731
 D 1 
   1       0.8055417000     -1.0000000000
 D 1 
   1       0.3531244000     -1.0000000000
 F 2 
   1       1.6755626000      0.6311076882
   2       0.5997536000      0.4968166032
 G 1 
   1       1.0024600000     -1.0000000000
  end;

 # Auxiliary/J basis set for element : O 
 NewAuxJGTO O 
 S 7 
   1    2876.8216605000      0.0168151159
   2    1004.7443032000      0.0340137548
   3     369.7579954000      0.1194951309
   4     142.9442404000      0.2664627624
   5      57.8366425000      0.4202764046
   6      24.3864983000      0.2765077335
   7      10.6622662000      0.0057008815
 S 1 
   1       4.8070437000     -1.0000000000
 S 1 
   1       2.2210770000      1.0000000000
 S 1 
   1       1.0447795000      1.0000000000
 S 1 
   1       0.4968425000      1.0000000000
 S 1 
   1       0.2371384000      1.0000000000
 P 2 
   1      64.2613382000     -0.2731534179
   2      16.3006076000     -0.8168011598
 P 1 
   1       4.3550542000      1.0000000000
 P 1 
   1       1.2019554000      1.0000000000
 P 1 
   1       0.3354196000      1.0000000000
 D 2 
   1       9.2146611000     -0.4661230638
   2       2.8435251000     -0.6600908911
 D 1 
   1       0.9955759000     -1.0000000000
 D 1 
   1       0.3649441000     -1.0000000000
 F 2 
   1       2.6420115000      0.5931563945
   2       0.7345613000      0.5931563945
 G 1 
   1       1.3931000000     -1.0000000000
  end;



           ************************************************************
           *        Program running with 4 parallel MPI-processes     *
           *              working on a common directory               *
           ************************************************************
------------------------------------------------------------------------------
                           ORCA GTO INTEGRAL CALCULATION
                           -- RI-GTO INTEGRALS CHOSEN --
------------------------------------------------------------------------------
------------------------------------------------------------------------------
                   ___                                                        
                  /   \      - P O W E R E D   B Y -                         
                 /     \                                                     
                 |  |  |   _    _      __       _____    __    __             
                 |  |  |  | |  | |    /  \     |  _  \  |  |  /  |          
                  \  \/   | |  | |   /    \    | | | |  |  | /  /          
                 / \  \   | |__| |  /  /\  \   | |_| |  |  |/  /          
                |  |  |   |  __  | /  /__\  \  |    /   |      \           
                |  |  |   | |  | | |   __   |  |    \   |  |\   \          
                \     /   | |  | | |  |  |  |  | |\  \  |  | \   \       
                 \___/    |_|  |_| |__|  |__|  |_| \__\ |__|  \__/        
                                                                              
                      - O R C A' S   B I G   F R I E N D -                    
                                      &                                       
                       - I N T E G R A L  F E E D E R -                       
                                                                              
 v1 FN, 2020, v2 2021                                                         
------------------------------------------------------------------------------


Reading SHARK input file inpJ.SHARKINP.tmp ... ok
----------------------
SHARK INTEGRAL PACKAGE
----------------------

Number of atoms                             ...     73
Number of basis functions                   ...    509
Number of shells                            ...    335
Maximum angular momentum                    ...      1
Integral batch strategy                     ... SHARK/LIBINT Hybrid
RI-J (if used) integral strategy            ... SPLIT-RIJ (Revised 2003 algorithm where possible)
Printlevel                                  ...      1
Contraction scheme used                     ... SEGMENTED contraction
Coulomb Range Separation                    ... NOT USED
Exchange Range Separation                   ... NOT USED
Finite Nucleus Model                        ... NOT USED
Auxiliary Coulomb fitting basis             ... AVAILABLE
   # of basis functions in Aux-J            ...   1905
   # of shells in Aux-J                     ...    655
   Maximum angular momentum in Aux-J        ...      4
Auxiliary J/K fitting basis                 ... NOT available
Auxiliary Correlation fitting basis         ... NOT available
Auxiliary 'external' fitting basis          ... NOT available
Integral threshold                          ...     3.000000e-11
Primitive cut-off                           ...     1.000000e-12
Primitive pair pre-selection threshold      ...     1.000000e-12

Calculating pre-screening integrals         ... done (  0.0 sec) Dimension = 335
Organizing shell pair data                  ... done (  0.1 sec)
Shell pair information
Total number of shell pairs                 ...     56280
Shell pairs after pre-screening             ...     22023
Total number of primitive shell pairs       ...    145865
Primitive shell pairs kept                  ...     37829
          la=0 lb=0:  11067 shell pairs
          la=1 lb=0:   9072 shell pairs
          la=1 lb=1:   1884 shell pairs

Calculating one electron integrals          ... done (  0.0 sec)
Calculating RI/J V-Matrix + Cholesky decomp.... done (  0.2 sec)
Calculating Nuclear repulsion               ... done (  0.0 sec) ENN=   2800.103966251749 Eh

SHARK setup successfully completed in   0.5 seconds

Maximum memory used throughout the entire GTOINT-calculation: 46.4 MB


           ************************************************************
           *        Program running with 4 parallel MPI-processes     *
           *              working on a common directory               *
           ************************************************************
-------------------------------------------------------------------------------
                                 ORCA SCF
-------------------------------------------------------------------------------

------------
SCF SETTINGS
------------
Hamiltonian:
 Density Functional     Method          .... DFT(GTOs)
 Exchange Functional    Exchange        .... PBE
   PBE kappa parameter   XKappa         ....  0.804000
   PBE mue parameter    XMuePBE         ....  0.219520
 Correlation Functional Correlation     .... PBE
   PBE beta parameter  CBetaPBE         ....  0.066725
 LDA part of GGA corr.  LDAOpt          .... PW91-LDA
 Gradients option       PostSCFGGA      .... off
 Hybrid DFT is turned on
   Fraction HF Exchange ScalHFX         ....  0.250000
   Scaling of DF-GGA-X  ScalDFX         ....  0.750000
   Scaling of DF-GGA-C  ScalDFC         ....  1.000000
   Scaling of DF-LDA-C  ScalLDAC        ....  1.000000
   Perturbative correction              ....  0.000000
   Density functional embedding theory  .... OFF
   NL short-range parameter             ....  6.900000
 RI-approximation to the Coulomb term is turned on
   Number of AuxJ basis functions       .... 1905
   RIJ-COSX (HFX calculated with COS-X)).... on


General Settings:
 Integral files         IntName         .... inpJ
 Hartree-Fock type      HFTyp           .... RHF
 Total Charge           Charge          ....    0
 Multiplicity           Mult            ....    1
 Number of Electrons    NEL             ....  220
 Basis Dimension        Dim             ....  509
 Nuclear Repulsion      ENuc            ....   2800.1039662517 Eh

Convergence Acceleration:
 DIIS                   CNVDIIS         .... on
   Start iteration      DIISMaxIt       ....    12
   Startup error        DIISStart       ....  0.200000
   # of expansion vecs  DIISMaxEq       ....     5
   Bias factor          DIISBfac        ....   1.050
   Max. coefficient     DIISMaxC        ....  10.000
 Trust-Rad. Augm. Hess. CNVTRAH         .... auto
   Auto Start mean grad. ratio tolernc. ....  1.125000
   Auto Start start iteration           ....    20
   Auto Start num. interpolation iter.  ....    10
   Max. Number of Micro iterations      ....    16
   Max. Number of Macro iterations      .... Maxiter - #DIIS iter
   Number of Davidson start vectors     ....     2
   Converg. threshold I  (grad. norm)   ....   1.000e-04
   Converg. threshold II (energy diff.) ....   1.000e-07
   Grad. Scal. Fac. for Micro threshold ....   0.100
   Minimum threshold for Micro iter.    ....   0.010
   NR start threshold (gradient norm)   ....   0.001
   Initial trust radius                 ....   0.400
   Minimum AH scaling param. (alpha)    ....   1.000
   Maximum AH scaling param. (alpha)    .... 1000.000
   Orbital update algorithm             .... Taylor
   White noise on init. David. guess    .... on
   Maximum white noise                  ....   0.010
   Quad. conv. algorithm                .... NR
 SOSCF                  CNVSOSCF        .... off
 Level Shifting         CNVShift        .... on
   Level shift para.    LevelShift      ....    0.2500
   Turn off err/grad.   ShiftErr        ....    0.0010
 Zerner damping         CNVZerner       .... off
 Static damping         CNVDamp         .... on
   Fraction old density DampFac         ....    0.7000
   Max. Damping (<1)    DampMax         ....    0.9800
   Min. Damping (>=0)   DampMin         ....    0.0000
   Turn off err/grad.   DampErr         ....    0.1000
 Fernandez-Rico         CNVRico         .... off

SCF Procedure:
 Maximum # iterations   MaxIter         ....   125
 SCF integral mode      SCFMode         .... Direct
   Integral package                     .... SHARK and LIBINT hybrid scheme
 Reset frequency        DirectResetFreq ....    20
 Integral Threshold     Thresh          ....  3.000e-11 Eh
 Primitive CutOff       TCut            ....  1.000e-12 Eh

Convergence Tolerance:
 Convergence Check Mode ConvCheckMode   .... Total+1el-Energy
 Convergence forced     ConvForced      .... 0
 Energy Change          TolE            ....  1.000e-07 Eh
 1-El. energy change                    ....  1.000e-04 Eh
 DIIS Error             TolErr          ....  1.000e-07


Diagonalization of the overlap matrix:
Smallest eigenvalue                        ... 7.557e-03
Time for diagonalization                   ...    0.036 sec
Threshold for overlap eigenvalues          ... 1.000e-08
Number of eigenvalues below threshold      ... 0
Time for construction of square roots      ...    0.029 sec
Total time needed                          ...    0.067 sec

Time for model grid setup =    0.826 sec

------------------------------
INITIAL GUESS: MODEL POTENTIAL
------------------------------
Loading Hartree-Fock densities                     ... done
Calculating cut-offs                               ... done
Initializing the effective Hamiltonian             ... done
Setting up the integral package (SHARK)            ... done
Starting the Coulomb interaction                   ... done (   0.4 sec)
Reading the grid                                   ... done
Mapping shells                                     ... done
Starting the XC term evaluation                    ... done (   0.2 sec)
  promolecular density results
     # of electrons  =    219.974529061
     EX              =   -164.428173591
     EC              =     -7.326667823
     EX+EC           =   -171.754841414
Transforming the Hamiltonian                       ... done (   0.0 sec)
Diagonalizing the Hamiltonian                      ... done (   0.0 sec)
Back transforming the eigenvectors                 ... done (   0.0 sec)
Now organizing SCF variables                       ... done
                      ------------------
                      INITIAL GUESS DONE (   1.5 sec)
                      ------------------
-------------------
DFT GRID GENERATION
-------------------

General Integration Accuracy     IntAcc      ... 4.388
Radial Grid Type                 RadialGrid  ... OptM3 with GC (2021)
Angular Grid (max. ang.)         AngularGrid ... 4 (Lebedev-302)
Angular grid pruning method      GridPruning ... 4 (adaptive)
Weight generation scheme         WeightScheme... Becke
Basis function cutoff            BFCut       ... 1.0000e-11
Integration weight cutoff        WCut        ... 1.0000e-14
Angular grids for H and He will be reduced by one unit
Partially contracted basis set               ... off
Rotationally invariant grid construction     ... off

Total number of grid points                  ...   309868
Total number of batches                      ...     4879
Average number of points per batch           ...       63
Average number of grid points per atom       ...     4245
Time for grid setup =    3.047 sec

--------------------
COSX GRID GENERATION
--------------------

GRIDX 1
-------
General Integration Accuracy     IntAcc      ... 3.816
Radial Grid Type                 RadialGrid  ... OptM3 with GC (2021)
Angular Grid (max. ang.)         AngularGrid ... 1 (Lebedev-50)
Angular grid pruning method      GridPruning ... 4 (adaptive)
Weight generation scheme         WeightScheme... Becke
Basis function cutoff            BFCut       ... 1.0000e-11
Integration weight cutoff        WCut        ... 1.0000e-14
Angular grids for H and He will be reduced by one unit
Partially contracted basis set               ... on
Rotationally invariant grid construction     ... off

Total number of grid points                  ...    39407
Total number of batches                      ...      656
Average number of points per batch           ...       60
Average number of grid points per atom       ...      540
UseSFitting                                  ... on

GRIDX 2
-------
General Integration Accuracy     IntAcc      ... 4.020
Radial Grid Type                 RadialGrid  ... OptM3 with GC (2021)
Angular Grid (max. ang.)         AngularGrid ... 2 (Lebedev-110)
Angular grid pruning method      GridPruning ... 4 (adaptive)
Weight generation scheme         WeightScheme... Becke
Basis function cutoff            BFCut       ... 1.0000e-11
Integration weight cutoff        WCut        ... 1.0000e-14
Angular grids for H and He will be reduced by one unit
Partially contracted basis set               ... on
Rotationally invariant grid construction     ... off

Total number of grid points                  ...    81324
Total number of batches                      ...     1306
Average number of points per batch           ...       62
Average number of grid points per atom       ...     1114
UseSFitting                                  ... on

GRIDX 3
-------
General Integration Accuracy     IntAcc      ... 4.338
Radial Grid Type                 RadialGrid  ... OptM3 with GC (2021)
Angular Grid (max. ang.)         AngularGrid ... 3 (Lebedev-194)
Angular grid pruning method      GridPruning ... 4 (adaptive)
Weight generation scheme         WeightScheme... Becke
Basis function cutoff            BFCut       ... 1.0000e-11
Integration weight cutoff        WCut        ... 1.0000e-14
Angular grids for H and He will be reduced by one unit
Partially contracted basis set               ... on
Rotationally invariant grid construction     ... off

Total number of grid points                  ...   176209
Total number of batches                      ...     2790
Average number of points per batch           ...       63
Average number of grid points per atom       ...     2414
UseSFitting                                  ... on

Time for X-Grid setup             =    3.157 sec


--------------------
CPCM SOLVATION MODEL
--------------------
CPCM parameters:
  Epsilon                                         ...       4.9000
  Refrac                                          ...       1.4500
  Rsolv                                           ...       1.3000
  Surface type                                    ... GAUSSIAN VDW
  Epsilon function type                           ...         CPCM
Radii:
 Radius for C  used is    3.8550 Bohr (=   2.0400 Ang.)
 Radius for H  used is    2.4944 Bohr (=   1.3200 Ang.)
 Radius for O  used is    3.4469 Bohr (=   1.8240 Ang.)
Calculating surface                               ...        done! (  0.0s)
GEPOL surface points                              ...         3642
GEPOL Volume                                      ...    3604.8503
GEPOL Surface-area                                ...    1792.9484
Calculating surface distance matrix               ...        done! (  0.1s)
Performing Cholesky decomposition & store         ...        done! (  0.7s)
Overall time for CPCM initialization              ...                 0.8s
--------------
SCF ITERATIONS
--------------
ITER       Energy         Delta-E        Max-DP      RMS-DP      [F,P]     Damp
               ***  Starting incremental Fock matrix formation  ***

  HOMO= 109 E= -3.982 eV LUMO=  7.701 eV gap=  11.683 eV
  0  -1165.0106408202   0.000000000000 0.09772104  0.00106222  0.1964400 0.7000

  HOMO= 109 E= -4.847 eV LUMO=  7.020 eV gap=  11.867 eV
  1  -1165.2294255497  -0.218784729555 0.06554828  0.00078221  0.0951131 0.7000
                               ***Turning on DIIS***

  HOMO= 109 E= -5.445 eV LUMO=  6.472 eV gap=  11.917 eV
  2  -1165.3303721255  -0.100946575820 0.10312917  0.00138618  0.0375607 0.0000

  HOMO= 109 E= -6.002 eV LUMO=  5.943 eV gap=  11.945 eV
  3  -1165.4748626187  -0.144490493134 0.05164035  0.00057054  0.0462503 0.0000

  HOMO= 109 E= -6.071 eV LUMO=  5.873 eV gap=  11.944 eV
  4  -1165.5103361716  -0.035473552920 0.01155537  0.00013442  0.0057633 0.0000

  HOMO= 109 E= -6.021 eV LUMO=  5.931 eV gap=  11.951 eV
  5  -1165.5111950117  -0.000858840112 0.00251335  0.00003797  0.0052039 0.0000

  HOMO= 109 E= -6.007 eV LUMO=  5.945 eV gap=  11.952 eV
  6  -1165.5112758264  -0.000080814654 0.00116116  0.00001170  0.0010576 0.0000

  HOMO= 109 E= -6.009 eV LUMO= -0.860 eV gap=   5.149 eV
  7  -1165.5112813194  -0.000005493011 0.00051708  0.00000602  0.0002408 0.0000
               *** Restarting incremental Fock matrix formation ***
                                   *** Resetting DIIS ***

  HOMO= 109 E= -6.008 eV LUMO= -0.858 eV gap=   5.150 eV
  8  -1165.5112255678   0.000055751547 0.00029812  0.00000279  0.0001188 0.0000

  HOMO= 109 E= -6.008 eV LUMO= -0.858 eV gap=   5.150 eV
  9  -1165.5112256064  -0.000000038620 0.00013730  0.00000127  0.0001618 0.0000

  HOMO= 109 E= -6.008 eV LUMO= -0.858 eV gap=   5.150 eV
 10  -1165.5112257425  -0.000000136012 0.00006109  0.00000038  0.0000300 0.0000

  HOMO= 109 E= -6.008 eV LUMO= -0.858 eV gap=   5.150 eV
 11  -1165.5112257796  -0.000000037145 0.00002444  0.00000017  0.0000175 0.0000

  HOMO= 109 E= -6.008 eV LUMO= -0.858 eV gap=   5.150 eV
 12  -1165.5112257600   0.000000019579 0.00000719  0.00000004  0.0000033 0.0000
                 **** Energy Check signals convergence ****

               *****************************************************
               *                     SUCCESS                       *
               *           SCF CONVERGED AFTER  13 CYCLES          *
               *****************************************************

Old exchange energy                            =    -42.067285469 Eh
New exchange energy                            =    -42.067266905 Eh
Exchange energy change after final integration =      0.000018564 Eh
Total energy after final integration           =  -1165.511207199 Eh
Final COS-X integration done in                =    13.196 sec

----------------
TOTAL SCF ENERGY
----------------

Total Energy       :        -1165.51120720 Eh          -31715.17232 eV

Components:
Nuclear Repulsion  :         2800.10396625 Eh           76194.70259 eV
Electronic Energy  :        -3965.61517345 Eh         -107909.87490 eV
One Electron Energy:        -7141.94382739 Eh         -194342.17171 eV
Two Electron Energy:         3176.32865394 Eh           86432.29681 eV
Max COSX asymmetry :            0.00000241 Eh               0.00007 eV
CPCM Dielectric    :           -0.01346618 Eh              -0.36643 eV

Virial components:
Potential Energy   :        -2322.40422695 Eh          -63195.83183 eV
Kinetic Energy     :         1156.89301975 Eh           31480.65951 eV
Virial Ratio       :            2.00744942


DFT components:
N(Alpha)           :      109.999953013391 electrons
N(Beta)            :      109.999953013391 electrons
N(Total)           :      219.999906026782 electrons
E(X)               :     -125.744273239987 Eh       
E(C)               :       -7.327748696605 Eh       
E(XC)              :     -133.072021936592 Eh       
DFET-embed. en.    :        0.000000000000 Eh       
CPCM Solvation Model Properties:
Surface-charge          :           -0.03430053
Charge-correction       :           -0.00008213 Eh              -0.00223 eV
Free-energy (cav+disp)  :  This term is not implemented in the current solvation scheme

---------------
SCF CONVERGENCE
---------------

  Last Energy change         ...   -2.6500e-09  Tolerance :   1.0000e-07
  Last MAX-Density change    ...    0.0000e+00  Tolerance :   1.0000e-05
  Last RMS-Density change    ...    0.0000e+00  Tolerance :   1.0000e-06
  Last DIIS Error            ...    2.1127e-06  Tolerance :   1.0000e-07

             **** THE GBW FILE WAS UPDATED (inpJ.gbw) ****
             **** DENSITY inpJ.scfp WAS UPDATED ****
             **** ENERGY FILE WAS UPDATED (inpJ.en.tmp) ****
             **** THE GBW FILE WAS UPDATED (inpJ.gbw) ****
             **** DENSITY inpJ.scfp WAS UPDATED ****
----------------
ORBITAL ENERGIES
----------------

  NO   OCC          E(Eh)            E(eV) 
   0   2.0000     -19.212386      -522.7956 
   1   2.0000     -10.300458      -280.2897 
   2   2.0000     -10.270405      -279.4719 
   3   2.0000     -10.268274      -279.4139 
   4   2.0000     -10.263708      -279.2897 
   5   2.0000     -10.257452      -279.1195 
   6   2.0000     -10.256907      -279.1046 
   7   2.0000     -10.251339      -278.9531 
   8   2.0000     -10.250305      -278.9250 
   9   2.0000     -10.249961      -278.9156 
  10   2.0000     -10.248057      -278.8638 
  11   2.0000     -10.247670      -278.8533 
  12   2.0000     -10.246144      -278.8117 
  13   2.0000     -10.245155      -278.7848 
  14   2.0000     -10.244460      -278.7659 
  15   2.0000     -10.243293      -278.7342 
  16   2.0000     -10.242969      -278.7253 
  17   2.0000     -10.242470      -278.7118 
  18   2.0000     -10.241729      -278.6916 
  19   2.0000     -10.241359      -278.6816 
  20   2.0000     -10.240191      -278.6498 
  21   2.0000     -10.234424      -278.4928 
  22   2.0000     -10.234217      -278.4872 
  23   2.0000     -10.232756      -278.4474 
  24   2.0000     -10.225864      -278.2599 
  25   2.0000     -10.224782      -278.2305 
  26   2.0000     -10.224690      -278.2280 
  27   2.0000     -10.224198      -278.2146 
  28   2.0000     -10.220856      -278.1236 
  29   2.0000      -1.043169       -28.3861 
  30   2.0000      -0.901410       -24.5286 
  31   2.0000      -0.882117       -24.0036 
  32   2.0000      -0.860235       -23.4082 
  33   2.0000      -0.846164       -23.0253 
  34   2.0000      -0.822665       -22.3859 
  35   2.0000      -0.814221       -22.1561 
  36   2.0000      -0.795940       -21.6586 
  37   2.0000      -0.795032       -21.6339 
  38   2.0000      -0.777575       -21.1589 
  39   2.0000      -0.758315       -20.6348 
  40   2.0000      -0.740451       -20.1487 
  41   2.0000      -0.734237       -19.9796 
  42   2.0000      -0.715014       -19.4565 
  43   2.0000      -0.702946       -19.1281 
  44   2.0000      -0.702268       -19.1097 
  45   2.0000      -0.695549       -18.9268 
  46   2.0000      -0.670657       -18.2495 
  47   2.0000      -0.661917       -18.0117 
  48   2.0000      -0.630317       -17.1518 
  49   2.0000      -0.621964       -16.9245 
  50   2.0000      -0.612060       -16.6550 
  51   2.0000      -0.604574       -16.4513 
  52   2.0000      -0.596572       -16.2336 
  53   2.0000      -0.587107       -15.9760 
  54   2.0000      -0.558069       -15.1858 
  55   2.0000      -0.551128       -14.9969 
  56   2.0000      -0.539446       -14.6791 
  57   2.0000      -0.529374       -14.4050 
  58   2.0000      -0.515320       -14.0226 
  59   2.0000      -0.508079       -13.8255 
  60   2.0000      -0.498852       -13.5745 
  61   2.0000      -0.490548       -13.3485 
  62   2.0000      -0.480969       -13.0878 
  63   2.0000      -0.480754       -13.0820 
  64   2.0000      -0.470113       -12.7924 
  65   2.0000      -0.469279       -12.7697 
  66   2.0000      -0.466212       -12.6863 
  67   2.0000      -0.462661       -12.5896 
  68   2.0000      -0.459131       -12.4936 
  69   2.0000      -0.453086       -12.3291 
  70   2.0000      -0.449711       -12.2373 
  71   2.0000      -0.445732       -12.1290 
  72   2.0000      -0.435390       -11.8476 
  73   2.0000      -0.433125       -11.7859 
  74   2.0000      -0.425857       -11.5882 
  75   2.0000      -0.422557       -11.4984 
  76   2.0000      -0.419208       -11.4072 
  77   2.0000      -0.413997       -11.2654 
  78   2.0000      -0.410957       -11.1827 
  79   2.0000      -0.404957       -11.0194 
  80   2.0000      -0.401531       -10.9262 
  81   2.0000      -0.397479       -10.8159 
  82   2.0000      -0.395740       -10.7686 
  83   2.0000      -0.389942       -10.6109 
  84   2.0000      -0.386213       -10.5094 
  85   2.0000      -0.380593       -10.3565 
  86   2.0000      -0.375838       -10.2271 
  87   2.0000      -0.373881       -10.1738 
  88   2.0000      -0.369240       -10.0475 
  89   2.0000      -0.362879        -9.8744 
  90   2.0000      -0.361083        -9.8256 
  91   2.0000      -0.358635        -9.7590 
  92   2.0000      -0.350477        -9.5370 
  93   2.0000      -0.344867        -9.3843 
  94   2.0000      -0.341156        -9.2833 
  95   2.0000      -0.339591        -9.2407 
  96   2.0000      -0.337164        -9.1747 
  97   2.0000      -0.334543        -9.1034 
  98   2.0000      -0.331529        -9.0214 
  99   2.0000      -0.330137        -8.9835 
 100   2.0000      -0.328064        -8.9271 
 101   2.0000      -0.324375        -8.8267 
 102   2.0000      -0.319081        -8.6826 
 103   2.0000      -0.317111        -8.6290 
 104   2.0000      -0.310839        -8.4584 
 105   2.0000      -0.300688        -8.1821 
 106   2.0000      -0.276536        -7.5249 
 107   2.0000      -0.275071        -7.4851 
 108   2.0000      -0.256448        -6.9783 
 109   2.0000      -0.220802        -6.0083 
 110   0.0000      -0.031545        -0.8584 
 111   0.0000       0.019287         0.5248 
 112   0.0000       0.027384         0.7452 
 113   0.0000       0.079504         2.1634 
 114   0.0000       0.087702         2.3865 
 115   0.0000       0.099134         2.6976 
 116   0.0000       0.102816         2.7978 
 117   0.0000       0.107859         2.9350 
 118   0.0000       0.109208         2.9717 
 119   0.0000       0.112698         3.0667 
 120   0.0000       0.117999         3.2109 
 121   0.0000       0.121974         3.3191 
 122   0.0000       0.125326         3.4103 
 123   0.0000       0.130908         3.5622 
 124   0.0000       0.133837         3.6419 
 125   0.0000       0.138626         3.7722 
 126   0.0000       0.139041         3.7835 
 127   0.0000       0.140674         3.8279 
 128   0.0000       0.148031         4.0281 
 129   0.0000       0.153401         4.1742 
 130   0.0000       0.153472         4.1762 
 131   0.0000       0.157848         4.2952 
 132   0.0000       0.161570         4.3965 
 133   0.0000       0.162643         4.4257 
 134   0.0000       0.168438         4.5834 
 135   0.0000       0.171055         4.6546 
 136   0.0000       0.173350         4.7171 
 137   0.0000       0.174941         4.7604 
 138   0.0000       0.176136         4.7929 
 139   0.0000       0.177750         4.8368 
 140   0.0000       0.181560         4.9405 
 141   0.0000       0.184145         5.0108 
 142   0.0000       0.185913         5.0590 
 143   0.0000       0.187800         5.1103 
 144   0.0000       0.189843         5.1659 
 145   0.0000       0.199699         5.4341 
 146   0.0000       0.200115         5.4454 
 147   0.0000       0.201128         5.4730 
 148   0.0000       0.204165         5.5556 
 149   0.0000       0.209909         5.7119 
 150   0.0000       0.212383         5.7792 
 151   0.0000       0.216977         5.9042 
 152   0.0000       0.220445         5.9986 
 153   0.0000       0.230535         6.2732 
 154   0.0000       0.232186         6.3181 
 155   0.0000       0.236391         6.4325 
 156   0.0000       0.244315         6.6481 
 157   0.0000       0.245144         6.6707 
 158   0.0000       0.250510         6.8167 
 159   0.0000       0.254744         6.9319 
 160   0.0000       0.256238         6.9726 
 161   0.0000       0.259445         7.0599 
 162   0.0000       0.264104         7.1866 
 163   0.0000       0.266536         7.2528 
 164   0.0000       0.269949         7.3457 
 165   0.0000       0.275053         7.4846 
 166   0.0000       0.277310         7.5460 
 167   0.0000       0.283162         7.7052 
 168   0.0000       0.286423         7.7940 
 169   0.0000       0.289928         7.8894 
 170   0.0000       0.294713         8.0196 
 171   0.0000       0.298422         8.1205 
 172   0.0000       0.304317         8.2809 
 173   0.0000       0.306471         8.3395 
 174   0.0000       0.307957         8.3799 
 175   0.0000       0.315410         8.5828 
 176   0.0000       0.319122         8.6838 
 177   0.0000       0.339499         9.2382 
 178   0.0000       0.348130         9.4731 
 179   0.0000       0.355907         9.6847 
 180   0.0000       0.364673         9.9233 
 181   0.0000       0.374278        10.1846 
 182   0.0000       0.379897        10.3375 
 183   0.0000       0.401578        10.9275 
 184   0.0000       0.420992        11.4558 
 185   0.0000       0.461422        12.5559 
 186   0.0000       0.473968        12.8973 
 187   0.0000       0.487154        13.2561 
 188   0.0000       0.504812        13.7366 
 189   0.0000       0.517117        14.0715 
 190   0.0000       0.520766        14.1708 
 191   0.0000       0.532869        14.5001 
 192   0.0000       0.553718        15.0674 
 193   0.0000       0.557130        15.1603 
 194   0.0000       0.565176        15.3792 
 195   0.0000       0.571011        15.5380 
 196   0.0000       0.574708        15.6386 
 197   0.0000       0.580773        15.8036 
 198   0.0000       0.587173        15.9778 
 199   0.0000       0.595835        16.2135 
 200   0.0000       0.616761        16.7829 
 201   0.0000       0.624713        16.9993 
 202   0.0000       0.627521        17.0757 
 203   0.0000       0.629758        17.1366 
 204   0.0000       0.639135        17.3918 
 205   0.0000       0.647370        17.6158 
 206   0.0000       0.652070        17.7437 
 207   0.0000       0.659713        17.9517 
 208   0.0000       0.667650        18.1677 
 209   0.0000       0.668961        18.2033 
 210   0.0000       0.676175        18.3997 
 211   0.0000       0.687436        18.7061 
 212   0.0000       0.688470        18.7342 
 213   0.0000       0.694469        18.8975 
 214   0.0000       0.703167        19.1342 
 215   0.0000       0.710707        19.3393 
 216   0.0000       0.711719        19.3668 
 217   0.0000       0.715982        19.4829 
 218   0.0000       0.721065        19.6212 
 219   0.0000       0.728540        19.8246 
 220   0.0000       0.730464        19.8769 
 221   0.0000       0.733183        19.9509 
 222   0.0000       0.737751        20.0752 
 223   0.0000       0.741057        20.1652 
 224   0.0000       0.745766        20.2933 
 225   0.0000       0.750091        20.4110 
 226   0.0000       0.757272        20.6064 
 227   0.0000       0.761900        20.7324 
 228   0.0000       0.763871        20.7860 
 229   0.0000       0.765789        20.8382 
 230   0.0000       0.773592        21.0505 
 231   0.0000       0.774328        21.0705 
 232   0.0000       0.779067        21.1995 
 233   0.0000       0.779922        21.2228 
 234   0.0000       0.790242        21.5036 
 235   0.0000       0.794140        21.6096 
 236   0.0000       0.798634        21.7319 
 237   0.0000       0.807687        21.9783 
 238   0.0000       0.812098        22.0983 
 239   0.0000       0.819353        22.2957 
 240   0.0000       0.824793        22.4438 
 241   0.0000       0.829348        22.5677 
 242   0.0000       0.840627        22.8746 
 243   0.0000       0.846922        23.0459 
 244   0.0000       0.849974        23.1290 
 245   0.0000       0.855532        23.2802 
 246   0.0000       0.860602        23.4182 
 247   0.0000       0.863255        23.4904 
 248   0.0000       0.865947        23.5636 
 249   0.0000       0.869090        23.6491 
 250   0.0000       0.871238        23.7076 
 251   0.0000       0.874379        23.7931 
 252   0.0000       0.875891        23.8342 
 253   0.0000       0.876873        23.8609 
 254   0.0000       0.878569        23.9071 
 255   0.0000       0.882079        24.0026 
 256   0.0000       0.884946        24.0806 
 257   0.0000       0.890163        24.2226 
 258   0.0000       0.891828        24.2679 
 259   0.0000       0.899201        24.4685 
 260   0.0000       0.901858        24.5408 
 261   0.0000       0.905294        24.6343 
 262   0.0000       0.910209        24.7680 
 263   0.0000       0.911560        24.8048 
 264   0.0000       0.917323        24.9616 
 265   0.0000       0.920455        25.0468 
 266   0.0000       0.926103        25.2005 
 267   0.0000       0.929039        25.2804 
 268   0.0000       0.930328        25.3155 
 269   0.0000       0.933074        25.3902 
 270   0.0000       0.942059        25.6347 
 271   0.0000       0.945521        25.7289 
 272   0.0000       0.952103        25.9080 
 273   0.0000       0.954935        25.9851 
 274   0.0000       0.957960        26.0674 
 275   0.0000       0.963064        26.2063 
 276   0.0000       0.969136        26.3715 
 277   0.0000       0.973978        26.5033 
 278   0.0000       0.979645        26.6575 
 279   0.0000       0.981816        26.7166 
 280   0.0000       0.988841        26.9077 
 281   0.0000       0.999123        27.1875 
 282   0.0000       1.006769        27.3956 
 283   0.0000       1.008720        27.4487 
 284   0.0000       1.017770        27.6949 
 285   0.0000       1.022526        27.8244 
 286   0.0000       1.031902        28.0795 
 287   0.0000       1.039717        28.2921 
 288   0.0000       1.045007        28.4361 
 289   0.0000       1.059385        28.8273 
 290   0.0000       1.075568        29.2677 
 291   0.0000       1.079240        29.3676 
 292   0.0000       1.085116        29.5275 
 293   0.0000       1.091796        29.7093 
 294   0.0000       1.101814        29.9819 
 295   0.0000       1.111487        30.2451 
 296   0.0000       1.120825        30.4992 
 297   0.0000       1.132369        30.8133 
 298   0.0000       1.138001        30.9666 
 299   0.0000       1.145232        31.1633 
 300   0.0000       1.154891        31.4262 
 301   0.0000       1.165442        31.7133 
 302   0.0000       1.198105        32.6021 
 303   0.0000       1.210849        32.9489 
 304   0.0000       1.231847        33.5203 
 305   0.0000       1.236105        33.6361 
 306   0.0000       1.246559        33.9206 
 307   0.0000       1.282441        34.8970 
 308   0.0000       1.292351        35.1666 
 309   0.0000       1.305973        35.5373 
 310   0.0000       1.331519        36.2325 
 311   0.0000       1.333629        36.2899 
 312   0.0000       1.367001        37.1980 
 313   0.0000       1.376045        37.4441 
 314   0.0000       1.411298        38.4034 
 315   0.0000       1.513974        41.1973 
 316   0.0000       1.527213        41.5576 
 317   0.0000       1.570864        42.7454 
 318   0.0000       1.591351        43.3029 
 319   0.0000       1.675225        45.5852 
 320   0.0000       6.202134       168.7687 
 321   0.0000       6.232018       169.5818 
 322   0.0000       6.264262       170.4592 
 323   0.0000       6.269805       170.6101 
 324   0.0000       6.289268       171.1397 
 325   0.0000       6.299114       171.4076 
 326   0.0000       6.300450       171.4440 
 327   0.0000       6.310303       171.7121 
 328   0.0000       6.317361       171.9041 
 329   0.0000       6.322215       172.0362 
 330   0.0000       6.339652       172.5107 
 331   0.0000       6.350125       172.7957 
 332   0.0000       6.359597       173.0534 
 333   0.0000       6.372081       173.3932 
 334   0.0000       6.386041       173.7730 
 335   0.0000       6.392497       173.9487 
 336   0.0000       6.401182       174.1850 
 337   0.0000       6.407083       174.3456 
 338   0.0000       6.415582       174.5769 
 339   0.0000       6.421106       174.7272 
 340   0.0000       6.424283       174.8136 
 341   0.0000       6.443025       175.3236 
 342   0.0000       6.454320       175.6310 
 343   0.0000       6.457896       175.7283 
 344   0.0000       6.471818       176.1071 
 345   0.0000       6.483835       176.4341 
 346   0.0000       6.486501       176.5067 
 347   0.0000       6.494434       176.7225 
 348   0.0000       6.508150       177.0958 
 349   0.0000       6.513048       177.2291 
 350   0.0000       6.526623       177.5984 
 351   0.0000       6.533354       177.7816 
 352   0.0000       6.541133       177.9933 
 353   0.0000       6.546593       178.1419 
 354   0.0000       6.548605       178.1966 
 355   0.0000       6.551593       178.2779 
 356   0.0000       6.559086       178.4818 
 357   0.0000       6.568699       178.7434 
 358   0.0000       6.570454       178.7911 
 359   0.0000       6.576431       178.9538 
 360   0.0000       6.578313       179.0050 
 361   0.0000       6.585055       179.1885 
 362   0.0000       6.586439       179.2261 
 363   0.0000       6.592427       179.3891 
 364   0.0000       6.603289       179.6846 
 365   0.0000       6.608626       179.8299 
 366   0.0000       6.610455       179.8796 
 367   0.0000       6.614301       179.9843 
 368   0.0000       6.616252       180.0374 
 369   0.0000       6.619938       180.1377 
 370   0.0000       6.623850       180.2441 
 371   0.0000       6.628314       180.3656 
 372   0.0000       6.631598       180.4550 
 373   0.0000       6.634676       180.5387 
 374   0.0000       6.638237       180.6356 
[...]
     69 H        0.000      0.000      0.000      0.000      0.000      0.000
     70 H        0.000      0.000      0.000     -0.000      0.001      0.020
     71 H        0.000      0.000      0.000      0.000      0.001      0.010
     72 H        0.000      0.000      0.000      0.000      0.002      0.034
                 25 H       27 H       28 H       30 H       31 H       33 H  
      3 H        0.073     -0.003      0.002      0.000      0.000      0.087
      4 H        2.314     -0.107      0.062      0.000      0.000      2.561
      8 H        0.122      0.000      0.000      0.000      0.000      0.112
      9 H       -0.258      0.014      0.000      0.000      0.000     -0.304
     10 H        0.000      0.000      0.000      0.000      0.000      0.000
     11 H        0.000      0.000      0.000      0.000      0.000      0.000
     13 H       -0.038      0.000      0.000      0.000      0.000      0.000
     16 H       -0.259      0.013     -0.004     -0.031     -0.002     -0.299
     17 H       -0.238      0.012      0.000      0.000      0.000     -0.292
     19 H        0.911     -0.044      0.070      0.063      0.005      0.966
     21 H       -2.848      0.185      0.677     -0.227     -0.028     -2.393
     24 H      -13.498      4.399      2.300      0.652     -0.505     -0.134
     25 H        0.000     12.957      5.297     -0.647     -0.354     -2.168
     27 H       12.957      0.000    -13.643      4.053     12.997      0.063
     28 H        5.297    -13.643      0.000      2.578      4.177      0.285
     30 H       -0.647      4.053      2.578      0.000    -12.993      0.047
     31 H       -0.354     12.997      4.177    -12.993      0.000     -0.323
     33 H       -2.168      0.063      0.285      0.047     -0.323      0.000
     35 H       -0.025      0.001     -0.001      0.000     -0.000     -0.033
     37 H        0.278      0.005     -0.036      0.512     -0.036      6.474
     38 H        0.171      0.001     -0.029     -0.011      0.126     12.191
     40 H       -0.014      0.019      0.143     -0.003     -0.034     -0.248
     41 H        0.010      0.022     -0.025      0.014      0.079     -0.427
     42 H       -0.018      0.013     -0.009     -0.258     -0.375     -0.207
     45 H       -0.057     -0.121     -0.141     -0.138      1.863     -0.466
     46 H       -0.014     -0.229      0.006     -0.202     -0.460     -0.215
     47 H        0.016      0.047      0.065     -0.308      0.035      0.877
     48 H       -0.014      0.030      0.022      0.028      0.012      0.003
     52 H        0.001      0.001      0.002     -0.003      0.001      0.002
     53 H        0.000     -0.000      0.000     -0.000     -0.002     -0.004
     57 H        0.000      0.000      0.000     -0.003      0.000      0.002
     58 H        0.000      0.000      0.000      0.000     -0.000     -0.000
     61 H        0.000      0.000      0.000      0.000     -0.000     -0.000
     62 H        0.000      0.000      0.000      0.000      0.000      0.000
     63 H        0.000      0.000      0.000     -0.000     -0.000     -0.000
     64 H        0.000      0.000      0.000     -0.000      0.000     -0.000
     65 H        0.000      0.000      0.000      0.000      0.000     -0.000
     66 H        0.000      0.000      0.000      0.000      0.000      0.000
     67 H        0.000      0.000      0.000      0.000      0.000      0.000
     68 H        0.000      0.000      0.000      0.000      0.000      0.000
     69 H        0.000      0.000      0.000      0.000      0.000      0.000
     70 H        0.004     -0.009     -0.008     -0.446     -0.084      0.004
     71 H        0.000     -0.002     -0.004      0.065      0.008     -0.001
     72 H        0.000     -0.009     -0.011      0.069     -0.048      0.004
                 35 H       37 H       38 H       40 H       41 H       42 H  
      3 H       -0.270     -0.001     -0.001      0.000      0.000      0.000
      4 H       -0.650     -0.044     -0.016      0.000      0.000      0.000
      8 H       -0.029     -0.002     -0.002      0.000     -0.000      0.000
      9 H       -0.145      0.005      0.002      0.000      0.001      0.000
     10 H       -0.388     -0.000     -0.000      0.000      0.000      0.000
     11 H       -0.143     -0.002     -0.000      0.000      0.000      0.000
     13 H       12.386      0.000      0.000      0.000      0.000      0.000
     16 H       -0.003      0.004      0.004      0.000      0.001     -0.001
     17 H       -0.001      0.005      0.004     -0.000      0.001      0.000
     19 H        0.041     -0.018      0.083      0.013     -0.005      0.004
     21 H       -0.014      0.059     -0.575     -0.011      0.062     -0.024
     24 H       -0.001     -0.056     -0.081     -0.019      0.067     -0.024
     25 H       -0.025      0.278      0.171     -0.014      0.010     -0.018
     27 H        0.001      0.005      0.001      0.019      0.022      0.013
     28 H       -0.001     -0.036     -0.029      0.143     -0.025     -0.009
     30 H        0.000      0.512     -0.011     -0.003      0.014     -0.258
     31 H       -0.000     -0.036      0.126     -0.034      0.079     -0.375
     33 H       -0.033      6.474     12.191     -0.248     -0.427     -0.207
     35 H        0.000      0.000     -0.000      0.000      0.000      0.000
     37 H        0.000      0.000    -12.256      9.518      2.646     -0.262
     38 H       -0.000    -12.256      0.000      6.753     11.588     -0.473
     40 H        0.000      9.518      6.753      0.000    -13.871      9.545
     41 H        0.000      2.646     11.588    -13.871      0.000      8.663
     42 H        0.000     -0.262     -0.473      9.545      8.663      0.000
     45 H       -0.000      0.064     -0.069     -0.112     -0.057     -0.093
     46 H        0.000      0.063      0.035     -0.086      0.005      1.130
     47 H        0.000     -0.164      0.010      0.050      0.044     -0.409
     48 H        0.000      0.108     -0.009     -0.212     -0.457     10.341
     52 H        0.000      0.000      0.004      0.059     -0.028     -0.282
     53 H        0.000      0.002      0.008     -0.113      0.036      0.076
     57 H        0.000     -0.000      0.002      0.111     -0.017     -0.038
     58 H        0.000      0.001      0.001     -0.037     -0.000      0.004
     61 H        0.000      0.000      0.000     -0.001     -0.000     -0.002
     62 H        0.000      0.000      0.000      0.001      0.000      0.008
     63 H        0.000      0.000      0.000     -0.003      0.002      0.001
     64 H        0.000      0.001     -0.000      0.002     -0.084     -0.001
     65 H        0.000      0.001      0.001      0.001     -0.012      0.000
     66 H        0.000     -0.000     -0.001      0.000     -0.013     -0.001
     67 H        0.000      0.000      0.000      0.000      0.001     -0.000
     68 H        0.000     -0.000      0.000      0.007      0.000     -0.007
     69 H        0.000      0.000      0.000      0.002      0.000      0.001
     70 H        0.000     -0.006      0.003      0.079      0.032     -0.195
     71 H        0.000     -0.020      0.036      0.024     -0.054     -0.347
     72 H        0.000      0.065      0.008     -0.022      0.018     -0.465
                 45 H       46 H       47 H       48 H       52 H       53 H  
      3 H        0.001     -0.000     -0.001      0.000      0.000      0.000
      4 H        0.025     -0.017     -0.020      0.000      0.000      0.000
      8 H        0.001     -0.001      0.000      0.000      0.000      0.000
      9 H       -0.003      0.002      0.000      0.000      0.000      0.000
     10 H        0.000     -0.000      0.000      0.000      0.000      0.000
     11 H        0.000      0.000      0.000      0.000      0.000      0.000
     13 H        0.000      0.000      0.000      0.000      0.000      0.000
     16 H       -0.003      0.001      0.002     -0.002      0.000      0.000
     17 H       -0.003      0.000      0.001     -0.001      0.000      0.000
     19 H        0.010     -0.010     -0.008      0.005      0.000      0.000
     21 H       -0.015      0.044      0.017     -0.015      0.001     -0.001
     24 H       -0.022     -0.022     -0.016      0.002      0.000      0.000
     25 H       -0.057     -0.014      0.016     -0.014      0.001      0.000
     27 H       -0.121     -0.229      0.047      0.030      0.001     -0.000
     28 H       -0.141      0.006      0.065      0.022      0.002      0.000
     30 H       -0.138     -0.202     -0.308      0.028     -0.003     -0.000
     31 H        1.863     -0.460      0.035      0.012      0.001     -0.002
     33 H       -0.466     -0.215      0.877      0.003      0.002     -0.004
     35 H       -0.000      0.000      0.000      0.000      0.000      0.000
     37 H        0.064      0.063     -0.164      0.108      0.000      0.002
     38 H       -0.069      0.035      0.010     -0.009      0.004      0.008
     40 H       -0.112     -0.086      0.050     -0.212      0.059     -0.113
     41 H       -0.057      0.005      0.044     -0.457     -0.028      0.036
     42 H       -0.093      1.130     -0.409     10.341     -0.282      0.076
     45 H        0.000    -13.594    -13.090     -0.164      0.070     -0.003
     46 H      -13.594      0.000    -12.920     -0.101      0.241     -0.004
     47 H      -13.090    -12.920      0.000     -0.047      0.070     -0.002
     48 H       -0.164     -0.101     -0.047      0.000      9.707     -0.634
     52 H        0.070      0.241      0.070      9.707      0.000     16.730
     53 H       -0.003     -0.004     -0.002     -0.634     16.730      0.000
     57 H        0.000      0.000      0.001      0.048     -1.820      5.867
     58 H       -0.000     -0.000     -0.000     -0.005      0.138     -0.191
     61 H        0.000      0.000      0.000      0.095     -0.176     -0.534
     62 H        0.000      0.000      0.000      0.243     -0.200      0.769
     63 H        0.000      0.000      0.000      0.060     -0.064     -0.330
     64 H       -0.000     -0.000      0.000     -0.001      0.017     -0.008
     65 H       -0.000      0.000     -0.000     -0.000      0.025     -0.038
     66 H       -0.000      0.000     -0.000     -0.003      0.097      0.180
     67 H        0.000      0.000      0.000     -0.001     -0.010      0.037
     68 H        0.000      0.000      0.000      0.005     -0.096      0.039
     69 H        0.000      0.000      0.000     -0.003      0.023      0.000
     70 H       -0.021     -0.050     -0.221      4.311     -0.059     -0.363
     71 H        0.032     -0.033     -0.041     12.639     -0.278      0.106
     72 H       -0.011     -0.029     -0.015      2.349     -0.156      0.112
                 57 H       58 H       61 H       62 H       63 H       64 H  
      3 H        0.000      0.000      0.000      0.000      0.000      0.000
      4 H        0.000      0.000      0.000      0.000      0.000      0.000
      8 H        0.000      0.000      0.000      0.000      0.000      0.000
      9 H        0.000      0.000      0.000      0.000      0.000      0.000
     10 H        0.000      0.000      0.000      0.000      0.000      0.000
     11 H        0.000      0.000      0.000      0.000      0.000      0.000
     13 H        0.000      0.000      0.000      0.000      0.000      0.000
     16 H        0.000      0.000      0.000      0.000      0.000      0.000
     17 H        0.000      0.000      0.000      0.000      0.000      0.000
     19 H        0.000      0.000      0.000      0.000      0.000      0.000
     21 H        0.000     -0.000      0.000      0.000      0.000      0.000
     24 H        0.000      0.000      0.000      0.000      0.000      0.000
     25 H        0.000      0.000      0.000      0.000      0.000      0.000
     27 H        0.000      0.000      0.000      0.000      0.000      0.000
     28 H        0.000      0.000      0.000      0.000      0.000      0.000
     30 H       -0.003      0.000      0.000      0.000     -0.000     -0.000
     31 H        0.000     -0.000     -0.000      0.000     -0.000      0.000
     33 H        0.002     -0.000     -0.000      0.000     -0.000     -0.000
     35 H        0.000      0.000      0.000      0.000      0.000      0.000
     37 H       -0.000      0.001      0.000      0.000      0.000      0.001
     38 H        0.002      0.001      0.000      0.000      0.000     -0.000
     40 H        0.111     -0.037     -0.001      0.001     -0.003      0.002
     41 H       -0.017     -0.000     -0.000      0.000      0.002     -0.084
     42 H       -0.038      0.004     -0.002      0.008      0.001     -0.001
     45 H        0.000     -0.000      0.000      0.000      0.000     -0.000
     46 H        0.000     -0.000      0.000      0.000      0.000     -0.000
     47 H        0.001     -0.000      0.000      0.000      0.000      0.000
     48 H        0.048     -0.005      0.095      0.243      0.060     -0.001
     52 H       -1.820      0.138     -0.176     -0.200     -0.064      0.017
     53 H        5.867     -0.191     -0.534      0.769     -0.330     -0.008
     57 H        0.000      9.715     12.784      5.125      1.943     -0.208
     58 H        9.715      0.000     -0.399     -0.209     -0.420      4.061
     61 H       12.784     -0.399      0.000    -12.694    -12.447      0.058
     62 H        5.125     -0.209    -12.694      0.000    -13.184      0.028
     63 H        1.943     -0.420    -12.447    -13.184      0.000      0.013
     64 H       -0.208      4.061      0.058      0.028      0.013      0.000
     65 H       -0.391     12.701      0.028      0.040     -0.057    -12.224
     66 H       -0.444      2.622     -0.026     -0.003      0.723    -12.971
     67 H       -0.236      4.189     -0.029     -0.248     -0.003      2.876
     68 H       -0.460      2.421      0.016     -0.022     -0.083      0.147
     69 H       -0.371     12.779      0.074     -0.018      0.016     -0.364
     70 H        0.580     -0.019     -0.011     -0.006     -0.012      0.002
     71 H       -0.062      0.003     -0.001     -0.001      0.003     -0.001
     72 H       -0.006      0.002     -0.002     -0.003     -0.000      0.001
                 65 H       66 H       67 H       68 H       69 H       70 H  
      3 H        0.000      0.000      0.000      0.000      0.000      0.000
      4 H        0.000      0.000      0.000      0.000      0.000      0.000
      8 H        0.000      0.000      0.000      0.000      0.000      0.000
      9 H        0.000      0.000      0.000      0.000      0.000      0.000
     10 H        0.000      0.000      0.000      0.000      0.000      0.000
     11 H        0.000      0.000      0.000      0.000      0.000      0.000
     13 H        0.000      0.000      0.000      0.000      0.000      0.000
     16 H        0.000      0.000      0.000      0.000      0.000      0.000
     17 H        0.000      0.000      0.000      0.000      0.000      0.000
     19 H        0.000      0.000      0.000      0.000      0.000     -0.000
     21 H        0.000      0.000      0.000      0.000      0.000      0.001
     24 H        0.000      0.000      0.000      0.000      0.000      0.020
     25 H        0.000      0.000      0.000      0.000      0.000      0.004
     27 H        0.000      0.000      0.000      0.000      0.000     -0.009
     28 H        0.000      0.000      0.000      0.000      0.000     -0.008
     30 H        0.000      0.000      0.000      0.000      0.000     -0.446
     31 H        0.000      0.000      0.000      0.000      0.000     -0.084
     33 H       -0.000      0.000      0.000      0.000      0.000      0.004
     35 H        0.000      0.000      0.000      0.000      0.000      0.000
     37 H        0.001     -0.000      0.000     -0.000      0.000     -0.006
     38 H        0.001     -0.001      0.000      0.000      0.000      0.003
     40 H        0.001      0.000      0.000      0.007      0.002      0.079
     41 H       -0.012     -0.013      0.001      0.000      0.000      0.032
     42 H        0.000     -0.001     -0.000     -0.007      0.001     -0.195
     45 H       -0.000     -0.000      0.000      0.000      0.000     -0.021
     46 H        0.000      0.000      0.000      0.000      0.000     -0.050
     47 H       -0.000     -0.000      0.000      0.000      0.000     -0.221
     48 H       -0.000     -0.003     -0.001      0.005     -0.003      4.311
     52 H        0.025      0.097     -0.010     -0.096      0.023     -0.059
     53 H       -0.038      0.180      0.037      0.039      0.000     -0.363
     57 H       -0.391     -0.444     -0.236     -0.460     -0.371      0.580
     58 H       12.701      2.622      4.189      2.421     12.779     -0.019
     61 H        0.028     -0.026     -0.029      0.016      0.074     -0.011
     62 H        0.040     -0.003     -0.248     -0.022     -0.018     -0.006
     63 H       -0.057      0.723     -0.003     -0.083      0.016     -0.012
     64 H      -12.224    -12.971      2.876      0.147     -0.364      0.002
     65 H        0.000    -12.662     -0.371     -0.221     -0.281      0.002
     66 H      -12.662      0.000      0.163     -0.261     -0.221     -0.003
     67 H       -0.371      0.163      0.000    -13.019    -12.108      0.000
     68 H       -0.221     -0.261    -13.019      0.000    -12.785      0.000
     69 H       -0.281     -0.221    -12.108    -12.785      0.000      0.000
     70 H        0.002     -0.003      0.000      0.000      0.000      0.000
     71 H       -0.000      0.000     -0.000      0.000      0.000    -12.382
     72 H       -0.001      0.000      0.000      0.000      0.001    -13.254
                 71 H       72 H  
      3 H        0.000      0.000
      4 H        0.000      0.000
      8 H        0.000      0.000
      9 H        0.000      0.000
     10 H        0.000      0.000
     11 H        0.000      0.000
     13 H        0.000      0.000
     16 H        0.000      0.000
     17 H        0.000      0.000
     19 H        0.000      0.000
     21 H        0.001      0.002
     24 H        0.010      0.034
     25 H        0.000      0.000
     27 H       -0.002     -0.009
     28 H       -0.004     -0.011
     30 H        0.065      0.069
     31 H        0.008     -0.048
     33 H       -0.001      0.004
     35 H        0.000      0.000
     37 H       -0.020      0.065
     38 H        0.036      0.008
     40 H        0.024     -0.022
     41 H       -0.054      0.018
     42 H       -0.347     -0.465
     45 H        0.032     -0.011
     46 H       -0.033     -0.029
     47 H       -0.041     -0.015
     48 H       12.639      2.349
     52 H       -0.278     -0.156
     53 H        0.106      0.112
     57 H       -0.062     -0.006
     58 H        0.003      0.002
     61 H       -0.001     -0.002
     62 H       -0.001     -0.003
     63 H        0.003     -0.000
     64 H       -0.001      0.001
     65 H       -0.000     -0.001
     66 H        0.000      0.000
     67 H       -0.000      0.000
     68 H        0.000      0.000
     69 H        0.000      0.001
     70 H      -12.382    -13.254
     71 H        0.000    -12.623
     72 H      -12.623      0.000

Maximum memory used throughout the entire EPRNMR-calculation: 985.2 MB

Timings for individual modules:

Sum of individual times         ...      387.445 sec (=   6.457 min)
GTO integral calculation        ...        0.751 sec (=   0.013 min)   0.2 %
SCF iterations                  ...      104.272 sec (=   1.738 min)  26.9 %
EPR/NMR calculation             ...      282.422 sec (=   4.707 min)  72.9 %
                             ****ORCA TERMINATED NORMALLY****
TOTAL RUN TIME: 0 days 0 hours 6 minutes 27 seconds 814 msec
