
                                 *****************
                                 * O   R   C   A *
                                 *****************

                                            #,                                       
                                            ###                                      
                                            ####                                     
                                            #####                                    
                                            ######                                   
                                           ########,                                 
                                     ,,################,,,,,                         
                               ,,#################################,,                 
                          ,,##########################################,,             
                       ,#########################################, ''#####,          
                    ,#############################################,,   '####,        
                  ,##################################################,,,,####,       
                ,###########''''           ''''###############################       
              ,#####''   ,,,,##########,,,,          '''####'''          '####       
            ,##' ,,,,###########################,,,                        '##       
           ' ,,###''''                  '''############,,,                           
         ,,##''                                '''############,,,,        ,,,,,,###''
      ,#''                                            '''#######################'''  
     '                                                          ''''####''''         
             ,#######,   #######,   ,#######,      ##                                
            ,#'     '#,  ##    ##  ,#'     '#,    #''#        ######   ,####,        
            ##       ##  ##   ,#'  ##            #'  '#       #        #'  '#        
            ##       ##  #######   ##           ,######,      #####,   #    #        
            '#,     ,#'  ##    ##  '#,     ,#' ,#      #,         ##   #,  ,#        
             '#######'   ##     ##  '#######'  #'      '#     #####' # '####'        



                  #######################################################
                  #                        -***-                        #
                  #          Department of theory and spectroscopy      #
                  #    Directorship and core code : Frank Neese         #
                  #        Max Planck Institute fuer Kohlenforschung    #
                  #                Kaiser Wilhelm Platz 1               #
                  #                 D-45470 Muelheim/Ruhr               #
                  #                      Germany                        #
                  #                                                     #
                  #                  All rights reserved                #
                  #                        -***-                        #
                  #######################################################


                         Program Version 5.0.2 -  RELEASE  -


 With contributions from (in alphabetic order):
   Daniel Aravena         : Magnetic Suceptibility
   Michael Atanasov       : Ab Initio Ligand Field Theory (pilot matlab implementation)
   Alexander A. Auer      : GIAO ZORA, VPT2 properties, NMR spectrum
   Ute Becker             : Parallelization
   Giovanni Bistoni       : ED, misc. LED, open-shell LED, HFLD
   Martin Brehm           : Molecular dynamics
   Dmytro Bykov           : SCF Hessian
   Vijay G. Chilkuri      : MRCI spin determinant printing, contributions to CSF-ICE
   Dipayan Datta          : RHF DLPNO-CCSD density
   Achintya Kumar Dutta   : EOM-CC, STEOM-CC
   Dmitry Ganyushin       : Spin-Orbit,Spin-Spin,Magnetic field MRCI
   Miquel Garcia          : C-PCM and meta-GGA Hessian, CC/C-PCM, Gaussian charge scheme
   Yang Guo               : DLPNO-NEVPT2, F12-NEVPT2, CIM, IAO-localization
   Andreas Hansen         : Spin unrestricted coupled pair/coupled cluster methods
   Benjamin Helmich-Paris : MC-RPA, TRAH-SCF, COSX integrals
   Lee Huntington         : MR-EOM, pCC
   Robert Izsak           : Overlap fitted RIJCOSX, COSX-SCS-MP3, EOM
   Marcus Kettner         : VPT2
   Christian Kollmar      : KDIIS, OOCD, Brueckner-CCSD(T), CCSD density, CASPT2, CASPT2-K
   Simone Kossmann        : Meta GGA functionals, TD-DFT gradient, OOMP2, MP2 Hessian
   Martin Krupicka        : Initial AUTO-CI
   Lucas Lang             : DCDCAS
   Marvin Lechner         : AUTO-CI (C++ implementation), FIC-MRCC
   Dagmar Lenk            : GEPOL surface, SMD
   Dimitrios Liakos       : Extrapolation schemes; Compound Job, initial MDCI parallelization
   Dimitrios Manganas     : Further ROCIS development; embedding schemes
   Dimitrios Pantazis     : SARC Basis sets
   Anastasios Papadopoulos: AUTO-CI, single reference methods and gradients
   Taras Petrenko         : DFT Hessian,TD-DFT gradient, ASA, ECA, R-Raman, ABS, FL, XAS/XES, NRVS
   Peter Pinski           : DLPNO-MP2, DLPNO-MP2 Gradient
   Christoph Reimann      : Effective Core Potentials
   Marius Retegan         : Local ZFS, SOC
   Christoph Riplinger    : Optimizer, TS searches, QM/MM, DLPNO-CCSD(T), (RO)-DLPNO pert. Triples
   Tobias Risthaus        : Range-separated hybrids, TD-DFT gradient, RPA, STAB
   Michael Roemelt        : Original ROCIS implementation
   Masaaki Saitow         : Open-shell DLPNO-CCSD energy and density
   Barbara Sandhoefer     : DKH picture change effects
   Avijit Sen             : IP-ROCIS
   Kantharuban Sivalingam : CASSCF convergence, NEVPT2, FIC-MRCI
   Bernardo de Souza      : ESD, SOC TD-DFT
   Georgi Stoychev        : AutoAux, RI-MP2 NMR, DLPNO-MP2 response
   Willem Van den Heuvel  : Paramagnetic NMR
   Boris Wezisla          : Elementary symmetry handling
   Frank Wennmohs         : Technical directorship


 We gratefully acknowledge several colleagues who have allowed us to
 interface, adapt or use parts of their codes:
   Stefan Grimme, W. Hujo, H. Kruse, P. Pracht,  : VdW corrections, initial TS optimization,
                  C. Bannwarth, S. Ehlert          DFT functionals, gCP, sTDA/sTD-DF
   Ed Valeev, F. Pavosevic, A. Kumar             : LibInt (2-el integral package), F12 methods
   Garnet Chan, S. Sharma, J. Yang, R. Olivares  : DMRG
   Ulf Ekstrom                                   : XCFun DFT Library
   Mihaly Kallay                                 : mrcc  (arbitrary order and MRCC methods)
   Jiri Pittner, Ondrej Demel                    : Mk-CCSD
   Frank Weinhold                                : gennbo (NPA and NBO analysis)
   Christopher J. Cramer and Donald G. Truhlar   : smd solvation model
   Lars Goerigk                                  : TD-DFT with DH, B97 family of functionals
   V. Asgeirsson, H. Jonsson                     : NEB implementation
   FAccTs GmbH                                   : IRC, NEB, NEB-TS, DLPNO-Multilevel, CI-OPT
                                                   MM, QMMM, 2- and 3-layer-ONIOM, Crystal-QMMM,
                                                   LR-CPCM, SF, NACMEs, symmetry and pop. for TD-DFT,
                                                   nearIR, NL-DFT gradient (VV10), updates on ESD,
                                                   ML-optimized integration grids
   S Lehtola, MJT Oliveira, MAL Marques          : LibXC Library
   Liviu Ungur et al                             : ANISO software


 Your calculation uses the libint2 library for the computation of 2-el integrals
 For citations please refer to: http://libint.valeyev.net

 Your ORCA version has been built with support for libXC version: 5.1.0
 For citations please refer to: https://tddft.org/programs/libxc/

 This ORCA versions uses:
   CBLAS   interface :  Fast vector & matrix operations
   LAPACKE interface :  Fast linear algebra routines
   SCALAPACK package :  Parallel linear algebra routines
   Shared memory     :  Shared parallel matrices
   BLAS/LAPACK       :  OpenBLAS 0.3.15  USE64BITINT DYNAMIC_ARCH NO_AFFINITY Zen SINGLE_THREADED
        Core in use  :  Zen
   Copyright (c) 2011-2014, The OpenBLAS Project


Your calculation utilizes the atom-pairwise dispersion correction
based on tight binding partial charges (D4)
Cite in your paper:
E.Caldeweyher, C.Bannwarth, S.Grimme, J.Chem.Phys., (2017), 147, 034112.
E.Caldeweyher, S.Ehlert, A.Hansen, H.Neugebauer, S.Grimme, J.Chem.Phys., (2018), in progress.
   

================================================================================

----- Orbital basis set information -----
Your calculation utilizes the basis: pcSseg-1
   F. Jensen, J. Chem. Theory Comput. 11, 132 (2015).

----- AuxJ basis set information -----
Your calculation utilizes the auxiliary basis: def2/J
   F. Weigend, Phys. Chem. Chem. Phys. 8, 1057 (2006).

================================================================================
                                        WARNINGS
                       Please study these warnings very carefully!
================================================================================



WARNING: Found flag for RIJCOSX approximation but no HF exchange needed!
  ===> : RIJCOSX  will be disabled and Split-RI-J is turned on

INFO   : the flag for use of the SHARK integral package has been found!

================================================================================
                                       INPUT FILE
================================================================================
NAME = inpS
|  1> ! revTPSS
|  2> ! D4
|  3> ! pcSseg-1
|  4> ! def2/J RIJCOSX
|  5> ! DEFGRID2
|  6> ! scfconv7
|  7> ! smallprint printgap noloewdin
|  8> ! NOSOSCF
|  9> %MaxCore 4000
| 10> %output
| 11>        print[P_BondOrder_M] 1
| 12>        print[P_Mayer] 1
| 13>        print[P_basis] 2
| 14> end
| 15> %pal
| 16>     nprocs 4
| 17> end
| 18> ! CPCM(chloroform)
| 19> *xyz 0 1
| 20> C   -5.1413635800   0.1267026700  -0.6092433500
| 21> C   -6.5746565300  -0.3278903200  -0.7497738700
| 22> C   -7.5139040700   0.6248034900   0.0013161500
| 23> H   -6.6974478600  -1.3499093900  -0.3736413800
| 24> H   -6.8662010700  -0.3196507400  -1.8105127300
| 25> C   -4.9164140900   1.5314789500  -1.0173173800
| 26> C   -5.8772927400   2.5223610600  -0.3984434200
| 27> C   -7.3352733300   2.0548410500  -0.5110530800
| 28> H   -5.7525717200   3.5086031300  -0.8580368300
| 29> H   -5.6238325300   2.6303234500   0.6672032600
| 30> H   -7.6510961700   2.0861099100  -1.5627150700
| 31> H   -7.9914220700   2.7297481100   0.0507392200
| 32> O   -7.2970030900   0.5366061400   1.4196068200
| 33> H   -8.5534919700   0.3092560600  -0.1509633200
| 34> C   -4.1935924800  -0.6860286200  -0.0844040000
| 35> C   -3.9726627900   1.8970964600  -1.8915754500
| 36> H   -3.3032323800   1.1673191400  -2.3392127000
| 37> H   -3.8559243800   2.9374787900  -2.1860248000
| 38> C   -2.8224727100  -0.3239101300   0.1916324700
| 39> H   -4.5130375100  -1.6937680000   0.1786613400
| 40> C   -1.8455767200  -1.1461968400   0.6301442000
| 41> H   -2.5699512000   0.7226571900   0.0366854800
| 42> C   -1.9872512700  -2.6253754600   0.8850695700
| 43> C   -0.9247032100  -3.4400418400   0.1217509400
| 44> H   -2.9853003600  -2.9954083300   0.6349286400
| 45> H   -1.8407056500  -2.7976450200   1.9633572300
| 46> C    0.4989376100  -2.9123212700   0.3460530400
| 47> H   -1.1618904500  -3.4229982400  -0.9495327500
| 48> H   -0.9817647300  -4.4891184800   0.4369000400
| 49> C    0.6097704900  -1.4150043200   0.0266619300
| 50> H    1.1963399400  -3.5017664400  -0.2582161000
| 51> H    0.7800655900  -3.0636934400   1.3992266500
| 52> C   -0.4508486400  -0.6715851900   0.8989315000
| 53> H   -0.2138247700  -0.9695048300   1.9373445000
| 54> C   -0.0777616500   0.7992868400   0.7535101600
| 55> H   -6.3413378900   0.4982888200   1.5679998600
| 56> C    1.4696577200   0.7739518100   0.7342500200
| 57> H   -0.4811011200   1.4124122000   1.5663595400
| 58> H   -0.4693206300   1.2083517500  -0.1846865600
| 59> C    1.9059582100  -0.7102466800   0.5216658800
| 60> H    1.8798224500   1.1706060400   1.6670177400
| 61> H    1.8683137400   1.4034153100  -0.0703235100
| 62> H    2.1361572400  -1.1569001900   1.5017042800
| 63> C    3.1627219400  -0.8166603300  -0.3533612700
| 64> C    0.3667504600  -1.1496277800  -1.4658601200
| 65> H    0.5725693000  -0.1077663800  -1.7315301200
| 66> H   -0.6714157600  -1.3566395900  -1.7439360000
| 67> H    1.0123275700  -1.7824779600  -2.0840946700
| 68> H    2.9357840900  -0.3286999900  -1.3145572400
| 69> C    3.5965612600  -2.2612604600  -0.6629865500
| 70> C    4.3611857400  -0.0979608300   0.2261145300
| 71> C    4.5772792200   0.2325736700   1.4982548700
| 72> H    5.1569081700   0.1063210600  -0.4959477500
| 73> H    3.8138286000   0.0307750600   2.2534127900
| 74> C    5.8348538500   0.8661124000   2.0255065200
| 75> C    6.5179772000  -0.1086679700   2.9986600600
| 76> C    5.5279499200   2.2334892500   2.6841102900
| 77> H    6.5138721400   1.0492389200   1.1773064500
| 78> H    4.7995710600   2.0489209700   3.4907774800
| 79> C    4.8978694700   3.1973993500   1.6753348200
| 80> C    6.7758476500   2.8704816200   3.3023586500
| 81> H    5.9079421100  -0.2414703900   3.9011319200
| 82> H    7.5061726400   0.2467205000   3.3048597800
| 83> H    6.6430619000  -1.0897008200   2.5289229900
| 84> H    3.9760734800   2.7903261200   1.2486017900
| 85> H    5.5937146800   3.3884020800   0.8478752400
| 86> H    4.6642243800   4.1578531700   2.1477178000
| 87> H    7.1741926900   2.2828817500   4.1342660900
| 88> H    6.5446584200   3.8711341400   3.6839994700
| 89> H    7.5675545800   2.9750701900   2.5489443900
| 90> H    2.8811546800  -2.7766550200  -1.3088537100
| 91> H    3.7038118400  -2.8343736600   0.2655901500
| 92> H    4.5668774800  -2.2654603700  -1.1722113200
| 93> *
| 94> %eprnmr
| 95>  Nuclei = all H { shift }
| 96>  origin giao
| 97>  giao_2el giao_2el_same_as_scf
| 98>  giao_1el giao_1el_analytic
| 99> end
|100> 
|101>                          ****END OF INPUT****
================================================================================

                       ****************************
                       * Single Point Calculation *
                       ****************************

---------------------------------
CARTESIAN COORDINATES (ANGSTROEM)
---------------------------------
  C     -5.141364    0.126703   -0.609243
  C     -6.574657   -0.327890   -0.749774
  C     -7.513904    0.624803    0.001316
  H     -6.697448   -1.349909   -0.373641
  H     -6.866201   -0.319651   -1.810513
  C     -4.916414    1.531479   -1.017317
  C     -5.877293    2.522361   -0.398443
  C     -7.335273    2.054841   -0.511053
  H     -5.752572    3.508603   -0.858037
  H     -5.623833    2.630323    0.667203
  H     -7.651096    2.086110   -1.562715
  H     -7.991422    2.729748    0.050739
  O     -7.297003    0.536606    1.419607
  H     -8.553492    0.309256   -0.150963
  C     -4.193592   -0.686029   -0.084404
  C     -3.972663    1.897096   -1.891575
  H     -3.303232    1.167319   -2.339213
  H     -3.855924    2.937479   -2.186025
  C     -2.822473   -0.323910    0.191632
  H     -4.513038   -1.693768    0.178661
  C     -1.845577   -1.146197    0.630144
  H     -2.569951    0.722657    0.036685
  C     -1.987251   -2.625375    0.885070
  C     -0.924703   -3.440042    0.121751
  H     -2.985300   -2.995408    0.634929
  H     -1.840706   -2.797645    1.963357
  C      0.498938   -2.912321    0.346053
  H     -1.161890   -3.422998   -0.949533
  H     -0.981765   -4.489118    0.436900
  C      0.609770   -1.415004    0.026662
  H      1.196340   -3.501766   -0.258216
  H      0.780066   -3.063693    1.399227
  C     -0.450849   -0.671585    0.898931
  H     -0.213825   -0.969505    1.937344
  C     -0.077762    0.799287    0.753510
  H     -6.341338    0.498289    1.568000
  C      1.469658    0.773952    0.734250
  H     -0.481101    1.412412    1.566360
  H     -0.469321    1.208352   -0.184687
  C      1.905958   -0.710247    0.521666
  H      1.879822    1.170606    1.667018
  H      1.868314    1.403415   -0.070324
  H      2.136157   -1.156900    1.501704
  C      3.162722   -0.816660   -0.353361
  C      0.366750   -1.149628   -1.465860
  H      0.572569   -0.107766   -1.731530
  H     -0.671416   -1.356640   -1.743936
  H      1.012328   -1.782478   -2.084095
  H      2.935784   -0.328700   -1.314557
  C      3.596561   -2.261260   -0.662987
  C      4.361186   -0.097961    0.226115
  C      4.577279    0.232574    1.498255
  H      5.156908    0.106321   -0.495948
  H      3.813829    0.030775    2.253413
  C      5.834854    0.866112    2.025507
  C      6.517977   -0.108668    2.998660
  C      5.527950    2.233489    2.684110
  H      6.513872    1.049239    1.177306
  H      4.799571    2.048921    3.490777
  C      4.897869    3.197399    1.675335
  C      6.775848    2.870482    3.302359
  H      5.907942   -0.241470    3.901132
  H      7.506173    0.246721    3.304860
  H      6.643062   -1.089701    2.528923
  H      3.976073    2.790326    1.248602
  H      5.593715    3.388402    0.847875
  H      4.664224    4.157853    2.147718
  H      7.174193    2.282882    4.134266
  H      6.544658    3.871134    3.683999
  H      7.567555    2.975070    2.548944
  H      2.881155   -2.776655   -1.308854
  H      3.703812   -2.834374    0.265590
  H      4.566877   -2.265460   -1.172211

----------------------------
CARTESIAN COORDINATES (A.U.)
----------------------------
  NO LB      ZA    FRAG     MASS         X           Y           Z
   0 C     6.0000    0    12.011   -9.715769    0.239433   -1.151303
   1 C     6.0000    0    12.011  -12.424300   -0.619623   -1.416867
   2 C     6.0000    0    12.011  -14.199221    1.180707    0.002487
   3 H     1.0000    0     1.008  -12.656342   -2.550959   -0.706080
   4 H     1.0000    0     1.008  -12.975240   -0.604052   -3.421373
   5 C     6.0000    0    12.011   -9.290676    2.894076   -1.922451
   6 C     6.0000    0    12.011  -11.106474    4.766572   -0.752949
   7 C     6.0000    0    12.011  -13.861658    3.883087   -0.965750
   8 H     1.0000    0     1.008  -10.870785    6.630299   -1.621455
   9 H     1.0000    0     1.008  -10.627503    4.970591    1.260831
  10 H     1.0000    0     1.008  -14.458476    3.942176   -2.953104
  11 H     1.0000    0     1.008  -15.101599    5.158476    0.095883
  12 O     8.0000    0    15.999  -13.789337    1.014039    2.682668
  13 H     1.0000    0     1.008  -16.163757    0.584409   -0.285279
  14 C     6.0000    0    12.011   -7.924741   -1.296406   -0.159500
  15 C     6.0000    0    12.011   -7.507245    3.584993   -3.574560
  16 H     1.0000    0     1.008   -6.242205    2.205913   -4.420471
  17 H     1.0000    0     1.008   -7.286641    5.551030   -4.130988
  18 C     6.0000    0    12.011   -5.333700   -0.612101    0.362133
  19 H     1.0000    0     1.008   -8.528405   -3.200758    0.337621
  20 C     6.0000    0    12.011   -3.487635   -2.165998    1.190800
  21 H     1.0000    0     1.008   -4.856504    1.365624    0.069326
  22 C     6.0000    0    12.011   -3.755361   -4.961241    1.672539
  23 C     6.0000    0    12.011   -1.747436   -6.500737    0.230076
  24 H     1.0000    0     1.008   -5.641400   -5.660501    1.199841
  25 H     1.0000    0     1.008   -3.478430   -5.286783    3.710207
  26 C     6.0000    0    12.011    0.942855   -5.503490    0.653945
  27 H     1.0000    0     1.008   -2.195655   -6.468529   -1.794357
  28 H     1.0000    0     1.008   -1.855266   -8.483205    0.825621
  29 C     6.0000    0    12.011    1.152299   -2.673971    0.050384
  30 H     1.0000    0     1.008    2.260755   -6.617380   -0.487958
  31 H     1.0000    0     1.008    1.474110   -5.789542    2.644155
  32 C     6.0000    0    12.011   -0.851980   -1.269112    1.698734
  33 H     1.0000    0     1.008   -0.404070   -1.832099    3.661051
  34 C     6.0000    0    12.011   -0.146948    1.510433    1.423928
  35 H     1.0000    0     1.008  -11.983392    0.941629    2.963090
  36 C     6.0000    0    12.011    2.777251    1.462557    1.387531
  37 H     1.0000    0     1.008   -0.909149    2.669072    2.959991
  38 H     1.0000    0     1.008   -0.886887    2.283454   -0.349007
  39 C     6.0000    0    12.011    3.601739   -1.342172    0.985806
  40 H     1.0000    0     1.008    3.552350    2.212125    3.150207
  41 H     1.0000    0     1.008    3.530601    2.652071   -0.132892
  42 H     1.0000    0     1.008    4.036752   -2.186225    2.837810
  43 C     6.0000    0    12.011    5.976678   -1.543264   -0.667756
  44 C     6.0000    0    12.011    0.693058   -2.172482   -2.770074
  45 H     1.0000    0     1.008    1.081999   -0.203649   -3.272118
  46 H     1.0000    0     1.008   -1.268792   -2.563677   -3.295561
  47 H     1.0000    0     1.008    1.913022   -3.368395   -3.938368
  48 H     1.0000    0     1.008    5.547828   -0.621153   -2.484153
  49 C     6.0000    0    12.011    6.796516   -4.273163   -1.252863
  50 C     6.0000    0    12.011    8.241447   -0.185119    0.427295
  51 C     6.0000    0    12.011    8.649804    0.439501    2.831291
  52 H     1.0000    0     1.008    9.745144    0.200918   -0.937205
  53 H     1.0000    0     1.008    7.207092    0.058156    4.258333
  54 C     6.0000    0    12.011   11.026276    1.636715    3.827653
  55 C     6.0000    0    12.011   12.317192   -0.205353    5.666646
  56 C     6.0000    0    12.011   10.446311    4.220683    5.072233
  57 H     1.0000    0     1.008   12.309434    1.982774    2.224787
  58 H     1.0000    0     1.008    9.069875    3.871900    6.596613
  59 C     6.0000    0    12.011    9.255632    6.042209    3.165924
  60 C     6.0000    0    12.011   12.804496    5.424424    6.240553
  61 H     1.0000    0     1.008   11.164393   -0.456313    7.372071
  62 H     1.0000    0     1.008   14.184611    0.466234    6.245280
  63 H     1.0000    0     1.008   12.553568   -2.059236    4.778972
  64 H     1.0000    0     1.008    7.513690    5.272952    2.359515
  65 H     1.0000    0     1.008   10.570589    6.403152    1.602252
  66 H     1.0000    0     1.008    8.814107    7.857204    4.058598
  67 H     1.0000    0     1.008   13.557259    4.314021    7.812631
  68 H     1.0000    0     1.008   12.367612    7.315383    6.961750
  69 H     1.0000    0     1.008   14.300606    5.622068    4.816807
  70 H     1.0000    0     1.008    5.444593   -5.247118   -2.473375
  71 H     1.0000    0     1.008    6.999190   -5.356190    0.501893
  72 H     1.0000    0     1.008    8.630148   -4.281100   -2.215158

--------------------------------
INTERNAL COORDINATES (ANGSTROEM)
--------------------------------
 C      0   0   0     0.000000000000     0.00000000     0.00000000
 C      1   0   0     1.510209354404     0.00000000     0.00000000
 C      2   1   0     1.534258014531   110.39785605     0.00000000
 H      2   1   3     1.095936284736   110.80020104   237.85250720
 H      2   1   3     1.100105921535   109.81515268   118.68726524
 C      1   2   3     1.480041581802   113.84706755   305.86518814
 C      6   1   2     1.512659946687   114.35544036    50.11124605
 C      3   2   1     1.529522341169   110.18618611    56.82571579
 H      7   6   1     1.095196263682   110.23449395   188.63122436
 H      7   6   1     1.100681971463   108.30545047    71.92335051
 H      8   3   2     1.098505689144   108.28464791    64.52939946
 H      8   3   2     1.096194005175   109.51488855   181.49512704
 O      3   2   1     1.437488515530   110.64263727   292.76611201
 H      3   2   1     1.097042487504   109.48515668   177.25967270
 C      1   2   3     1.354348016962   121.30425274   122.49435288
 C      6   1   2     1.337411624307   123.15880878   232.12926172
 H     16   6   1     1.086780160937   121.35538817   358.95306170
 H     16   6   1     1.087530996644   120.94798721   178.36378311
 C     15   1   2     1.444747506402   125.99867531   185.08136378
 H     15   1   2     1.089397612584   116.32642468     3.06934917
 C     19  15   1     1.350101383626   126.59091336   184.75579081
 H     19  15   1     1.087694275987   115.73953126     5.50671230
 C     21  19  15     1.507656463606   125.76601069     1.74180092
 C     23  21  19     1.541215436406   111.72015930   126.05158207
 H     23  21  19     1.093433489423   112.27872999     2.31754021
 H     23  21  19     1.101751649761   107.84200685   244.68422924
 C     24  23  21     1.534781292705   112.66648612    50.74762772
 H     24  23  21     1.097359109672   109.04301879   288.64443724
 H     24  23  21     1.096875913168   109.11035135   172.68910898
 C     27  24  23     1.535009008831   111.83679138   306.21947190
 H     27  24  23     1.094968863430   108.96826026   182.66618387
 H     27  24  23     1.100509485552   109.23961530    66.16019154
 C     21  19  15     1.497587809812   122.62575769   180.50635860
 H     33  21  19     1.106000897566   106.42337989   125.72002616
 C     33  21  19     1.524403423268   121.10445827     3.07074197
 H     13   3   2     0.967876379412   107.61892667    42.20279476
 C     35  33  21     1.547746595341   103.30202588   195.00677522
 H     35  33  21     1.095139054961   112.28759895    73.25339722
 H     35  33  21     1.095840143831   110.75683483   313.50824021
 C     30  27  24     1.556218123250   115.82989512   166.59041597
 H     37  35  33     1.093446525161   111.00682797   252.18384942
 H     37  35  33     1.096580815668   111.29696241   133.94827896
 H     40  30  27     1.101347455113   105.87124772   322.27665209
 C     40  30  27     1.535073760829   117.98204249    83.18443620
 C     30  27  24     1.535286785164   111.06663542   294.78839999
 H     45  30  27     1.094722394312   111.75679640   187.54996385
 H     45  30  27     1.094517786455   111.37272031    67.60250709
 H     45  30  27     1.095209164541   110.82911702   307.54136721
 H     44  40  30     1.101591473242   107.33803160    62.56800738
 C     44  40  30     1.539790214669   114.22545134   303.68704406
 C     44  40  30     1.512824065778   113.40952159   180.13432202
 C     51  44  40     1.332024959392   127.75067631    22.15674852
 H     51  44  40     1.093745497081   114.34310042   197.99071203
 H     52  51  44     1.092631233452   120.05832609   356.66995177
 C     52  51  44     1.503615501003   125.10863584   175.63050128
 C     55  52  51     1.537492144197   109.05156199   244.61319402
 C     55  52  51     1.548440634323   110.82107213   120.55844219
 H     55  52  51     1.101836884130   108.39165227     2.66441278
 H     57  55  52     1.102412431488   107.11788317    58.16563380
 C     57  55  52     1.530931743491   110.93496913   300.03787428
 C     57  55  52     1.531417336529   112.17983942   176.77361713
 H     56  55  52     1.097376303681   110.50345012   292.71582946
 H     56  55  52     1.093887316305   111.87452323   172.16638217
 H     56  55  52     1.094862799571   110.32184388    51.99377334
 H     60  57  55     1.094311445913   111.68007844    58.04127427
 H     60  57  55     1.097894328103   110.20051833   298.32831974
 H     60  57  55     1.095539706367   110.83266667   178.94009021
 H     61  57  55     1.093628075190   112.35951047   295.35524528
 H     61  57  55     1.095629335743   110.39997134   175.21755369
 H     61  57  55     1.097894202169   110.49922212    56.17029997
 H     50  44  40     1.092969585831   112.13601531    67.66845980
 H     50  44  40     1.096456161781   110.34351086   306.53946603
 H     50  44  40     1.095828943048   110.27453778   187.61473580

---------------------------
INTERNAL COORDINATES (A.U.)
---------------------------
 C      0   0   0     0.000000000000     0.00000000     0.00000000
 C      1   0   0     2.853882084709     0.00000000     0.00000000
 C      2   1   0     2.899327466237   110.39785605     0.00000000
 H      2   1   3     2.071019438378   110.80020104   237.85250720
 H      2   1   3     2.078898910006   109.81515268   118.68726524
 C      1   2   3     2.796873256421   113.84706755   305.86518814
 C      6   1   2     2.858513032990   114.35544036    50.11124605
 C      3   2   1     2.890378340523   110.18618611    56.82571579
 H      7   6   1     2.069621001253   110.23449395   188.63122436
 H      7   6   1     2.079987486609   108.30545047    71.92335051
 H      8   3   2     2.075874909037   108.28464791    64.52939946
 H      8   3   2     2.071506459426   109.51488855   181.49512704
 O      3   2   1     2.716459615009   110.64263727   292.76611201
 H      3   2   1     2.073109858659   109.48515668   177.25967270
 C      1   2   3     2.559346842077   121.30425274   122.49435288
 C      6   1   2     2.527341698262   123.15880878   232.12926172
 H     16   6   1     2.053716871950   121.35538817   358.95306170
 H     16   6   1     2.055135745807   120.94798721   178.36378311
 C     15   1   2     2.730177119765   125.99867531   185.08136378
 H     15   1   2     2.058663138731   116.32642468     3.06934917
 C     19  15   1     2.551321868081   126.59091336   184.75579081
 H     19  15   1     2.055444299049   115.73953126     5.50671230
 C     21  19  15     2.849057820251   125.76601069     1.74180092
 C     23  21  19     2.912475088180   111.72015930   126.05158207
 H     23  21  19     2.066289840667   112.27872999     2.31754021
 H     23  21  19     2.082008885645   107.84200685   244.68422924
 C     24  23  21     2.900316318677   112.66648612    50.74762772
 H     24  23  21     2.073708187843   109.04301879   288.64443724
 H     24  23  21     2.072795078783   109.11035135   172.68910898
 C     27  24  23     2.900746639793   111.83679138   306.21947190
 H     27  24  23     2.069191277055   108.96826026   182.66618387
 H     27  24  23     2.079661535476   109.23961530    66.16019154
 C     21  19  15     2.830030822044   122.62575769   180.50635860
 H     33  21  19     2.090038800271   106.42337989   125.72002616
 C     33  21  19     2.880704987588   121.10445827     3.07074197
 H     13   3   2     1.829021288580   107.61892667    42.20279476
 C     35  33  21     2.924817189903   103.30202588   195.00677522
 H     35  33  21     2.069512892438   112.28759895    73.25339722
 H     35  33  21     2.070837758397   110.75683483   313.50824021
 C     30  27  24     2.940826057588   115.82989512   166.59041597
 H     37  35  33     2.066314474642   111.00682797   252.18384942
 H     37  35  33     2.072237425325   111.29696241   133.94827896
 H     40  30  27     2.081245068454   105.87124772   322.27665209
 C     40  30  27     2.900869003336   117.98204249    83.18443620
 C     30  27  24     2.901271560989   111.06663542   294.78839999
 H     45  30  27     2.068725517921   111.75679640   187.54996385
 H     45  30  27     2.068338865106   111.37272031    67.60250709
 H     45  30  27     2.069645380344   110.82911702   307.54136721
 H     44  40  30     2.081706195890   107.33803160    62.56800738
 C     44  40  30     2.909781809415   114.22545134   303.68704406
 C     44  40  30     2.858823173125   113.40952159   180.13432202
 C     51  44  40     2.517162376799   127.75067631    22.15674852
 H     51  44  40     2.066879449693   114.34310042   197.99071203
 H     52  51  44     2.064773796593   120.05832609   356.66995177
 C     52  51  44     2.841421507615   125.10863584   175.63050128
 C     55  52  51     2.905439085587   109.05156199   244.61319402
 C     55  52  51     2.926128733506   110.82107213   120.55844219
 H     55  52  51     2.082169955259   108.39165227     2.66441278
 H     57  55  52     2.083257582143   107.11788317    58.16563380
 C     57  55  52     2.893041724924   110.93496913   300.03787428
 C     57  55  52     2.893959362778   112.17983942   176.77361713
 H     56  55  52     2.073740679812   110.50345012   292.71582946
 H     56  55  52     2.067147449187   111.87452323   172.16638217
 H     56  55  52     2.068990845408   110.32184388    51.99377334
 H     60  57  55     2.067948937991   111.68007844    58.04127427
 H     60  57  55     2.074719604101   110.20051833   298.32831974
 H     60  57  55     2.070270013871   110.83266667   178.94009021
 H     61  57  55     2.066657554477   112.35951047   295.35524528
 H     61  57  55     2.070439388844   110.39997134   175.21755369
 H     61  57  55     2.074719366119   110.49922212    56.17029997
 H     50  44  40     2.065413189926   112.13601531    67.66845980
 H     50  44  40     2.072001863616   110.34351086   306.53946603
 H     50  44  40     2.070816591984   110.27453778   187.61473580

---------------------
BASIS SET INFORMATION
---------------------
There are 3 groups of distinct atoms

 Group   1 Type C   : 8s5p1d contracted to 3s3p1d pattern {521/311/1}
 Group   2 Type H   : 4s2p contracted to 2s1p pattern {31/2}
 Group   3 Type O   : 8s5p1d contracted to 3s3p1d pattern {521/311/1}

Atom   0C    basis set group =>   1
Atom   1C    basis set group =>   1
Atom   2C    basis set group =>   1
Atom   3H    basis set group =>   2
Atom   4H    basis set group =>   2
Atom   5C    basis set group =>   1
Atom   6C    basis set group =>   1
Atom   7C    basis set group =>   1
Atom   8H    basis set group =>   2
Atom   9H    basis set group =>   2
Atom  10H    basis set group =>   2
Atom  11H    basis set group =>   2
Atom  12O    basis set group =>   3
Atom  13H    basis set group =>   2
Atom  14C    basis set group =>   1
Atom  15C    basis set group =>   1
Atom  16H    basis set group =>   2
Atom  17H    basis set group =>   2
Atom  18C    basis set group =>   1
Atom  19H    basis set group =>   2
Atom  20C    basis set group =>   1
Atom  21H    basis set group =>   2
Atom  22C    basis set group =>   1
Atom  23C    basis set group =>   1
Atom  24H    basis set group =>   2
Atom  25H    basis set group =>   2
Atom  26C    basis set group =>   1
Atom  27H    basis set group =>   2
Atom  28H    basis set group =>   2
Atom  29C    basis set group =>   1
Atom  30H    basis set group =>   2
Atom  31H    basis set group =>   2
Atom  32C    basis set group =>   1
Atom  33H    basis set group =>   2
Atom  34C    basis set group =>   1
Atom  35H    basis set group =>   2
Atom  36C    basis set group =>   1
Atom  37H    basis set group =>   2
Atom  38H    basis set group =>   2
Atom  39C    basis set group =>   1
Atom  40H    basis set group =>   2
Atom  41H    basis set group =>   2
Atom  42H    basis set group =>   2
Atom  43C    basis set group =>   1
Atom  44C    basis set group =>   1
Atom  45H    basis set group =>   2
Atom  46H    basis set group =>   2
Atom  47H    basis set group =>   2
Atom  48H    basis set group =>   2
Atom  49C    basis set group =>   1
Atom  50C    basis set group =>   1
Atom  51C    basis set group =>   1
Atom  52H    basis set group =>   2
Atom  53H    basis set group =>   2
Atom  54C    basis set group =>   1
Atom  55C    basis set group =>   1
Atom  56C    basis set group =>   1
Atom  57H    basis set group =>   2
Atom  58H    basis set group =>   2
Atom  59C    basis set group =>   1
Atom  60C    basis set group =>   1
Atom  61H    basis set group =>   2
Atom  62H    basis set group =>   2
Atom  63H    basis set group =>   2
Atom  64H    basis set group =>   2
Atom  65H    basis set group =>   2
Atom  66H    basis set group =>   2
Atom  67H    basis set group =>   2
Atom  68H    basis set group =>   2
Atom  69H    basis set group =>   2
Atom  70H    basis set group =>   2
Atom  71H    basis set group =>   2
Atom  72H    basis set group =>   2

-------------------------
BASIS SET IN INPUT FORMAT
-------------------------

 # Basis set for element : H 
 NewGTO H 
 S 3 
   1      12.2518000000      0.0372173893
   2       1.8687100000      0.2538082070
   3       0.4182080000      0.7973867639
 S 1 
   1       0.1061000000      1.0000000000
 P 2 
   1       9.0000000000      0.0402678705
   2       1.0000000000      0.9880231245
  end;

 # Basis set for element : C 
 NewGTO C 
 S 5 
   1    1243.2000000000      0.0056300977
   2     187.1450000000      0.0419506039
   3      42.5126000000      0.1846643605
   4      11.7393000000      0.4665574214
   5       3.5054800000      0.4482347783
 S 2 
   1       5.3908900000     -0.1481148174
   2       0.4933410000      1.0519817143
 S 1 
   1       0.1497410000      1.0000000000
 P 3 
   1      59.6736000000      0.0113906672
   2       9.1805600000      0.1672414929
   3       1.9365800000      0.9041087436
 P 1 
   1       0.5262960000      1.0000000000
 P 1 
   1       0.1363190000      1.0000000000
 D 1 
   1       0.8000000000      1.0000000000
  end;

 # Basis set for element : O 
 NewGTO O 
 S 5 
   1    2288.6400000000      0.0054511382
   2     344.4160000000      0.0407189228
   3      78.2538000000      0.1813694209
   4      21.7195000000      0.4655368202
   5       6.5590700000      0.4512113212
 S 2 
   1      10.4656000000     -0.1502112012
   2       0.9643510000      1.0528679834
 S 1 
   1       0.2851270000      1.0000000000
 P 3 
   1     110.8840000000      0.0113058003
   2      17.0590000000      0.1699226452
   3       3.6899900000      0.9008060328
 P 1 
   1       0.9929960000      1.0000000000
 P 1 
   1       0.2449240000      1.0000000000
 D 1 
   1       1.0000000000      1.0000000000
  end;

---------------------------------
AUXILIARY/J BASIS SET INFORMATION
---------------------------------
There are 3 groups of distinct atoms

 Group   1 Type C   : 12s5p4d2f1g contracted to 6s4p3d1f1g pattern {711111/2111/211/2/1}
 Group   2 Type H   : 5s2p1d contracted to 3s1p1d pattern {311/2/1}
 Group   3 Type O   : 12s5p4d2f1g contracted to 6s4p3d1f1g pattern {711111/2111/211/2/1}

Atom   0C    basis set group =>   1
Atom   1C    basis set group =>   1
Atom   2C    basis set group =>   1
Atom   3H    basis set group =>   2
Atom   4H    basis set group =>   2
Atom   5C    basis set group =>   1
Atom   6C    basis set group =>   1
Atom   7C    basis set group =>   1
Atom   8H    basis set group =>   2
Atom   9H    basis set group =>   2
Atom  10H    basis set group =>   2
Atom  11H    basis set group =>   2
Atom  12O    basis set group =>   3
Atom  13H    basis set group =>   2
Atom  14C    basis set group =>   1
Atom  15C    basis set group =>   1
Atom  16H    basis set group =>   2
Atom  17H    basis set group =>   2
Atom  18C    basis set group =>   1
Atom  19H    basis set group =>   2
Atom  20C    basis set group =>   1
Atom  21H    basis set group =>   2
Atom  22C    basis set group =>   1
Atom  23C    basis set group =>   1
Atom  24H    basis set group =>   2
Atom  25H    basis set group =>   2
Atom  26C    basis set group =>   1
Atom  27H    basis set group =>   2
Atom  28H    basis set group =>   2
Atom  29C    basis set group =>   1
Atom  30H    basis set group =>   2
Atom  31H    basis set group =>   2
Atom  32C    basis set group =>   1
Atom  33H    basis set group =>   2
Atom  34C    basis set group =>   1
Atom  35H    basis set group =>   2
Atom  36C    basis set group =>   1
Atom  37H    basis set group =>   2
Atom  38H    basis set group =>   2
Atom  39C    basis set group =>   1
Atom  40H    basis set group =>   2
Atom  41H    basis set group =>   2
Atom  42H    basis set group =>   2
Atom  43C    basis set group =>   1
Atom  44C    basis set group =>   1
Atom  45H    basis set group =>   2
Atom  46H    basis set group =>   2
Atom  47H    basis set group =>   2
Atom  48H    basis set group =>   2
Atom  49C    basis set group =>   1
Atom  50C    basis set group =>   1
Atom  51C    basis set group =>   1
Atom  52H    basis set group =>   2
Atom  53H    basis set group =>   2
Atom  54C    basis set group =>   1
Atom  55C    basis set group =>   1
Atom  56C    basis set group =>   1
Atom  57H    basis set group =>   2
Atom  58H    basis set group =>   2
Atom  59C    basis set group =>   1
Atom  60C    basis set group =>   1
Atom  61H    basis set group =>   2
Atom  62H    basis set group =>   2
Atom  63H    basis set group =>   2
Atom  64H    basis set group =>   2
Atom  65H    basis set group =>   2
Atom  66H    basis set group =>   2
Atom  67H    basis set group =>   2
Atom  68H    basis set group =>   2
Atom  69H    basis set group =>   2
Atom  70H    basis set group =>   2
Atom  71H    basis set group =>   2
Atom  72H    basis set group =>   2

-------------------------------------
AUXILIARY/J BASIS SET IN INPUT FORMAT
-------------------------------------

 # Auxiliary/J basis set for element : H 
 NewAuxJGTO H 
 S 3 
   1      15.6752927000      0.1007184237
   2       3.6063578000      0.3404257499
   3       1.2080016000      0.6491996172
 S 1 
   1       0.4726794000      1.0000000000
 S 1 
   1       0.2018100000      1.0000000000
 P 2 
   1       2.0281365000      0.5596620919
   2       0.5358730000      0.5596620919
 D 1 
   1       2.2165124000      1.0000000000
  end;

 # Auxiliary/J basis set for element : C 
 NewAuxJGTO C 
 S 7 
   1    1861.0916331000      0.0134602335
   2     642.9939764000      0.0299160374
   3     235.1105725000      0.1008649584
   4      90.7028894000      0.2370970548
   5      36.7794552000      0.3924037254
   6      15.6046273000      0.3195862154
   7       6.8907294000      0.0530104441
 S 1 
   1       3.1478850000     -1.0000000000
 S 1 
   1       1.4777287000      1.0000000000
 S 1 
   1       0.7076466000      1.0000000000
 S 1 
   1       0.3430122000      1.0000000000
 S 1 
   1       0.1669453000      1.0000000000
 P 2 
   1      13.5472892000     -0.6769313712
   2       5.4669419000     -0.3779500978
 P 1 
   1       2.1751721000      1.0000000000
 P 1 
   1       0.8582194000      1.0000000000
 P 1 
   1       0.3376720000      1.0000000000
 D 2 
   1       5.9287253000     -0.3533329857
   2       1.9809209000     -0.7456525731
 D 1 
   1       0.8055417000     -1.0000000000
 D 1 
   1       0.3531244000     -1.0000000000
 F 2 
   1       1.6755626000      0.6311076882
   2       0.5997536000      0.4968166032
 G 1 
   1       1.0024600000     -1.0000000000
  end;

 # Auxiliary/J basis set for element : O 
 NewAuxJGTO O 
 S 7 
   1    2876.8216605000      0.0168151159
   2    1004.7443032000      0.0340137548
   3     369.7579954000      0.1194951309
   4     142.9442404000      0.2664627624
   5      57.8366425000      0.4202764046
   6      24.3864983000      0.2765077335
   7      10.6622662000      0.0057008815
 S 1 
   1       4.8070437000     -1.0000000000
 S 1 
   1       2.2210770000      1.0000000000
 S 1 
   1       1.0447795000      1.0000000000
 S 1 
   1       0.4968425000      1.0000000000
 S 1 
   1       0.2371384000      1.0000000000
 P 2 
   1      64.2613382000     -0.2731534179
   2      16.3006076000     -0.8168011598
 P 1 
   1       4.3550542000      1.0000000000
 P 1 
   1       1.2019554000      1.0000000000
 P 1 
   1       0.3354196000      1.0000000000
 D 2 
   1       9.2146611000     -0.4661230638
   2       2.8435251000     -0.6600908911
 D 1 
   1       0.9955759000     -1.0000000000
 D 1 
   1       0.3649441000     -1.0000000000
 F 2 
   1       2.6420115000      0.5931563945
   2       0.7345613000      0.5931563945
 G 1 
   1       1.3931000000     -1.0000000000
  end;



           ************************************************************
           *        Program running with 4 parallel MPI-processes     *
           *              working on a common directory               *
           ************************************************************
------------------------------------------------------------------------------
                           ORCA GTO INTEGRAL CALCULATION
                           -- RI-GTO INTEGRALS CHOSEN --
------------------------------------------------------------------------------
------------------------------------------------------------------------------
                   ___                                                        
                  /   \      - P O W E R E D   B Y -                         
                 /     \                                                     
                 |  |  |   _    _      __       _____    __    __             
                 |  |  |  | |  | |    /  \     |  _  \  |  |  /  |          
                  \  \/   | |  | |   /    \    | | | |  |  | /  /          
                 / \  \   | |__| |  /  /\  \   | |_| |  |  |/  /          
                |  |  |   |  __  | /  /__\  \  |    /   |      \           
                |  |  |   | |  | | |   __   |  |    \   |  |\   \          
                \     /   | |  | | |  |  |  |  | |\  \  |  | \   \       
                 \___/    |_|  |_| |__|  |__|  |_| \__\ |__|  \__/        
                                                                              
                      - O R C A' S   B I G   F R I E N D -                    
                                      &                                       
                       - I N T E G R A L  F E E D E R -                       
                                                                              
 v1 FN, 2020, v2 2021                                                         
------------------------------------------------------------------------------


Reading SHARK input file inpS.SHARKINP.tmp ... ok
----------------------
SHARK INTEGRAL PACKAGE
----------------------

Number of atoms                             ...     73
Number of basis functions                   ...    713
Number of shells                            ...    335
Maximum angular momentum                    ...      2
Integral batch strategy                     ... SHARK/LIBINT Hybrid
RI-J (if used) integral strategy            ... SPLIT-RIJ (Revised 2003 algorithm where possible)
Printlevel                                  ...      1
Contraction scheme used                     ... SEGMENTED contraction
Coulomb Range Separation                    ... NOT USED
Exchange Range Separation                   ... NOT USED
Finite Nucleus Model                        ... NOT USED
Auxiliary Coulomb fitting basis             ... AVAILABLE
   # of basis functions in Aux-J            ...   1905
   # of shells in Aux-J                     ...    655
   Maximum angular momentum in Aux-J        ...      4
Auxiliary J/K fitting basis                 ... NOT available
Auxiliary Correlation fitting basis         ... NOT available
Auxiliary 'external' fitting basis          ... NOT available
Integral threshold                          ...     3.000000e-11
Primitive cut-off                           ...     1.000000e-12
Primitive pair pre-selection threshold      ...     1.000000e-12

Calculating pre-screening integrals         ... done (  0.0 sec) Dimension = 335
Organizing shell pair data                  ... done (  0.2 sec)
Shell pair information
Total number of shell pairs                 ...     56280
Shell pairs after pre-screening             ...     31983
Total number of primitive shell pairs       ...    225367
Primitive shell pairs kept                  ...     75227
          la=0 lb=0:   9790 shell pairs
          la=1 lb=0:  13145 shell pairs
          la=1 lb=1:   4286 shell pairs
          la=2 lb=0:   2788 shell pairs
          la=2 lb=1:   1777 shell pairs
          la=2 lb=2:    197 shell pairs

Calculating one electron integrals          ... done (  0.1 sec)
Calculating RI/J V-Matrix + Cholesky decomp.... done (  0.2 sec)
Calculating Nuclear repulsion               ... done (  0.0 sec) ENN=   2802.064555472283 Eh

SHARK setup successfully completed in   0.7 seconds

Maximum memory used throughout the entire GTOINT-calculation: 61.5 MB


           ************************************************************
           *        Program running with 4 parallel MPI-processes     *
           *              working on a common directory               *
           ************************************************************
-------------------------------------------------------------------------------
                                 ORCA SCF
-------------------------------------------------------------------------------

------------
SCF SETTINGS
------------
Hamiltonian:
 Density Functional     Method          .... DFT(GTOs)
 Exchange Functional    Exchange        .... revTPSS
 Correlation Functional Correlation     .... revTPSS
 LDA part of GGA corr.  LDAOpt          .... PW91-LDA
 Gradients option       PostSCFGGA      .... off
   Density functional embedding theory  .... OFF
 RI-approximation to the Coulomb term is turned on
   Number of AuxJ basis functions       .... 1905


General Settings:
 Integral files         IntName         .... inpS
 Hartree-Fock type      HFTyp           .... RHF
 Total Charge           Charge          ....    0
 Multiplicity           Mult            ....    1
 Number of Electrons    NEL             ....  220
 Basis Dimension        Dim             ....  713
 Nuclear Repulsion      ENuc            ....   2802.0645554723 Eh

Convergence Acceleration:
 DIIS                   CNVDIIS         .... on
   Start iteration      DIISMaxIt       ....    12
   Startup error        DIISStart       ....  0.200000
   # of expansion vecs  DIISMaxEq       ....     5
   Bias factor          DIISBfac        ....   1.050
   Max. coefficient     DIISMaxC        ....  10.000
 Trust-Rad. Augm. Hess. CNVTRAH         .... auto
   Auto Start mean grad. ratio tolernc. ....  1.125000
   Auto Start start iteration           ....    20
   Auto Start num. interpolation iter.  ....    10
   Max. Number of Micro iterations      ....    16
   Max. Number of Macro iterations      .... Maxiter - #DIIS iter
   Number of Davidson start vectors     ....     2
   Converg. threshold I  (grad. norm)   ....   1.000e-04
   Converg. threshold II (energy diff.) ....   1.000e-07
   Grad. Scal. Fac. for Micro threshold ....   0.100
   Minimum threshold for Micro iter.    ....   0.010
   NR start threshold (gradient norm)   ....   0.001
   Initial trust radius                 ....   0.400
   Minimum AH scaling param. (alpha)    ....   1.000
   Maximum AH scaling param. (alpha)    .... 1000.000
   Orbital update algorithm             .... Taylor
   White noise on init. David. guess    .... on
   Maximum white noise                  ....   0.010
   Quad. conv. algorithm                .... NR
 SOSCF                  CNVSOSCF        .... off
 Level Shifting         CNVShift        .... on
   Level shift para.    LevelShift      ....    0.2500
   Turn off err/grad.   ShiftErr        ....    0.0010
 Zerner damping         CNVZerner       .... off
 Static damping         CNVDamp         .... on
   Fraction old density DampFac         ....    0.7000
   Max. Damping (<1)    DampMax         ....    0.9800
   Min. Damping (>=0)   DampMin         ....    0.0000
   Turn off err/grad.   DampErr         ....    0.1000
 Fernandez-Rico         CNVRico         .... off

SCF Procedure:
 Maximum # iterations   MaxIter         ....   125
 SCF integral mode      SCFMode         .... Direct
   Integral package                     .... SHARK and LIBINT hybrid scheme
 Reset frequency        DirectResetFreq ....    20
 Integral Threshold     Thresh          ....  3.000e-11 Eh
 Primitive CutOff       TCut            ....  1.000e-12 Eh

Convergence Tolerance:
 Convergence Check Mode ConvCheckMode   .... Total+1el-Energy
 Convergence forced     ConvForced      .... 0
 Energy Change          TolE            ....  1.000e-07 Eh
 1-El. energy change                    ....  1.000e-04 Eh
 DIIS Error             TolErr          ....  1.000e-07


Diagonalization of the overlap matrix:
Smallest eigenvalue                        ... 5.023e-04
Time for diagonalization                   ...    0.083 sec
Threshold for overlap eigenvalues          ... 1.000e-08
Number of eigenvalues below threshold      ... 0
Time for construction of square roots      ...    0.083 sec
Total time needed                          ...    0.168 sec

Time for model grid setup =    0.770 sec

------------------------------
INITIAL GUESS: MODEL POTENTIAL
------------------------------
Loading Hartree-Fock densities                     ... done
Calculating cut-offs                               ... done
Initializing the effective Hamiltonian             ... done
Setting up the integral package (SHARK)            ... done
Starting the Coulomb interaction                   ... done (   0.7 sec)
Reading the grid                                   ... done
Mapping shells                                     ... done
Starting the XC term evaluation                    ... done (   0.3 sec)
  promolecular density results
     # of electrons  =    219.976600520
     EX              =   -164.429569528
     EC              =     -7.327611089
     EX+EC           =   -171.757180617
Transforming the Hamiltonian                       ... done (   0.0 sec)
Diagonalizing the Hamiltonian                      ... done (   0.1 sec)
Back transforming the eigenvectors                 ... done (   0.0 sec)
Now organizing SCF variables                       ... done
                      ------------------
                      INITIAL GUESS DONE (   1.9 sec)
                      ------------------
-------------------
DFT GRID GENERATION
-------------------

General Integration Accuracy     IntAcc      ... 4.388
Radial Grid Type                 RadialGrid  ... OptM3 with GC (2021)
Angular Grid (max. ang.)         AngularGrid ... 4 (Lebedev-302)
Angular grid pruning method      GridPruning ... 4 (adaptive)
Weight generation scheme         WeightScheme... Becke
Basis function cutoff            BFCut       ... 1.0000e-11
Integration weight cutoff        WCut        ... 1.0000e-14
Angular grids for H and He will be reduced by one unit
Partially contracted basis set               ... off
Rotationally invariant grid construction     ... off

Total number of grid points                  ...   309804
Total number of batches                      ...     4877
Average number of points per batch           ...       63
Average number of grid points per atom       ...     4244
Time for grid setup =    2.943 sec


--------------------
CPCM SOLVATION MODEL
--------------------
CPCM parameters:
  Epsilon                                         ...       4.9000
  Refrac                                          ...       1.4500
  Rsolv                                           ...       1.3000
  Surface type                                    ... GAUSSIAN VDW
  Epsilon function type                           ...         CPCM
Radii:
 Radius for C  used is    3.8550 Bohr (=   2.0400 Ang.)
 Radius for H  used is    2.4944 Bohr (=   1.3200 Ang.)
 Radius for O  used is    3.4469 Bohr (=   1.8240 Ang.)
Calculating surface                               ...        done! (  0.0s)
GEPOL surface points                              ...         3610
GEPOL Volume                                      ...    3604.1771
GEPOL Surface-area                                ...    1783.8924
Calculating surface distance matrix               ...        done! (  0.1s)
Performing Cholesky decomposition & store         ...        done! (  0.6s)
Overall time for CPCM initialization              ...                 0.8s
--------------
SCF ITERATIONS
--------------
ITER       Energy         Delta-E        Max-DP      RMS-DP      [F,P]     Damp
               ***  Starting incremental Fock matrix formation  ***

  HOMO= 109 E= -1.943 eV LUMO=  7.769 eV gap=   9.713 eV
  0  -1167.5246251270   0.000000000000 0.05594093  0.00083123  0.2631665 0.7000

  HOMO= 109 E= -3.448 eV LUMO=  6.671 eV gap=  10.118 eV
  1  -1167.8975834199  -0.372958292897 0.02892331  0.00061439  0.1015373 0.7000
                               ***Turning on DIIS***

  HOMO= 109 E= -4.417 eV LUMO=  5.789 eV gap=  10.206 eV
  2  -1168.0438452357  -0.146261815831 0.04848698  0.00101316  0.0319988 0.0000

  HOMO= 109 E= -5.036 eV LUMO=  5.207 eV gap=  10.243 eV
  3  -1168.2410686085  -0.197223372829 0.02325215  0.00047458  0.0527667 0.0000

  HOMO= 109 E= -5.061 eV LUMO=  5.183 eV gap=  10.244 eV
  4  -1168.3079862519  -0.066917643329 0.00760578  0.00015234  0.0104384 0.0000

  HOMO= 109 E= -5.017 eV LUMO=  5.234 eV gap=  10.251 eV
  5  -1168.3110695733  -0.003083321466 0.00345603  0.00005721  0.0104884 0.0000

  HOMO= 109 E= -4.997 eV LUMO=  5.251 eV gap=  10.248 eV
  6  -1168.3113500660  -0.000280492651 0.00123742  0.00001935  0.0028991 0.0000

  HOMO= 109 E= -4.998 eV LUMO= -1.553 eV gap=   3.445 eV
  7  -1168.3113694783  -0.000019412318 0.00070915  0.00001176  0.0005272 0.0000

  HOMO= 109 E= -4.997 eV LUMO= -1.552 eV gap=   3.445 eV
  8  -1168.3113725948  -0.000003116508 0.00024963  0.00000283  0.0003861 0.0000

  HOMO= 109 E= -4.995 eV LUMO= -1.550 eV gap=   3.445 eV
  9  -1168.3113732083  -0.000000613440 0.00014783  0.00000152  0.0002323 0.0000

  HOMO= 109 E= -4.995 eV LUMO= -1.550 eV gap=   3.445 eV
 10  -1168.3113734748  -0.000000266527 0.00007239  0.00000071  0.0000871 0.0000

  HOMO= 109 E= -4.995 eV LUMO= -1.550 eV gap=   3.445 eV
 11  -1168.3113735056  -0.000000030857 0.00003272  0.00000029  0.0000296 0.0000

  HOMO= 109 E= -4.995 eV LUMO= -1.550 eV gap=   3.445 eV
 12  -1168.3113734924   0.000000013235 0.00001552  0.00000014  0.0000169 0.0000

  HOMO= 109 E= -4.995 eV LUMO= -1.550 eV gap=   3.445 eV
 13  -1168.3113735161  -0.000000023688 0.00000642  0.00000006  0.0000072 0.0000
                 **** Energy Check signals convergence ****

               *****************************************************
               *                     SUCCESS                       *
               *           SCF CONVERGED AFTER  14 CYCLES          *
               *****************************************************


----------------
TOTAL SCF ENERGY
----------------

Total Energy       :        -1168.31137352 Eh          -31791.36872 eV

Components:
Nuclear Repulsion  :         2802.06455547 Eh           76248.05293 eV
Electronic Energy  :        -3970.37592900 Eh         -108039.42165 eV
One Electron Energy:        -7150.27000003 Eh         -194568.73838 eV
Two Electron Energy:         3179.89407103 Eh           86529.31674 eV
CPCM Dielectric    :           -0.00895254 Eh              -0.24361 eV

Virial components:
Potential Energy   :        -2330.41212720 Eh          -63413.73787 eV
Kinetic Energy     :         1162.10075367 Eh           31622.36916 eV
Virial Ratio       :            2.00534430


DFT components:
N(Alpha)           :      110.000256417632 electrons
N(Beta)            :      110.000256417632 electrons
N(Total)           :      220.000512835264 electrons
E(X)               :     -169.582155786185 Eh       
E(C)               :       -7.444287971008 Eh       
E(XC)              :     -177.026443757193 Eh       
DFET-embed. en.    :        0.000000000000 Eh       
CPCM Solvation Model Properties:
Surface-charge          :           -0.04538955
Charge-correction       :           -0.00006928 Eh              -0.00189 eV
Free-energy (cav+disp)  :  This term is not implemented in the current solvation scheme

---------------
SCF CONVERGENCE
---------------

  Last Energy change         ...   -8.6420e-09  Tolerance :   1.0000e-07
  Last MAX-Density change    ...    2.6822e-06  Tolerance :   1.0000e-05
  Last RMS-Density change    ...    2.8479e-08  Tolerance :   1.0000e-06
  Last DIIS Error            ...    3.2264e-06  Tolerance :   1.0000e-07

             **** THE GBW FILE WAS UPDATED (inpS.gbw) ****
             **** DENSITY inpS.scfp WAS UPDATED ****
             **** ENERGY FILE WAS UPDATED (inpS.en.tmp) ****
             **** THE GBW FILE WAS UPDATED (inpS.gbw) ****
             **** DENSITY inpS.scfp WAS UPDATED ****
----------------
ORBITAL ENERGIES
----------------

  NO   OCC          E(Eh)            E(eV) 
   0   2.0000     -18.903736      -514.3968 
   1   2.0000     -10.057286      -273.6727 
   2   2.0000     -10.016469      -272.5620 
   3   2.0000     -10.014803      -272.5167 
   4   2.0000     -10.012235      -272.4468 
   5   2.0000     -10.012151      -272.4445 
   6   2.0000     -10.012112      -272.4434 
   7   2.0000     -10.011684      -272.4318 
   8   2.0000     -10.009826      -272.3812 
   9   2.0000     -10.009750      -272.3791 
  10   2.0000     -10.009132      -272.3623 
  11   2.0000     -10.007681      -272.3229 
  12   2.0000     -10.007335      -272.3134 
  13   2.0000     -10.006338      -272.2863 
  14   2.0000     -10.006173      -272.2818 
  15   2.0000     -10.005253      -272.2568 
  16   2.0000     -10.004989      -272.2496 
  17   2.0000     -10.001001      -272.1411 
  18   2.0000     -10.000582      -272.1297 
  19   2.0000      -9.999479      -272.0997 
  20   2.0000      -9.999264      -272.0938 
  21   2.0000      -9.998759      -272.0801 
  22   2.0000      -9.998600      -272.0757 
  23   2.0000      -9.998074      -272.0614 
  24   2.0000      -9.997814      -272.0543 
  25   2.0000      -9.996321      -272.0137 
  26   2.0000      -9.995700      -271.9968 
  27   2.0000      -9.995239      -271.9843 
  28   2.0000      -9.993254      -271.9303 
  29   2.0000      -0.954348       -25.9691 
  30   2.0000      -0.807840       -21.9825 
  31   2.0000      -0.789591       -21.4859 
  32   2.0000      -0.770632       -20.9700 
  33   2.0000      -0.756741       -20.5920 
  34   2.0000      -0.734435       -19.9850 
  35   2.0000      -0.727993       -19.8097 
  36   2.0000      -0.708896       -19.2900 
  37   2.0000      -0.708839       -19.2885 
  38   2.0000      -0.694045       -18.8859 
  39   2.0000      -0.676209       -18.4006 
  40   2.0000      -0.658469       -17.9178 
  41   2.0000      -0.656074       -17.8527 
  42   2.0000      -0.635879       -17.3031 
  43   2.0000      -0.626875       -17.0581 
  44   2.0000      -0.625672       -17.0254 
  45   2.0000      -0.619437       -16.8557 
  46   2.0000      -0.591150       -16.0860 
  47   2.0000      -0.584644       -15.9090 
  48   2.0000      -0.557334       -15.1658 
  49   2.0000      -0.547743       -14.9048 
  50   2.0000      -0.541319       -14.7300 
  51   2.0000      -0.536587       -14.6013 
  52   2.0000      -0.526289       -14.3210 
  53   2.0000      -0.508181       -13.8283 
  54   2.0000      -0.506261       -13.7761 
  55   2.0000      -0.476533       -12.9671 
  56   2.0000      -0.472557       -12.8589 
  57   2.0000      -0.463399       -12.6097 
  58   2.0000      -0.451315       -12.2809 
  59   2.0000      -0.445655       -12.1269 
  60   2.0000      -0.434388       -11.8203 
  61   2.0000      -0.426085       -11.5944 
  62   2.0000      -0.418230       -11.3806 
  63   2.0000      -0.417272       -11.3545 
  64   2.0000      -0.411743       -11.2041 
  65   2.0000      -0.404879       -11.0173 
  66   2.0000      -0.404310       -11.0018 
  67   2.0000      -0.399247       -10.8641 
  68   2.0000      -0.397758       -10.8236 
  69   2.0000      -0.390279       -10.6200 
  70   2.0000      -0.386039       -10.5046 
  71   2.0000      -0.384243       -10.4558 
  72   2.0000      -0.378197       -10.2913 
  73   2.0000      -0.375900       -10.2287 
  74   2.0000      -0.371723       -10.1151 
  75   2.0000      -0.365906        -9.9568 
  76   2.0000      -0.362374        -9.8607 
  77   2.0000      -0.357892        -9.7387 
  78   2.0000      -0.354438        -9.6447 
  79   2.0000      -0.347016        -9.4428 
  80   2.0000      -0.346095        -9.4177 
  81   2.0000      -0.344632        -9.3779 
  82   2.0000      -0.341951        -9.3050 
  83   2.0000      -0.337859        -9.1936 
  84   2.0000      -0.335794        -9.1374 
  85   2.0000      -0.325913        -8.8685 
  86   2.0000      -0.323064        -8.7910 
  87   2.0000      -0.320032        -8.7085 
  88   2.0000      -0.316939        -8.6244 
  89   2.0000      -0.309990        -8.4353 
  90   2.0000      -0.309129        -8.4118 
  91   2.0000      -0.306576        -8.3424 
  92   2.0000      -0.302901        -8.2423 
  93   2.0000      -0.296906        -8.0792 
  94   2.0000      -0.290587        -7.9073 
  95   2.0000      -0.287703        -7.8288 
  96   2.0000      -0.285518        -7.7693 
  97   2.0000      -0.282769        -7.6945 
  98   2.0000      -0.281960        -7.6725 
  99   2.0000      -0.280581        -7.6350 
 100   2.0000      -0.275215        -7.4890 
 101   2.0000      -0.273393        -7.4394 
 102   2.0000      -0.271573        -7.3899 
 103   2.0000      -0.268002        -7.2927 
 104   2.0000      -0.259695        -7.0667 
 105   2.0000      -0.249467        -6.7883 
 106   2.0000      -0.229776        -6.2525 
 107   2.0000      -0.228710        -6.2235 
 108   2.0000      -0.212708        -5.7881 
 109   2.0000      -0.183575        -4.9953 
 110   0.0000      -0.056973        -1.5503 
 111   0.0000      -0.014261        -0.3881 
 112   0.0000      -0.006033        -0.1642 
 113   0.0000       0.029896         0.8135 
 114   0.0000       0.038464         1.0467 
 115   0.0000       0.040217         1.0944 
 116   0.0000       0.047049         1.2803 
 117   0.0000       0.049316         1.3420 
 118   0.0000       0.053437         1.4541 
 119   0.0000       0.058170         1.5829 
 120   0.0000       0.060660         1.6506 
 121   0.0000       0.064608         1.7581 
 122   0.0000       0.069434         1.8894 
 123   0.0000       0.074709         2.0329 
 124   0.0000       0.079670         2.1679 
 125   0.0000       0.082085         2.2337 
 126   0.0000       0.085013         2.3133 
 127   0.0000       0.085729         2.3328 
 128   0.0000       0.087324         2.3762 
 129   0.0000       0.093168         2.5352 
 130   0.0000       0.098402         2.6777 
 131   0.0000       0.102318         2.7842 
 132   0.0000       0.104656         2.8478 
 133   0.0000       0.106180         2.8893 
 134   0.0000       0.108595         2.9550 
 135   0.0000       0.110322         3.0020 
 136   0.0000       0.112428         3.0593 
 137   0.0000       0.118590         3.2270 
 138   0.0000       0.122347         3.3292 
 139   0.0000       0.125494         3.4149 
 140   0.0000       0.126818         3.4509 
 141   0.0000       0.127475         3.4688 
 142   0.0000       0.129407         3.5214 
 143   0.0000       0.131320         3.5734 
 144   0.0000       0.135899         3.6980 
 145   0.0000       0.136516         3.7148 
 146   0.0000       0.141640         3.8542 
 147   0.0000       0.142235         3.8704 
 148   0.0000       0.144150         3.9225 
 149   0.0000       0.149736         4.0745 
 150   0.0000       0.154208         4.1962 
 151   0.0000       0.156358         4.2547 
 152   0.0000       0.159053         4.3281 
 153   0.0000       0.160273         4.3612 
 154   0.0000       0.164530         4.4771 
 155   0.0000       0.168976         4.5981 
 156   0.0000       0.176659         4.8071 
 157   0.0000       0.178162         4.8480 
 158   0.0000       0.181517         4.9393 
 159   0.0000       0.185484         5.0473 
 160   0.0000       0.191388         5.2079 
 161   0.0000       0.193948         5.2776 
 162   0.0000       0.196769         5.3544 
 163   0.0000       0.199115         5.4182 
 164   0.0000       0.202089         5.4991 
 165   0.0000       0.204030         5.5519 
 166   0.0000       0.205661         5.5963 
 167   0.0000       0.208904         5.6846 
 168   0.0000       0.211679         5.7601 
 169   0.0000       0.218139         5.9359 
 170   0.0000       0.221844         6.0367 
 171   0.0000       0.223449         6.0804 
 172   0.0000       0.226062         6.1515 
 173   0.0000       0.230606         6.2751 
 174   0.0000       0.234727         6.3872 
 175   0.0000       0.243805         6.6343 
 176   0.0000       0.249039         6.7767 
 177   0.0000       0.255003         6.9390 
 178   0.0000       0.261389         7.1127 
 179   0.0000       0.264049         7.1851 
 180   0.0000       0.271361         7.3841 
 181   0.0000       0.286231         7.7887 
 182   0.0000       0.289870         7.8878 
 183   0.0000       0.294762         8.0209 
 184   0.0000       0.299695         8.1551 
 185   0.0000       0.327244         8.9048 
 186   0.0000       0.334167         9.0931 
 187   0.0000       0.345797         9.4096 
 188   0.0000       0.348992         9.4966 
 189   0.0000       0.354102         9.6356 
 190   0.0000       0.357957         9.7405 
 191   0.0000       0.359545         9.7837 
 192   0.0000       0.366132         9.9630 
 193   0.0000       0.372631        10.1398 
 194   0.0000       0.374800        10.1988 
 195   0.0000       0.376864        10.2550 
 196   0.0000       0.383370        10.4320 
 197   0.0000       0.390319        10.6211 
 198   0.0000       0.392075        10.6689 
 199   0.0000       0.399425        10.8689 
 200   0.0000       0.404129        10.9969 
 201   0.0000       0.408652        11.1200 
 202   0.0000       0.414226        11.2717 
 203   0.0000       0.422675        11.5016 
 204   0.0000       0.423147        11.5144 
 205   0.0000       0.430570        11.7164 
 206   0.0000       0.435130        11.8405 
 207   0.0000       0.444712        12.1012 
 208   0.0000       0.450459        12.2576 
 209   0.0000       0.454070        12.3559 
 210   0.0000       0.462521        12.5858 
 211   0.0000       0.468416        12.7463 
 212   0.0000       0.470465        12.8020 
 213   0.0000       0.473172        12.8757 
 214   0.0000       0.480353        13.0711 
 215   0.0000       0.482896        13.1403 
 216   0.0000       0.484876        13.1941 
 217   0.0000       0.488040        13.2802 
 218   0.0000       0.497031        13.5249 
 219   0.0000       0.500749        13.6261 
 220   0.0000       0.504750        13.7349 
 221   0.0000       0.505852        13.7649 
 222   0.0000       0.512725        13.9520 
 223   0.0000       0.519911        14.1475 
 224   0.0000       0.524584        14.2747 
 225   0.0000       0.527994        14.3675 
 226   0.0000       0.536215        14.5911 
 227   0.0000       0.538639        14.6571 
 228   0.0000       0.542545        14.7634 
 229   0.0000       0.544764        14.8238 
 230   0.0000       0.546549        14.8724 
 231   0.0000       0.550825        14.9887 
 232   0.0000       0.554457        15.0875 
 233   0.0000       0.558440        15.1959 
 234   0.0000       0.565623        15.3914 
 235   0.0000       0.569188        15.4884 
 236   0.0000       0.571225        15.5438 
 237   0.0000       0.576251        15.6806 
 238   0.0000       0.580179        15.7875 
 239   0.0000       0.581713        15.8292 
 240   0.0000       0.584997        15.9186 
 241   0.0000       0.585753        15.9391 
 242   0.0000       0.590824        16.0771 
 243   0.0000       0.592578        16.1249 
 244   0.0000       0.593527        16.1507 
 245   0.0000       0.596830        16.2406 
 246   0.0000       0.598829        16.2950 
 247   0.0000       0.602123        16.3846 
 248   0.0000       0.603985        16.4353 
 249   0.0000       0.604313        16.4442 
 250   0.0000       0.605811        16.4850 
 251   0.0000       0.607918        16.5423 
 252   0.0000       0.608888        16.5687 
 253   0.0000       0.614660        16.7258 
 254   0.0000       0.615954        16.7610 
 255   0.0000       0.617505        16.8032 
 256   0.0000       0.622056        16.9270 
 257   0.0000       0.625029        17.0079 
 258   0.0000       0.628227        17.0949 
 259   0.0000       0.628719        17.1083 
 260   0.0000       0.634241        17.2586 
 261   0.0000       0.637234        17.3400 
 262   0.0000       0.639495        17.4015 
 263   0.0000       0.642868        17.4933 
 264   0.0000       0.645435        17.5632 
 265   0.0000       0.647350        17.6153 
 266   0.0000       0.650924        17.7125 
 267   0.0000       0.652268        17.7491 
 268   0.0000       0.655227        17.8296 
 269   0.0000       0.658688        17.9238 
 270   0.0000       0.664095        18.0710 
 271   0.0000       0.666403        18.1338 
 272   0.0000       0.667754        18.1705 
 273   0.0000       0.674435        18.3523 
 274   0.0000       0.676446        18.4070 
 275   0.0000       0.680296        18.5118 
 276   0.0000       0.684076        18.6147 
 277   0.0000       0.687140        18.6980 
 278   0.0000       0.689252        18.7555 
 279   0.0000       0.694783        18.9060 
 280   0.0000       0.698366        19.0035 
 281   0.0000       0.699457        19.0332 
 282   0.0000       0.702520        19.1165 
 283   0.0000       0.707813        19.2606 
 284   0.0000       0.712613        19.3912 
 285   0.0000       0.721169        19.6240 
 286   0.0000       0.726188        19.7606 
 287   0.0000       0.728620        19.8268 
 288   0.0000       0.732999        19.9459 
 289   0.0000       0.738696        20.1009 
 290   0.0000       0.743476        20.2310 
 291   0.0000       0.746759        20.3204 
 292   0.0000       0.750544        20.4233 
 293   0.0000       0.753895        20.5145 
 294   0.0000       0.763766        20.7831 
 295   0.0000       0.770548        20.9677 
 296   0.0000       0.771890        21.0042 
 297   0.0000       0.778301        21.1787 
 298   0.0000       0.784408        21.3448 
 299   0.0000       0.785976        21.3875 
 300   0.0000       0.802439        21.8355 
 301   0.0000       0.812658        22.1135 
 302   0.0000       0.828219        22.5370 
 303   0.0000       0.835019        22.7220 
 304   0.0000       0.846012        23.0212 
 305   0.0000       0.855479        23.2788 
 306   0.0000       0.868633        23.6367 
 307   0.0000       0.874439        23.7947 
 308   0.0000       0.892969        24.2989 
 309   0.0000       0.899352        24.4726 
 310   0.0000       0.933476        25.4012 
 311   0.0000       0.938909        25.5490 
 312   0.0000       0.952356        25.9149 
 313   0.0000       0.971725        26.4420 
 314   0.0000       0.982585        26.7375 
 315   0.0000       0.989748        26.9324 
 316   0.0000       1.004535        27.3348 
 317   0.0000       1.020705        27.7748 
 318   0.0000       1.026321        27.9276 
 319   0.0000       1.036893        28.2153 
 320   0.0000       1.046998        28.4903 
 321   0.0000       1.060898        28.8685 
 322   0.0000       1.061140        28.8751 
 323   0.0000       1.077335        29.3158 
 324   0.0000       1.092290        29.7227 
 325   0.0000       1.113839        30.3091 
 326   0.0000       1.129106        30.7245 
 327   0.0000       1.147537        31.2261 
 328   0.0000       1.160172        31.5699 
 329   0.0000       1.178977        32.0816 
 330   0.0000       1.180679        32.1279 
 331   0.0000       1.202676        32.7265 
 332   0.0000       1.233621        33.5685 
 333   0.0000       1.240472        33.7550 
 334   0.0000       1.250393        34.0249 
 335   0.0000       1.266522        34.4638 
 336   0.0000       1.273319        34.6488 
 337   0.0000       1.292245        35.1638 
 338   0.0000       1.305634        35.5281 
 339   0.0000       1.308830        35.6151 
 340   0.0000       1.320744        35.9393 
 341   0.0000       1.338451        36.4211 
 342   0.0000       1.343408        36.5560 
 343   0.0000       1.345719        36.6189 
 344   0.0000       1.362131        37.0655 
 345   0.0000       1.371852        37.3300 
 346   0.0000       1.383031        37.6342 
 347   0.0000       1.389770        37.8176 
 348   0.0000       1.410025        38.3687 
 349   0.0000       1.414991        38.5039 
 350   0.0000       1.426880        38.8274 
 351   0.0000       1.434808        39.0431 
 352   0.0000       1.449452        39.4416 
 353   0.0000       1.457050        39.6484 
 354   0.0000       1.460313        39.7371 
 355   0.0000       1.472617        40.0720 
 356   0.0000       1.480215        40.2787 
 357   0.0000       1.494881        40.6778 
 358   0.0000       1.502227        40.8777 
 359   0.0000       1.507253        41.0144 
 360   0.0000       1.514062        41.1997 
 361   0.0000       1.521566        41.4039 
 362   0.0000       1.532099        41.6905 
 363   0.0000       1.533874        41.7388 
 364   0.0000       1.546321        42.0775 
 365   0.0000       1.554432        42.2983 
 366   0.0000       1.572324        42.7851 
 367   0.0000       1.588433        43.2235 
 368   0.0000       1.596275        43.4369 
 369   0.0000       1.601520        43.5796 
 370   0.0000       1.611524        43.8518 
 371   0.0000       1.618572        44.0436 
 372   0.0000       1.629519        44.3415 
 373   0.0000       1.639343        44.6088 
 374   0.0000       1.645515        44.7767 
 375   0.0000       1.653813        45.0026 
 376   0.0000       1.666004        45.3343 
 377   0.0000       1.668423        45.4001 
 378   0.0000       1.681792        45.7639 
 379   0.0000       1.683152        45.8009 
 380   0.0000       1.688206        45.9384 
 381   0.0000       1.692078        46.0438 
 382   0.0000       1.692462        46.0542 
 383   0.0000       1.704541        46.3829 
 384   0.0000       1.709404        46.5153 
 385   0.0000       1.713985        46.6399 
 386   0.0000       1.721403        46.8418 
 387   0.0000       1.725415        46.9509 
 388   0.0000       1.732997        47.1573 
 389   0.0000       1.734182        47.1895 
 390   0.0000       1.743915        47.4543 
 391   0.0000       1.748230        47.5718 
 392   0.0000       1.755979        47.7826 
 393   0.0000       1.760701        47.9111 
 394   0.0000       1.770867        48.1878 
 395   0.0000       1.774382        48.2834 
 396   0.0000       1.785123        48.5757 
 397   0.0000       1.787322        48.6355 
 398   0.0000       1.790084        48.7107 
 399   0.0000       1.797974        48.9254 
 400   0.0000       1.799554        48.9684 
 401   0.0000       1.809280        49.2330 
 402   0.0000       1.813074        49.3362 
 403   0.0000       1.815715        49.4081 
 404   0.0000       1.820215        49.5306 
 405   0.0000       1.826222        49.6940 
 406   0.0000       1.838963        50.0407 
 407   0.0000       1.841344        50.1055 
 408   0.0000       1.848787        50.3081 
 409   0.0000       1.858394        50.5695 
 410   0.0000       1.867375        50.8138 
 411   0.0000       1.871164        50.9170 
 412   0.0000       1.874718        51.0137 
 413   0.0000       1.882482        51.2249 
 414   0.0000       1.887164        51.3523 
 415   0.0000       1.892172        51.4886 
 416   0.0000       1.897395        51.6307 
 417   0.0000       1.907294        51.9001 
 418   0.0000       1.908811        51.9414 
 419   0.0000       1.912296        52.0362 
 420   0.0000       1.929042        52.4919 
 421   0.0000       1.934710        52.6461 
 422   0.0000       1.941022        52.8179 
 423   0.0000       1.943909        52.8964 
 424   0.0000       1.953410        53.1550 
 425   0.0000       1.957740        53.2728 
 426   0.0000       1.965674        53.4887 
 427   0.0000       1.966216        53.5035 
 428   0.0000       1.973698        53.7071 
 429   0.0000       1.974551        53.7303 
 430   0.0000       1.982914        53.9578 
 431   0.0000       1.984606        54.0039 
 432   0.0000       1.987868        54.0926 
 433   0.0000       1.992603        54.2215 
 434   0.0000       1.996268        54.3212 
 435   0.0000       1.998126        54.3718 
 436   0.0000       2.003917        54.5293 
 437   0.0000       2.009901        54.6922 
 438   0.0000       2.016417        54.8695 
 439   0.0000       2.018831        54.9352 
 440   0.0000       2.020498        54.9805 
 441   0.0000       2.026272        55.1377 
 442   0.0000       2.031388        55.2769 
 443   0.0000       2.038292        55.4648 
[...]

 --------------
 Nucleus  47H :
 --------------

Diamagnetic contribution to the shielding tensor (ppm) : 
            33.411         -4.054        -5.238
            -5.454         38.960         6.587
            -4.609          8.136        43.505

Paramagnetic contribution to the shielding tensor (ppm): 
            -1.938          2.122         3.073
             3.268        -11.064        -3.323
             1.741         -4.211        -9.057

Total shielding tensor (ppm): 
            31.473         -1.931        -2.165
            -2.186         27.896         3.264
            -2.868          3.926        34.448


 Diagonalized sT*s matrix:
 
 sDSO            33.599           31.672           50.605  iso=      38.625
 sPSO            -7.463           -1.635          -12.962  iso=      -7.353
        ---------------  ---------------  ---------------
 Total           26.136           30.037           37.644  iso=      31.272

 --------------
 Nucleus  48H :
 --------------

Diamagnetic contribution to the shielding tensor (ppm) : 
            35.451         -1.206        -1.747
            -4.347         41.608        -6.515
             1.596         -1.436        40.865

Paramagnetic contribution to the shielding tensor (ppm): 
            -4.199          2.343         2.112
             4.894        -14.299         3.878
            -1.564         -0.435        -9.902

Total shielding tensor (ppm): 
            31.252          1.137         0.365
             0.548         27.309        -2.638
             0.032         -1.870        30.963


 Diagonalized sT*s matrix:
 
 sDSO            39.209           35.567           43.148  iso=      39.308
 sPSO           -13.113           -4.224          -11.063  iso=      -9.467
        ---------------  ---------------  ---------------
 Total           26.096           31.343           32.085  iso=      29.841

 --------------
 Nucleus  52H :
 --------------

Diamagnetic contribution to the shielding tensor (ppm) : 
            42.052          0.804        -6.692
             2.036         29.789        -5.734
            -3.669         -1.641        40.669

Paramagnetic contribution to the shielding tensor (ppm): 
           -15.330          1.192         8.836
             0.289         -4.418         7.987
             5.073          3.378       -14.218

Total shielding tensor (ppm): 
            26.722          1.996         2.144
             2.325         25.371         2.253
             1.404          1.736        26.451


 Diagonalized sT*s matrix:
 
 sDSO            32.805           46.519           33.186  iso=      37.503
 sPSO            -9.236          -21.711           -3.018  iso=     -11.322
        ---------------  ---------------  ---------------
 Total           23.569           24.808           30.168  iso=      26.181

 --------------
 Nucleus  53H :
 --------------

Diamagnetic contribution to the shielding tensor (ppm) : 
            46.112          2.610        -4.942
             0.340         44.113        -4.597
            -4.156         -0.008        40.550

Paramagnetic contribution to the shielding tensor (ppm): 
           -17.167         -0.262        11.422
             1.960        -18.654         7.774
             8.913          1.583       -15.234

Total shielding tensor (ppm): 
            28.946          2.348         6.480
             2.300         25.459         3.177
             4.757          1.575        25.316


 Diagonalized sT*s matrix:
 
 sDSO            47.429           43.407           39.940  iso=      43.592
 sPSO           -26.286          -19.082           -5.687  iso=     -17.018
        ---------------  ---------------  ---------------
 Total           21.142           24.325           34.253  iso=      26.574

 --------------
 Nucleus  57H :
 --------------

Diamagnetic contribution to the shielding tensor (ppm) : 
            41.094          1.766        -4.723
            -3.325         25.009        -6.612
            -3.665         -3.375        45.115

Paramagnetic contribution to the shielding tensor (ppm): 
           -10.206         -1.458         3.068
             3.946          3.662         6.887
             3.066          4.041       -13.376

Total shielding tensor (ppm): 
            30.888          0.308        -1.655
             0.621         28.671         0.275
            -0.599          0.666        31.739


 Diagonalized sT*s matrix:
 
 sDSO            29.291           34.488           47.438  iso=      37.073
 sPSO            -0.873           -4.130          -14.916  iso=      -6.640
        ---------------  ---------------  ---------------
 Total           28.417           30.358           32.522  iso=      30.433

 --------------
 Nucleus  58H :
 --------------

Diamagnetic contribution to the shielding tensor (ppm) : 
            35.915         -0.739        -8.654
            11.733         30.853        10.230
            -7.325          4.450        41.428

Paramagnetic contribution to the shielding tensor (ppm): 
            -3.903          2.119         6.309
           -10.278         -2.463        -9.756
             5.193         -4.653        -9.652

Total shielding tensor (ppm): 
            32.012          1.380        -2.345
             1.455         28.389         0.473
            -2.132         -0.204        31.775


 Diagonalized sT*s matrix:
 
 sDSO            23.511           39.099           45.585  iso=      36.065
 sPSO             4.161           -8.885          -11.295  iso=      -5.340
        ---------------  ---------------  ---------------
 Total           27.672           30.214           34.290  iso=      30.726

 --------------
 Nucleus  61H :
 --------------

Diamagnetic contribution to the shielding tensor (ppm) : 
            32.990          2.200        -3.530
            -9.613         15.658       -12.094
            -2.605         -7.444        43.069

Paramagnetic contribution to the shielding tensor (ppm): 
            -3.921         -1.713         3.157
            10.239         14.048         8.402
             1.479          4.595        -8.734

Total shielding tensor (ppm): 
            29.069          0.487        -0.373
             0.626         29.706        -3.692
            -1.125         -2.849        34.335


 Diagonalized sT*s matrix:
 
 sDSO            15.080           31.283           45.354  iso=      30.572
 sPSO            12.912           -2.311           -9.208  iso=       0.464
        ---------------  ---------------  ---------------
 Total           27.991           28.972           36.146  iso=      31.037

 --------------
 Nucleus  62H :
 --------------

Diamagnetic contribution to the shielding tensor (ppm) : 
            46.022          3.838         7.448
            -8.690          2.338        -7.550
             0.109         -0.156        31.685

Paramagnetic contribution to the shielding tensor (ppm): 
           -11.443         -3.802        -2.878
             7.895         27.010         6.889
             4.915          0.593        -4.632

Total shielding tensor (ppm): 
            34.579          0.036         4.570
            -0.796         29.348        -0.661
             5.023          0.437        27.053


 Diagonalized sT*s matrix:
 
 sDSO            31.472            2.053           46.520  iso=      26.682
 sPSO            -6.753           27.276           -9.588  iso=       3.645
        ---------------  ---------------  ---------------
 Total           24.718           29.329           36.932  iso=      30.326

 --------------
 Nucleus  63H :
 --------------

Diamagnetic contribution to the shielding tensor (ppm) : 
            32.689         -5.073         3.897
           -19.318         26.926       -13.482
            -0.594          0.980        26.851

Paramagnetic contribution to the shielding tensor (ppm): 
            -3.415          2.035        -2.248
            16.092          8.495        15.106
             2.145          0.188         1.363

Total shielding tensor (ppm): 
            29.274         -3.038         1.648
            -3.227         35.421         1.624
             1.551          1.168        28.215


 Diagonalized sT*s matrix:
 
 sDSO            25.491           26.002           34.973  iso=      28.822
 sPSO             0.557            4.069            1.817  iso=       2.148
        ---------------  ---------------  ---------------
 Total           26.048           30.071           36.791  iso=      30.970

 --------------
 Nucleus  64H :
 --------------

Diamagnetic contribution to the shielding tensor (ppm) : 
            35.693         -1.308         4.753
            17.355         50.716         9.063
             7.019         -3.571        30.333

Paramagnetic contribution to the shielding tensor (ppm): 
            -1.880          3.756         0.397
           -15.588        -19.779        -8.517
            -1.399          4.784        -3.930

Total shielding tensor (ppm): 
            33.812          2.448         5.151
             1.767         30.937         0.547
             5.620          1.214        26.403


 Diagonalized sT*s matrix:
 
 sDSO            26.582           44.193           45.967  iso=      38.914
 sPSO            -3.016          -14.046           -8.527  iso=      -8.530
        ---------------  ---------------  ---------------
 Total           23.566           30.147           37.440  iso=      30.384

 --------------
 Nucleus  65H :
 --------------

Diamagnetic contribution to the shielding tensor (ppm) : 
            29.095         -0.049        -7.379
            17.274         39.204         4.667
            -9.038         -7.144        37.193

Paramagnetic contribution to the shielding tensor (ppm): 
             0.447          1.345         5.895
           -15.171         -8.113        -7.818
             7.144          4.093        -3.887

Total shielding tensor (ppm): 
            29.542          1.296        -1.484
             2.104         31.091        -3.150
            -1.894         -3.051        33.305


 Diagonalized sT*s matrix:
 
 sDSO            26.900           33.234           45.358  iso=      35.164
 sPSO             1.508           -4.018           -9.043  iso=      -3.851
        ---------------  ---------------  ---------------
 Total           28.408           29.215           36.315  iso=      31.313

 --------------
 Nucleus  66H :
 --------------

Diamagnetic contribution to the shielding tensor (ppm) : 
            23.386         -5.689        -5.733
            14.473         48.614        14.714
            -4.807          0.469        31.764

Paramagnetic contribution to the shielding tensor (ppm): 
             5.458          2.511         6.369
           -17.182        -12.192       -12.399
             5.498          0.697        -4.249

Total shielding tensor (ppm): 
            28.844         -3.178         0.637
            -2.709         36.421         2.314
             0.691          1.167        27.515


 Diagonalized sT*s matrix:
 
 sDSO            33.178           24.506           46.081  iso=      34.588
 sPSO            -6.814            4.276           -8.446  iso=      -3.661
        ---------------  ---------------  ---------------
 Total           26.364           28.782           37.635  iso=      30.927

 --------------
 Nucleus  67H :
 --------------

Diamagnetic contribution to the shielding tensor (ppm) : 
            30.249          5.394         5.072
             4.642          3.549        -0.098
             9.312          0.540        39.752

Paramagnetic contribution to the shielding tensor (ppm): 
            -0.864         -5.890         0.844
            -3.984         26.055        -0.297
            -3.909         -1.600        -7.481

Total shielding tensor (ppm): 
            29.385         -0.496         5.916
             0.658         29.604        -0.395
             5.403         -1.060        32.271


 Diagonalized sT*s matrix:
 
 sDSO            25.701            5.475           42.374  iso=      24.517
 sPSO            -0.770           24.147           -5.667  iso=       5.903
        ---------------  ---------------  ---------------
 Total           24.931           29.622           36.707  iso=      30.420

 --------------
 Nucleus  68H :
 --------------

Diamagnetic contribution to the shielding tensor (ppm) : 
            19.318          4.933        -1.724
            19.880         24.837        18.458
             7.658         10.288        25.364

Paramagnetic contribution to the shielding tensor (ppm): 
             9.039         -3.487         3.604
           -19.204         10.016       -13.769
            -5.946         -5.418         3.917

Total shielding tensor (ppm): 
            28.357          1.446         1.879
             0.676         34.853         4.690
             1.711          4.871        29.281


 Diagonalized sT*s matrix:
 
 sDSO            17.254           10.900           41.366  iso=      23.173
 sPSO             8.765           17.626           -3.419  iso=       7.657
        ---------------  ---------------  ---------------
 Total           26.020           28.525           37.946  iso=      30.830

 --------------
 Nucleus  69H :
 --------------

Diamagnetic contribution to the shielding tensor (ppm) : 
            37.723         11.151        -3.594
            13.792          9.252         5.443
            -7.818         -1.264        26.140

Paramagnetic contribution to the shielding tensor (ppm): 
            -2.216         -8.026         1.335
           -10.549         20.056        -5.786
             6.032          1.286         2.826

Total shielding tensor (ppm): 
            35.508          3.124        -2.259
             3.243         29.308        -0.343
            -1.785          0.023        28.965


 Diagonalized sT*s matrix:
 
 sDSO             7.247           22.312           43.555  iso=      24.372
 sPSO            20.313            6.611           -6.257  iso=       6.889
        ---------------  ---------------  ---------------
 Total           27.560           28.923           37.298  iso=      31.260

 --------------
 Nucleus  70H :
 --------------

Diamagnetic contribution to the shielding tensor (ppm) : 
            31.851          1.121         3.917
            -8.346         41.950         6.455
             1.273          8.468        34.115

Paramagnetic contribution to the shielding tensor (ppm): 
             0.243         -0.917        -3.642
             9.738        -11.330        -0.891
            -0.151         -3.694        -5.963

Total shielding tensor (ppm): 
            32.094          0.205         0.274
             1.392         30.619         5.564
             1.123          4.774        28.153


 Diagonalized sT*s matrix:
 
 sDSO            29.823           34.403           43.690  iso=      35.972
 sPSO            -5.752           -2.685           -8.614  iso=      -5.683
        ---------------  ---------------  ---------------
 Total           24.072           31.718           35.076  iso=      30.289

 --------------
 Nucleus  71H :
 --------------

Diamagnetic contribution to the shielding tensor (ppm) : 
            29.177         -6.934         0.955
           -14.962         41.447        -8.981
             0.154         -6.722        33.443

Paramagnetic contribution to the shielding tensor (ppm): 
             1.680          4.542         0.147
            12.999         -8.144         6.202
             0.195          4.328        -3.879

Total shielding tensor (ppm): 
            30.857         -2.391         1.101
            -1.963         33.303        -2.779
             0.349         -2.394        29.563


 Diagonalized sT*s matrix:
 
 sDSO            26.856           26.413           50.797  iso=      34.689
 sPSO             1.322            3.440          -15.105  iso=      -3.448
        ---------------  ---------------  ---------------
 Total           28.178           29.853           35.693  iso=      31.241

 --------------
 Nucleus  72H :
 --------------

Diamagnetic contribution to the shielding tensor (ppm) : 
            37.023         -8.326        -7.794
           -15.401         28.529        -2.435
            -8.507          4.367        28.692

Paramagnetic contribution to the shielding tensor (ppm): 
            -2.604          6.526         3.475
            13.029          0.546         5.678
             4.410         -2.004         0.068

Total shielding tensor (ppm): 
            34.419         -1.799        -4.319
            -2.372         29.075         3.244
            -4.097          2.363        28.759


 Diagonalized sT*s matrix:
 
 sDSO            28.139           18.840           47.265  iso=      31.415
 sPSO            -2.501            9.950           -9.439  iso=      -0.663
        ---------------  ---------------  ---------------
 Total           25.638           28.790           37.826  iso=      30.751



--------------------------------
CHEMICAL SHIELDING SUMMARY (ppm)
--------------------------------


  Nucleus  Element    Isotropic     Anisotropy
  -------  -------  ------------   ------------
      3       H           29.362          6.500 
      4       H           29.050          7.446 
      8       H           29.570          7.931 
      9       H           29.337          5.430 
     10       H           30.106          8.356 
     11       H           29.856         10.213 
     13       H           27.731          7.794 
     16       H           26.795          4.677 
     17       H           26.511          4.774 
     19       H           25.398         10.364 
     21       H           25.588         14.872 
     24       H           28.900         10.119 
     25       H           30.016          9.503 
     27       H           30.241          7.206 
     28       H           30.118         11.883 
     30       H           29.745          8.051 
     31       H           30.424          6.887 
     33       H           29.765          4.056 
     35       H           30.155         14.838 
     37       H           30.345         10.379 
     38       H           30.253          9.743 
     40       H           29.629         11.001 
     41       H           30.675          7.893 
     42       H           30.178          6.665 
     45       H           31.229          7.339 
     46       H           31.011          8.026 
     47       H           31.272          9.557 
     48       H           29.841          3.365 
     52       H           26.181          5.979 
     53       H           26.574         11.520 
     57       H           30.433          3.134 
     58       H           30.726          5.347 
     61       H           31.037          7.665 
     62       H           30.326          9.908 
     63       H           30.970          8.731 
     64       H           30.384         10.583 
     65       H           31.313          7.503 
     66       H           30.927         10.062 
     67       H           30.420          9.430 
     68       H           30.830         10.674 
     69       H           31.260          9.057 
     70       H           30.289          7.181 
     71       H           31.241          6.677 
     72       H           30.751         10.612 



Maximum memory used throughout the entire EPRNMR-calculation: 141.2 MB

Timings for individual modules:

Sum of individual times         ...      145.101 sec (=   2.418 min)
GTO integral calculation        ...        0.872 sec (=   0.015 min)   0.6 %
SCF iterations                  ...       97.929 sec (=   1.632 min)  67.5 %
EPR/NMR calculation             ...       46.299 sec (=   0.772 min)  31.9 %
                             ****ORCA TERMINATED NORMALLY****
TOTAL RUN TIME: 0 days 0 hours 2 minutes 25 seconds 607 msec
