
                                 *****************
                                 * O   R   C   A *
                                 *****************

                                            #,                                       
                                            ###                                      
                                            ####                                     
                                            #####                                    
                                            ######                                   
                                           ########,                                 
                                     ,,################,,,,,                         
                               ,,#################################,,                 
                          ,,##########################################,,             
                       ,#########################################, ''#####,          
                    ,#############################################,,   '####,        
                  ,##################################################,,,,####,       
                ,###########''''           ''''###############################       
              ,#####''   ,,,,##########,,,,          '''####'''          '####       
            ,##' ,,,,###########################,,,                        '##       
           ' ,,###''''                  '''############,,,                           
         ,,##''                                '''############,,,,        ,,,,,,###''
      ,#''                                            '''#######################'''  
     '                                                          ''''####''''         
             ,#######,   #######,   ,#######,      ##                                
            ,#'     '#,  ##    ##  ,#'     '#,    #''#        ,####,   ,####,        
            ##       ##  ##   ,#'  ##            #'  '#       #'       #'  '#        
            ##       ##  #######   ##           ,######,      #####,   #    #        
            '#,     ,#'  ##    ##  '#,     ,#' ,#      #,     #,   #   #,  ,#        
             '#######'   ##     ##  '#######'  #'      '#     '####' # '####'        



                #########################################################
                #                        -***-                          #
                #          Department of theory and spectroscopy        #
                #                                                       #
                #                      Frank Neese                      #
                #                                                       #
                #     Directorship, Architecture, Infrastructure        #
                #                    SHARK, DRIVERS                     #
                #        Core code/Algorithms in most modules           #
                #                                                       #
                #        Max Planck Institute fuer Kohlenforschung      #
                #                Kaiser Wilhelm Platz 1                 #
                #                 D-45470 Muelheim/Ruhr                 #
                #                      Germany                          #
                #                                                       #
                #                  All rights reserved                  #
                #                        -***-                          #
                #########################################################


                         Program Version 6.0.0  -   RELEASE  -


 With contributions from (in alphabetic order):
   Daniel Aravena         : Magnetic Suceptibility
   Michael Atanasov       : Ab Initio Ligand Field Theory (pilot matlab implementation)
   Alexander A. Auer      : GIAO ZORA, VPT2 properties, NMR spectrum
   Ute Becker             : All parallelization in ORCA, NUMFREQ, NUMCALC
   Giovanni Bistoni       : ED, misc. LED, open-shell LED, HFLD
   Martin Brehm           : Molecular dynamics
   Dmytro Bykov           : pre 5.0 version of the SCF Hessian
   Marcos Casanova-Páez   : Triplet and SCS-CIS(D). UHF-(DLPNO)-IP/EA/STEOM-CCSD. UHF-CVS-IP/STEOM-CCSD
   Vijay G. Chilkuri      : MRCI spin determinant printing, contributions to CSF-ICE
   Pauline Colinet        : FMM embedding
   Dipayan Datta          : RHF DLPNO-CCSD density
   Achintya Kumar Dutta   : EOM-CC, STEOM-CC
   Nicolas Foglia         : Exact transition moments, OPA infrastructure, MCD improvements
   Dmitry Ganyushin       : Spin-Orbit,Spin-Spin,Magnetic field MRCI
   Miquel Garcia          : C-PCM and meta-GGA Hessian, CCSD/C-PCM, Gaussian charge scheme
   Tiago L. C. Gouveia    : GS-ROHF, GS-ROCIS
   Yang Guo               : DLPNO-NEVPT2, F12-NEVPT2, CIM, IAO-localization
   Andreas Hansen         : Spin unrestricted coupled pair/coupled cluster methods
   Ingolf Harden          : AUTO-CI MPn and infrastructure 
   Benjamin Helmich-Paris : MC-RPA, TRAH-(SCF,CASSCF), AVAS, COSX integrals, SCF dyn. polar.
   Lee Huntington         : MR-EOM, pCC
   Robert Izsak           : Overlap fitted RIJCOSX, COSX-SCS-MP3, EOM
   Riya Kayal             : Wick's Theorem for AUTO-CI, AUTO-CI UHF-CCSDT
   Emily Kempfer          : AUTO-CI, RHF CISDT and CCSDT
   Christian Kollmar      : KDIIS, OOCD, Brueckner-CCSD(T), CCSD density, CASPT2, CASPT2-K, improved NEVPT2
   Axel Koslowski         : Symmetry handling
   Simone Kossmann        : Meta GGA functionals, TD-DFT gradient, OOMP2, (MP2 Hessian; deprecated post 5.0)
   Lucas Lang             : DCDCAS
   Marvin Lechner         : AUTO-CI (C++ implementation), FIC-MRCC
   Spencer Leger          : CASSCF response
   Dagmar Lenk            : GEPOL surface, SMD, ORCA-2-JSON
   Dimitrios Liakos       : Extrapolation schemes; Compound Job, initial MDCI parallelization
   Dimitrios Manganas     : Further ROCIS development; embedding schemes. LFT, Crystal Embedding
   Dimitrios Pantazis     : SARC Basis sets
   Anastasios Papadopoulos: AUTO-CI, single reference methods and gradients
   Taras Petrenko         : pre 6.0 DFT Hessian and TD-DFT gradient, (ASA, deprecated), ECA, 1-Electron XAS/XES, NRVS
   Peter Pinski           : DLPNO-MP2, DLPNO-MP2 Gradient
   Christoph Reimann      : Effective Core Potentials
   Marius Retegan         : Local ZFS, SOC
   Christoph Riplinger    : Optimizer, TS searches, QM/MM, DLPNO-CCSD(T), (RO)-DLPNO pert. Triples
   Michael Roemelt        : Original ROCIS implementation
   Masaaki Saitow         : Open-shell DLPNO-CCSD energy and density
   Barbara Sandhoefer     : DKH picture change effects
   Kantharuban Sivalingam : CASSCF convergence/infrastructure, NEVPT2 and variants, FIC-MRCI
   Bernardo de Souza      : ESD, SOC TD-DFT
   Georgi Stoychev        : AutoAux, RI-MP2 NMR, DLPNO-MP2 response, X2C
   Van Anh Tran           : RI-MP2 g-tensors
   Willem Van den Heuvel  : Paramagnetic NMR
   Zikuan Wang            : NOTCH, Electric field optimization 
   Frank Wennmohs         : Technical directorship and infrastructure
   Hang Xu                : AUTO-CI-Response properties 


 We gratefully acknowledge several colleagues who have allowed us to
 interface, adapt or use parts of their codes:
   Stefan Grimme, W. Hujo, H. Kruse, P. Pracht,  : VdW corrections, initial TS optimization,
                  C. Bannwarth, S. Ehlert,         DFT functionals, gCP, sTDA/sTD-DF
                  L. Wittmann, M. Mueller
   Ed Valeev, F. Pavosevic, A. Kumar             : LibInt (2-el integral package), F12 methods
   Garnet Chan, S. Sharma, J. Yang, R. Olivares  : DMRG
   Ulf Ekstrom                                   : XCFun DFT Library
   Mihaly Kallay                                 : mrcc  (arbitrary order and MRCC methods)
   Frank Weinhold                                : gennbo (NPA and NBO analysis)
   Simon Mueller                                 : openCOSMO-RS
   Christopher J. Cramer and Donald G. Truhlar   : smd solvation model
   Lars Goerigk                                  : TD-DFT with DH, B97 family of functionals
   V. Asgeirsson, H. Jonsson                     : NEB implementation
   FAccTs GmbH                                   : IRC, NEB, NEB-TS, DLPNO-Multilevel, CI-OPT
                                                   MM, QMMM, 2- and 3-layer-ONIOM, Crystal-QMMM,
                                                   LR-CPCM, SF, NACMEs, symmetry and pop. for TD-DFT,
                                                   nearIR, NL-DFT gradient (VV10), updates on ESD,
                                                   ML-optimized integration grids, MBIS, APM,
                                                   GOAT, DOCKER, SOLVATOR, interface openCOSMO-RS
   S Lehtola, MJT Oliveira, MAL Marques          : LibXC Library
   Liviu Ungur et al                             : ANISO software


 Your calculation uses the libint2 library for the computation of 2-el integrals
 For citations please refer to: http://libint.valeyev.net

 Your ORCA version has been built with support for libXC version: 6.2.2
 For citations please refer to: https://libxc.gitlab.io

 This ORCA versions uses:
   CBLAS   interface :  Fast vector & matrix operations
   LAPACKE interface :  Fast linear algebra routines
   SCALAPACK package :  Parallel linear algebra routines
   Shared memory     :  Shared parallel matrices
   BLAS/LAPACK       :  OpenBLAS 0.3.27  USE64BITINT DYNAMIC_ARCH NO_AFFINITY Zen SINGLE_THREADED
        Core in use  :  Zen
   Copyright (c) 2011-2014, The OpenBLAS Project


NOTE: MaxCore=8000 MB was set to SCF,MP2,MDCI,CIPSI,MRCI and CIS
      => If you want to overwrite this, your respective input block should be placed after the MaxCore statement
Your calculation utilizes the atom-pairwise dispersion correction
based on EEQ partial charges (D4)


================================================================================

----- Orbital basis set information -----
Your calculation utilizes the basis: def2-SVP
   F. Weigend and R. Ahlrichs, Phys. Chem. Chem. Phys. 7, 3297 (2005).

----- AuxJ basis set information -----
Your calculation utilizes the auxiliary basis: def2/J
   F. Weigend, Phys. Chem. Chem. Phys. 8, 1057 (2006).

================================================================================
                                        WARNINGS
                       Please study these warnings very carefully!
================================================================================

WARNING: Old DensityContainer found on disk!
         Will remove this file - 
         If you want to keep old densities, please start your calculation with a different basename. 


================================================================================
                                       INPUT FILE
================================================================================
NAME = inpS
|  1> ! wb97x-d4
|  2> ! def2-svp
|  3> ! def2/J RIJCOSX
|  4> ! DEFGRID2
|  5> ! scfconv7
|  6> ! smallprint printgap noloewdin
|  7> ! NOSOSCF
|  8> %MaxCore 8000
|  9> %output
| 10>        print[P_BondOrder_M] 1
| 11>        print[P_Mayer] 1
| 12>        print[P_basis] 2
| 13> end
| 14> %pal
| 15>     nprocs 4
| 16> end
| 17> ! CPCM(chloroform)
| 18> *xyz 0 1
| 19> C   -5.0486647100   0.1934272600  -0.4613964200
| 20> C   -6.4926790600  -0.2252913100  -0.6055016100
| 21> C   -7.3983220400   0.6721027700   0.2475984500
| 22> H   -6.6233371600  -1.2740653300  -0.3155623600
| 23> H   -6.8084874900  -0.1217409200  -1.6541892300
| 24> C   -4.8075709300   1.6250848000  -0.7472037200
| 25> C   -5.7393510400   2.5725042100  -0.0240590000
| 26> C   -7.2070435500   2.1383125000  -0.1439713000
| 27> H   -5.6078017000   3.5929153700  -0.3995082100
| 28> H   -5.4612822200   2.5837882500   1.0408177000
| 29> H   -7.5444650900   2.2653383200  -1.1816536900
| 30> H   -7.8395583200   2.7716572900   0.4887518400
| 31> O   -7.1504962900   0.4595134400   1.6473888700
| 32> H   -8.4462758900   0.3860094400   0.0944417400
| 33> C   -4.1039351200  -0.6795365200  -0.0372459900
| 34> C   -3.8726107500   2.0528233400  -1.6026538900
| 35> H   -3.2240031300   1.3554882300  -2.1261612700
| 36> H   -3.7430451500   3.1134604400  -1.8048545600
| 37> C   -2.7203267500  -0.3696325800   0.2395257100
| 38> H   -4.4367892400  -1.7017131500   0.1392668300
| 39> C   -1.7507215600  -1.2498201800   0.5676081100
| 40> H   -2.4509692400   0.6827635500   0.1854151200
| 41> C   -1.9155058100  -2.7449292800   0.6670813300
| 42> C   -0.9017453400  -3.4867335500  -0.2258833600
| 43> H   -2.9300582600  -3.0692737400   0.4202344500
| 44> H   -1.7282543100  -3.0370525800   1.7126220700
| 45> C    0.5414631600  -3.0157928800   0.0003176900
| 46> H   -1.1793395700  -3.3418414600  -1.2775845600
| 47> H   -0.9715750800  -4.5638708300  -0.0307243800
| 48> C    0.6757815100  -1.4941247200  -0.1459142200
| 49> H    1.2001221800  -3.5426630500  -0.6980267200
| 50> H    0.8589560400  -3.2973416800   1.0156941400
| 51> C   -0.3378815400  -0.8363157000   0.8447820700
| 52> H   -0.0756472100  -1.2626174900   1.8304119500
| 53> C    0.0651137400   0.6354765400   0.8683617700
| 54> H   -6.1925668700   0.3934242000   1.7685762400
| 55> C    1.6078532400   0.5926223200   0.7420751300
| 56> H   -0.2747395000   1.1404652800   1.7786202300
| 57> H   -0.3722353200   1.1723092300   0.0191524200
| 58> C    1.9981942500  -0.8719350300   0.3808710000
| 59> H    2.1039697400   0.9054996700   1.6661570700
| 60> H    1.9556866100   1.2766812400  -0.0409241200
| 61> H    2.2461507700  -1.4085609900   1.3114400300
| 62> C    3.2522700600  -0.9175009600  -0.5152360500
| 63> C    0.4015745200  -1.0514967000  -1.5895802700
| 64> H    0.6062784900   0.0146973000  -1.7295027900
| 65> H   -0.6419245300  -1.2230768500  -1.8713856100
| 66> H    1.0354845000  -1.6059155300  -2.2904289100
| 67> H    3.0334886300  -0.3722946400  -1.4452159500
| 68> C    3.6984956100  -2.3435494900  -0.8731167200
| 69> C    4.3853768100  -0.2099226900   0.1786500100
| 70> C    5.0517143100   0.8380700700  -0.3033953800
| 71> H    4.6749591400  -0.6215369800   1.1509401000
| 72> H    4.7523041600   1.2468711800  -1.2722046800
| 73> C    6.1860795600   1.5381146900   0.3909889500
| 74> C    5.8738203000   3.0347067400   0.5345674900
| 75> C    7.5548905600   1.2982733000  -0.3029214600
| 76> H    6.2743607400   1.1123730400   1.4018598300
| 77> H    8.2859567600   1.9060703000   0.2524230900
| 78> C    7.5839400000   1.7473295600  -1.7660993100
| 79> C    7.9762701600  -0.1674601600  -0.1891964400
| 80> H    5.6890875500   3.4996569300  -0.4400775000
| 81> H    6.7066861400   3.5640958600   1.0118077200
| 82> H    4.9769355300   3.1824616300   1.1455767300
| 83> H    7.2863976500   2.7942784400  -1.8840089900
| 84> H    6.9145180200   1.1318878600  -2.3783676400
| 85> H    8.5949143800   1.6409706200  -2.1746679200
| 86> H    7.9896967500  -0.4974434900   0.8560639700
| 87> H    8.9774081200  -0.3200212200  -0.6078348200
| 88> H    7.2784831800  -0.8131555600  -0.7354684800
| 89> H    2.9786909000  -2.8435806200  -1.5261808000
| 90> H    3.8184537500  -2.9520567500   0.0316672800
| 91> H    4.6621464500  -2.3176586100  -1.3931688900
| 92> *
| 93> %eprnmr
| 94>  Nuclei = all C { shift }
| 95>  origin giao
| 96>  giao_2el giao_2el_same_as_scf
| 97>  giao_1el giao_1el_analytic
| 98> end
| 99> 
|100>                          ****END OF INPUT****
================================================================================

                       ****************************
                       * Single Point Calculation *
                       ****************************

---------------------------------
CARTESIAN COORDINATES (ANGSTROEM)
---------------------------------
  C     -5.048665    0.193427   -0.461396
  C     -6.492679   -0.225291   -0.605502
  C     -7.398322    0.672103    0.247598
  H     -6.623337   -1.274065   -0.315562
  H     -6.808487   -0.121741   -1.654189
  C     -4.807571    1.625085   -0.747204
  C     -5.739351    2.572504   -0.024059
  C     -7.207044    2.138313   -0.143971
  H     -5.607802    3.592915   -0.399508
  H     -5.461282    2.583788    1.040818
  H     -7.544465    2.265338   -1.181654
  H     -7.839558    2.771657    0.488752
  O     -7.150496    0.459513    1.647389
  H     -8.446276    0.386009    0.094442
  C     -4.103935   -0.679537   -0.037246
  C     -3.872611    2.052823   -1.602654
  H     -3.224003    1.355488   -2.126161
  H     -3.743045    3.113460   -1.804855
  C     -2.720327   -0.369633    0.239526
  H     -4.436789   -1.701713    0.139267
  C     -1.750722   -1.249820    0.567608
  H     -2.450969    0.682764    0.185415
  C     -1.915506   -2.744929    0.667081
  C     -0.901745   -3.486734   -0.225883
  H     -2.930058   -3.069274    0.420234
  H     -1.728254   -3.037053    1.712622
  C      0.541463   -3.015793    0.000318
  H     -1.179340   -3.341841   -1.277585
  H     -0.971575   -4.563871   -0.030724
  C      0.675782   -1.494125   -0.145914
  H      1.200122   -3.542663   -0.698027
  H      0.858956   -3.297342    1.015694
  C     -0.337882   -0.836316    0.844782
  H     -0.075647   -1.262617    1.830412
  C      0.065114    0.635477    0.868362
  H     -6.192567    0.393424    1.768576
  C      1.607853    0.592622    0.742075
  H     -0.274740    1.140465    1.778620
  H     -0.372235    1.172309    0.019152
  C      1.998194   -0.871935    0.380871
  H      2.103970    0.905500    1.666157
  H      1.955687    1.276681   -0.040924
  H      2.246151   -1.408561    1.311440
  C      3.252270   -0.917501   -0.515236
  C      0.401575   -1.051497   -1.589580
  H      0.606278    0.014697   -1.729503
  H     -0.641925   -1.223077   -1.871386
  H      1.035484   -1.605916   -2.290429
  H      3.033489   -0.372295   -1.445216
  C      3.698496   -2.343549   -0.873117
  C      4.385377   -0.209923    0.178650
  C      5.051714    0.838070   -0.303395
  H      4.674959   -0.621537    1.150940
  H      4.752304    1.246871   -1.272205
  C      6.186080    1.538115    0.390989
  C      5.873820    3.034707    0.534567
  C      7.554891    1.298273   -0.302921
  H      6.274361    1.112373    1.401860
  H      8.285957    1.906070    0.252423
  C      7.583940    1.747330   -1.766099
  C      7.976270   -0.167460   -0.189196
  H      5.689088    3.499657   -0.440078
  H      6.706686    3.564096    1.011808
  H      4.976936    3.182462    1.145577
  H      7.286398    2.794278   -1.884009
  H      6.914518    1.131888   -2.378368
  H      8.594914    1.640971   -2.174668
  H      7.989697   -0.497443    0.856064
  H      8.977408   -0.320021   -0.607835
  H      7.278483   -0.813156   -0.735468
  H      2.978691   -2.843581   -1.526181
  H      3.818454   -2.952057    0.031667
  H      4.662146   -2.317659   -1.393169

----------------------------
CARTESIAN COORDINATES (A.U.)
----------------------------
  NO LB      ZA    FRAG     MASS         X           Y           Z
   0 C     6.0000    0    12.011   -9.540594    0.365525   -0.871913
   1 C     6.0000    0    12.011  -12.269385   -0.425739   -1.144232
   2 C     6.0000    0    12.011  -13.980803    1.270090    0.467893
   3 H     1.0000    0     1.008  -12.516293   -2.407635   -0.596326
   4 H     1.0000    0     1.008  -12.866177   -0.230057   -3.125965
   5 C     6.0000    0    12.011   -9.084992    3.070965   -1.412010
   6 C     6.0000    0    12.011  -10.845802    4.861328   -0.045465
   7 C     6.0000    0    12.011  -13.619339    4.040825   -0.272066
   8 H     1.0000    0     1.008  -10.597209    6.789626   -0.754961
   9 H     1.0000    0     1.008  -10.320328    4.882652    1.966860
  10 H     1.0000    0     1.008  -14.256973    4.280869   -2.233002
  11 H     1.0000    0     1.008  -14.814618    5.237673    0.923607
  12 O     8.0000    0    15.999  -13.512480    0.868355    3.113114
  13 H     1.0000    0     1.008  -15.961148    0.729452    0.178469
  14 C     6.0000    0    12.011   -7.755313   -1.284138   -0.070385
  15 C     6.0000    0    12.011   -7.318174    3.879274   -3.028577
  16 H     1.0000    0     1.008   -6.092483    2.561502   -4.017863
  17 H     1.0000    0     1.008   -7.073330    5.883588   -3.410681
  18 C     6.0000    0    12.011   -5.140673   -0.698504    0.452638
  19 H     1.0000    0     1.008   -8.384317   -3.215772    0.263176
  20 C     6.0000    0    12.011   -3.308384   -2.361818    1.072624
  21 H     1.0000    0     1.008   -4.631661    1.290236    0.350384
  22 C     6.0000    0    12.011   -3.619781   -5.187165    1.260601
  23 C     6.0000    0    12.011   -1.704052   -6.588972   -0.426858
  24 H     1.0000    0     1.008   -5.537008   -5.800087    0.794128
  25 H     1.0000    0     1.008   -3.265927   -5.739198    3.236387
  26 C     6.0000    0    12.011    1.023217   -5.699023    0.000600
  27 H     1.0000    0     1.008   -2.228629   -6.315165   -2.414285
  28 H     1.0000    0     1.008   -1.836011   -8.624466   -0.058061
  29 C     6.0000    0    12.011    1.277042   -2.823487   -0.275738
  30 H     1.0000    0     1.008    2.267902   -6.694663   -1.319079
  31 H     1.0000    0     1.008    1.623192   -6.231073    1.919384
  32 C     6.0000    0    12.011   -0.638504   -1.580408    1.596407
  33 H     1.0000    0     1.008   -0.142953   -2.386001    3.458977
  34 C     6.0000    0    12.011    0.123047    1.200877    1.640966
  35 H     1.0000    0     1.008  -11.702255    0.743464    3.342125
  36 C     6.0000    0    12.011    3.038402    1.119894    1.402319
  37 H     1.0000    0     1.008   -0.519182    2.155167    3.361105
  38 H     1.0000    0     1.008   -0.703423    2.215343    0.036193
  39 C     6.0000    0    12.011    3.776040   -1.647718    0.719742
  40 H     1.0000    0     1.008    3.975927    1.711146    3.148581
  41 H     1.0000    0     1.008    3.695712    2.412578   -0.077335
  42 H     1.0000    0     1.008    4.244610   -2.661795    2.478262
  43 C     6.0000    0    12.011    6.145900   -1.733826   -0.973655
  44 C     6.0000    0    12.011    0.758866   -1.987041   -3.003871
  45 H     1.0000    0     1.008    1.145700    0.027774   -3.268287
  46 H     1.0000    0     1.008   -1.213062   -2.311280   -3.536406
  47 H     1.0000    0     1.008    1.956782   -3.034741   -4.328283
  48 H     1.0000    0     1.008    5.732463   -0.703535   -2.731062
  49 C     6.0000    0    12.011    6.989144   -4.428667   -1.649951
  50 C     6.0000    0    12.011    8.287161   -0.396696    0.337600
  51 C     6.0000    0    12.011    9.546357    1.583723   -0.573334
  52 H     1.0000    0     1.008    8.834392   -1.174535    2.174962
  53 H     1.0000    0     1.008    8.980553    2.356245   -2.404118
  54 C     6.0000    0    12.011   11.689996    2.906616    0.738862
  55 C     6.0000    0    12.011   11.099912    5.734765    1.010186
  56 C     6.0000    0    12.011   14.276674    2.453381   -0.572439
  57 H     1.0000    0     1.008   11.856823    2.102080    2.649131
  58 H     1.0000    0     1.008   15.658189    3.601951    0.477011
  59 C     6.0000    0    12.011   14.331570    3.301974   -3.337444
  60 C     6.0000    0    12.011   15.072966   -0.316454   -0.357529
  61 H     1.0000    0     1.008   10.750817    6.613393   -0.831626
  62 H     1.0000    0     1.008   12.673800    6.735165    1.912039
  63 H     1.0000    0     1.008    9.405045    6.013981    2.164826
  64 H     1.0000    0     1.008   13.769296    5.280421   -3.560261
  65 H     1.0000    0     1.008   13.066545    2.138958   -4.494463
  66 H     1.0000    0     1.008   16.242034    3.100985   -4.109527
  67 H     1.0000    0     1.008   15.098339   -0.940032    1.617726
  68 H     1.0000    0     1.008   16.964843   -0.604752   -1.148641
  69 H     1.0000    0     1.008   13.754340   -1.536641   -1.389834
  70 H     1.0000    0     1.008    5.628910   -5.373589   -2.884064
  71 H     1.0000    0     1.008    7.215832   -5.578579    0.059842
  72 H     1.0000    0     1.008    8.810180   -4.379740   -2.632708

--------------------------------
INTERNAL COORDINATES (ANGSTROEM)
--------------------------------
 C      0   0   0     0.000000000000     0.00000000     0.00000000
 C      1   0   0     1.510387033066     0.00000000     0.00000000
 C      2   1   0     1.534042064095   110.43771341     0.00000000
 H      2   1   3     1.095930313849   110.73449473   237.88178816
 H      2   1   3     1.100092437966   109.83517186   118.75721209
 C      1   2   3     1.479680822112   113.92723064   306.04666514
 C      6   1   2     1.512863509343   114.40833843    49.80310854
 C      3   2   1     1.529602988425   110.15463179    56.83842159
 H      7   6   1     1.095219737585   110.22016986   188.81233925
 H      7   6   1     1.100641623971   108.25710871    72.13781292
 H      8   3   2     1.098532474312   108.31518154    64.43379918
 H      8   3   2     1.096147403035   109.50690684   181.42503657
 O      3   2   1     1.437367401021   110.68715456   292.82832483
 H      3   2   1     1.097047694049   109.49661395   177.30447761
 C      1   2   3     1.354431004770   121.20208187   122.76522007
 C      6   1   2     1.337499828090   123.15207984   231.71352455
 H     16   6   1     1.086751157016   121.33891279   359.03899679
 H     16   6   1     1.087484902676   120.93835463   178.43204050
 C     15   1   2     1.444650527803   126.14079139   185.23358799
 H     15   1   2     1.089400616735   116.25559032     3.13802155
 C     19  15   1     1.350000924762   126.48222062   185.21138920
 H     19  15   1     1.087666786559   115.79889852     5.96286338
 C     21  19  15     1.507448172060   125.74497698     2.07690917
 C     23  21  19     1.541223476045   111.54514235   124.80511812
 H     23  21  19     1.093366079911   112.38047022     1.15424631
 H     23  21  19     1.101614535877   107.88182747   243.36693781
 C     24  23  21     1.534862470762   112.66970926    51.10375346
 H     24  23  21     1.097327521005   108.98662778   288.97825585
 H     24  23  21     1.096899238777   109.12799896   173.04580547
 C     27  24  23     1.534568075977   111.87037355   306.39060969
 H     27  24  23     1.095038262181   108.90262064   182.90879959
 H     27  24  23     1.100482072024   109.19317362    66.43605984
 C     21  19  15     1.497974726488   122.84695246   180.28289015
 H     33  21  19     1.105425854744   106.39564214   127.03248062
 C     33  21  19     1.526149925688   121.20635996     4.46020127
 H     13   3   2     0.967823816608   107.61962006    42.09990986
 C     35  33  21     1.548492804140   103.59927710   196.97531470
 H     35  33  21     1.095027084718   112.06322733    74.91972183
 H     35  33  21     1.095728094676   110.80023867   315.32853787
 C     30  27  24     1.553511549126   116.06136847   166.20248859
 H     37  35  33     1.094509593174   112.01359616   249.17990639
 H     37  35  33     1.096363299649   110.91972238   130.57207579
 H     40  30  27     1.102455702671   106.42329029   320.78711526
 C     40  30  27     1.542008507196   118.90772461    81.58267688
 C     30  27  24     1.534692380048   111.09966412   294.00623720
 H     45  30  27     1.094646825498   111.57682087   186.51164135
 H     45  30  27     1.094415033192   111.55315097    66.45503845
 H     45  30  27     1.095632656501   110.63495759   306.31240699
 H     44  40  30     1.099989936265   108.35544511    60.45443125
 C     44  40  30     1.536492832833   113.51395280   299.58805605
 C     44  40  30     1.505349055646   109.29356462   177.72741941
 C     51  44  40     1.332164496952   125.41434682   238.46064681
 H     51  44  40     1.094820655949   115.57771656    59.46654852
 H     52  51  44     1.093323486086   118.54240100     1.40497852
 C     52  51  44     1.503002524332   125.22197355   180.24514560
 C     55  52  51     1.535548243048   110.10053763   235.64129095
 C     55  52  51     1.553280110986   112.75485015   110.01885740
 H     55  52  51     1.100413311133   107.74328819   353.08594905
 H     57  55  52     1.101037034439   105.93577755   176.49084848
 C     57  55  52     1.530811815783   113.47997625    58.27675755
 C     57  55  52     1.529336039997   110.95141403   293.42679964
 H     56  55  52     1.095553615592   111.39136418   302.20057757
 H     56  55  52     1.096210100731   110.90873553   181.76331519
 H     56  55  52     1.095247044982   110.49770032    61.64158343
 H     60  57  55     1.094776735236   112.22939714    54.76869587
 H     60  57  55     1.096251240057   110.95050702   293.70727954
 H     60  57  55     1.095586477742   110.21104257   174.75560147
 H     61  57  55     1.096192773243   111.27161340   304.94145668
 H     61  57  55     1.095814849868   110.90062581   184.53547059
 H     61  57  55     1.096468130282   110.60975643    64.72727829
 H     50  44  40     1.092997092445   111.87071050    67.65882155
 H     50  44  40     1.096952655077   110.76240501   306.95193218
 H     50  44  40     1.095329876622   110.13019540   187.58675469

---------------------------
INTERNAL COORDINATES (A.U.)
---------------------------
 C      0   0   0     0.000000000000     0.00000000     0.00000000
 C      1   0   0     2.854217848720     0.00000000     0.00000000
 C      2   1   0     2.898919379056   110.43771341     0.00000000
 H      2   1   3     2.071008155037   110.73449473   237.88178816
 H      2   1   3     2.078873429753   109.83517186   118.75721209
 C      1   2   3     2.796191519408   113.92723064   306.04666514
 C      6   1   2     2.858897710660   114.40833843    49.80310854
 C      3   2   1     2.890530741751   110.15463179    56.83842159
 H      7   6   1     2.069665360501   110.22016986   188.81233925
 H      7   6   1     2.079911240900   108.25710871    72.13781292
 H      8   3   2     2.075925525669   108.31518154    64.43379918
 H      8   3   2     2.071418394145   109.50690684   181.42503657
 O      3   2   1     2.716230741755   110.68715456   292.82832483
 H      3   2   1     2.073119697603   109.49661395   177.30447761
 C      1   2   3     2.559503666307   121.20208187   122.76522007
 C      6   1   2     2.527508379256   123.15207984   231.71352455
 H     16   6   1     2.053662062482   121.33891279   359.03899679
 H     16   6   1     2.055048640832   120.93835463   178.43204050
 C     15   1   2     2.729993856773   126.14079139   185.23358799
 H     15   1   2     2.058668815755   116.25559032     3.13802155
 C     19  15   1     2.551132028341   126.48222062   185.21138920
 H     19  15   1     2.055392351558   115.79889852     5.96286338
 C     21  19  15     2.848664206274   125.74497698     2.07690917
 C     23  21  19     2.912490280895   111.54514235   124.80511812
 H     23  21  19     2.066162455150   112.38047022     1.15424631
 H     23  21  19     2.081749777954   107.88182747   243.36693781
 C     24  23  21     2.900469722974   112.66970926    51.10375346
 H     24  23  21     2.073648493914   108.98662778   288.97825585
 H     24  23  21     2.072839157795   109.12799896   173.04580547
 C     27  24  23     2.899913397454   111.87037355   306.39060969
 H     27  24  23     2.069322421688   108.90262064   182.90879959
 H     27  24  23     2.079609731416   109.19317362    66.43605984
 C     21  19  15     2.830761988597   122.84695246   180.28289015
 H     33  21  19     2.088952126822   106.39564214   127.03248062
 C     33  21  19     2.884005398855   121.20635996     4.46020127
 H     13   3   2     1.828921959275   107.61962006    42.09990986
 C     35  33  21     2.926227320173   103.59927710   196.97531470
 H     35  33  21     2.069301299344   112.06322733    74.91972183
 H     35  33  21     2.070626016182   110.80023867   315.32853787
 C     30  27  24     2.935711373731   116.06136847   166.20248859
 H     37  35  33     2.068323382048   112.01359616   249.17990639
 H     37  35  33     2.071826379619   110.91972238   130.57207579
 H     40  30  27     2.083339352828   106.42329029   320.78711526
 C     40  30  27     2.913973774776   118.90772461    81.58267688
 C     30  27  24     2.900148298106   111.09966412   294.00623720
 H     45  30  27     2.068582713558   111.57682087   186.51164135
 H     45  30  27     2.068144689580   111.55315097    66.45503845
 H     45  30  27     2.070445664168   110.63495759   306.31240699
 H     44  40  30     2.078679729611   108.35544511    60.45443125
 C     44  40  30     2.903550660787   113.51395280   299.58805605
 C     44  40  30     2.844697451128   109.29356462   177.72741941
 C     51  44  40     2.517426064572   125.41434682   238.46064681
 H     51  44  40     2.068911205504   115.57771656    59.46654852
 H     52  51  44     2.066081964486   118.54240100     1.40497852
 C     52  51  44     2.840263149580   125.22197355   180.24514560
 C     55  52  51     2.901765644784   110.10053763   235.64129095
 C     55  52  51     2.935274019030   112.75485015   110.01885740
 H     55  52  51     2.079479792163   107.74328819   353.08594905
 H     57  55  52     2.080658458394   105.93577755   176.49084848
 C     57  55  52     2.892815094400   113.47997625    58.27675755
 C     57  55  52     2.890026282330   110.95141403   293.42679964
 H     56  55  52     2.070296298495   111.39136418   302.20057757
 H     56  55  52     2.071536875619   110.90873553   181.76331519
 H     56  55  52     2.069716964003   110.49770032    61.64158343
 H     60  57  55     2.068828207385   112.22939714    54.76869587
 H     60  57  55     2.071614617680   110.95050702   293.70727954
 H     60  57  55     2.070358398960   110.21104257   174.75560147
 H     61  57  55     2.071504131413   111.27161340   304.94145668
 H     61  57  55     2.070789959734   110.90062581   184.53547059
 H     61  57  55     2.072024480806   110.60975643    64.72727829
 H     50  44  40     2.065465169894   111.87071050    67.65882155
 H     50  44  40     2.072940099974   110.76240501   306.95193218
 H     50  44  40     2.069873493118   110.13019540   187.58675469

---------------------
BASIS SET INFORMATION
---------------------
There are 3 groups of distinct atoms

 Group   1 Type C   : 7s4p1d contracted to 3s2p1d pattern {511/31/1}
 Group   2 Type H   : 4s1p contracted to 2s1p pattern {31/1}
 Group   3 Type O   : 7s4p1d contracted to 3s2p1d pattern {511/31/1}

Atom   0C    basis set group =>   1
Atom   1C    basis set group =>   1
Atom   2C    basis set group =>   1
Atom   3H    basis set group =>   2
Atom   4H    basis set group =>   2
Atom   5C    basis set group =>   1
Atom   6C    basis set group =>   1
Atom   7C    basis set group =>   1
Atom   8H    basis set group =>   2
Atom   9H    basis set group =>   2
Atom  10H    basis set group =>   2
Atom  11H    basis set group =>   2
Atom  12O    basis set group =>   3
Atom  13H    basis set group =>   2
Atom  14C    basis set group =>   1
Atom  15C    basis set group =>   1
Atom  16H    basis set group =>   2
Atom  17H    basis set group =>   2
Atom  18C    basis set group =>   1
Atom  19H    basis set group =>   2
Atom  20C    basis set group =>   1
Atom  21H    basis set group =>   2
Atom  22C    basis set group =>   1
Atom  23C    basis set group =>   1
Atom  24H    basis set group =>   2
Atom  25H    basis set group =>   2
Atom  26C    basis set group =>   1
Atom  27H    basis set group =>   2
Atom  28H    basis set group =>   2
Atom  29C    basis set group =>   1
Atom  30H    basis set group =>   2
Atom  31H    basis set group =>   2
Atom  32C    basis set group =>   1
Atom  33H    basis set group =>   2
Atom  34C    basis set group =>   1
Atom  35H    basis set group =>   2
Atom  36C    basis set group =>   1
Atom  37H    basis set group =>   2
Atom  38H    basis set group =>   2
Atom  39C    basis set group =>   1
Atom  40H    basis set group =>   2
Atom  41H    basis set group =>   2
Atom  42H    basis set group =>   2
Atom  43C    basis set group =>   1
Atom  44C    basis set group =>   1
Atom  45H    basis set group =>   2
Atom  46H    basis set group =>   2
Atom  47H    basis set group =>   2
Atom  48H    basis set group =>   2
Atom  49C    basis set group =>   1
Atom  50C    basis set group =>   1
Atom  51C    basis set group =>   1
Atom  52H    basis set group =>   2
Atom  53H    basis set group =>   2
Atom  54C    basis set group =>   1
Atom  55C    basis set group =>   1
Atom  56C    basis set group =>   1
Atom  57H    basis set group =>   2
Atom  58H    basis set group =>   2
Atom  59C    basis set group =>   1
Atom  60C    basis set group =>   1
Atom  61H    basis set group =>   2
Atom  62H    basis set group =>   2
Atom  63H    basis set group =>   2
Atom  64H    basis set group =>   2
Atom  65H    basis set group =>   2
Atom  66H    basis set group =>   2
Atom  67H    basis set group =>   2
Atom  68H    basis set group =>   2
Atom  69H    basis set group =>   2
Atom  70H    basis set group =>   2
Atom  71H    basis set group =>   2
Atom  72H    basis set group =>   2

-------------------------
BASIS SET IN INPUT FORMAT
-------------------------

 # Basis set for element : H 
 NewGTO H 
 S 3 
   1      13.0107010000      0.0334854848
   2       1.9622572000      0.2347218709
   3       0.4445379600      0.8137702853
 S 1 
   1       0.1219496200      1.0000000000
 P 1 
   1       0.8000000000      1.0000000000
  end;

 # Basis set for element : C 
 NewGTO C 
 S 5 
   1    1238.4016938000      0.0055173650
   2     186.2900499200      0.0410888285
   3      42.2511763460      0.1822538213
   4      11.6765579320      0.4682845944
   5       3.5930506482      0.4457581734
 S 1 
   1       0.4024514736      1.0000000000
 S 1 
   1       0.1309018267      1.0000000000
 P 3 
   1       9.4680970621      0.0568883320
   2       2.0103545142      0.3129405934
   3       0.5477100471      0.7606501651
 P 1 
   1       0.1526861379      1.0000000000
 D 1 
   1       0.8000000000      1.0000000000
  end;

 # Basis set for element : O 
 NewGTO O 
 S 5 
   1    2266.1767785000     -0.0053893504
   2     340.8701019100     -0.0402347214
   3      77.3631351670     -0.1800818421
   4      21.4796449400     -0.4682885766
   5       6.6589433124     -0.4469261716
 S 1 
   1       0.8097597567      1.0000000000
 S 1 
   1       0.2553077223      1.0000000000
 P 3 
   1      17.7215043170      0.0626302488
   2       3.8635505440      0.3333113849
   3       1.0480920883      0.7414863830
 P 1 
   1       0.2764154441      1.0000000000
 D 1 
   1       1.2000000000      1.0000000000
  end;

---------------------------------
AUXILIARY/J BASIS SET INFORMATION
---------------------------------
There are 3 groups of distinct atoms

 Group   1 Type C   : 12s5p4d2f1g contracted to 6s4p3d1f1g pattern {711111/2111/211/2/1}
 Group   2 Type H   : 5s2p1d contracted to 3s1p1d pattern {311/2/1}
 Group   3 Type O   : 12s5p4d2f1g contracted to 6s4p3d1f1g pattern {711111/2111/211/2/1}

Atom   0C    basis set group =>   1
Atom   1C    basis set group =>   1
Atom   2C    basis set group =>   1
Atom   3H    basis set group =>   2
Atom   4H    basis set group =>   2
Atom   5C    basis set group =>   1
Atom   6C    basis set group =>   1
Atom   7C    basis set group =>   1
Atom   8H    basis set group =>   2
Atom   9H    basis set group =>   2
Atom  10H    basis set group =>   2
Atom  11H    basis set group =>   2
Atom  12O    basis set group =>   3
Atom  13H    basis set group =>   2
Atom  14C    basis set group =>   1
Atom  15C    basis set group =>   1
Atom  16H    basis set group =>   2
Atom  17H    basis set group =>   2
Atom  18C    basis set group =>   1
Atom  19H    basis set group =>   2
Atom  20C    basis set group =>   1
Atom  21H    basis set group =>   2
Atom  22C    basis set group =>   1
Atom  23C    basis set group =>   1
Atom  24H    basis set group =>   2
Atom  25H    basis set group =>   2
Atom  26C    basis set group =>   1
Atom  27H    basis set group =>   2
Atom  28H    basis set group =>   2
Atom  29C    basis set group =>   1
Atom  30H    basis set group =>   2
Atom  31H    basis set group =>   2
Atom  32C    basis set group =>   1
Atom  33H    basis set group =>   2
Atom  34C    basis set group =>   1
Atom  35H    basis set group =>   2
Atom  36C    basis set group =>   1
Atom  37H    basis set group =>   2
Atom  38H    basis set group =>   2
Atom  39C    basis set group =>   1
Atom  40H    basis set group =>   2
Atom  41H    basis set group =>   2
Atom  42H    basis set group =>   2
Atom  43C    basis set group =>   1
Atom  44C    basis set group =>   1
Atom  45H    basis set group =>   2
Atom  46H    basis set group =>   2
Atom  47H    basis set group =>   2
Atom  48H    basis set group =>   2
Atom  49C    basis set group =>   1
Atom  50C    basis set group =>   1
Atom  51C    basis set group =>   1
Atom  52H    basis set group =>   2
Atom  53H    basis set group =>   2
Atom  54C    basis set group =>   1
Atom  55C    basis set group =>   1
Atom  56C    basis set group =>   1
Atom  57H    basis set group =>   2
Atom  58H    basis set group =>   2
Atom  59C    basis set group =>   1
Atom  60C    basis set group =>   1
Atom  61H    basis set group =>   2
Atom  62H    basis set group =>   2
Atom  63H    basis set group =>   2
Atom  64H    basis set group =>   2
Atom  65H    basis set group =>   2
Atom  66H    basis set group =>   2
Atom  67H    basis set group =>   2
Atom  68H    basis set group =>   2
Atom  69H    basis set group =>   2
Atom  70H    basis set group =>   2
Atom  71H    basis set group =>   2
Atom  72H    basis set group =>   2

-------------------------------------
AUXILIARY/J BASIS SET IN INPUT FORMAT
-------------------------------------

 # Auxiliary/J basis set for element : H 
 NewAuxJGTO H 
 S 3 
   1      15.6752927000      0.1007184237
   2       3.6063578000      0.3404257499
   3       1.2080016000      0.6491996172
 S 1 
   1       0.4726794000      1.0000000000
 S 1 
   1       0.2018100000      1.0000000000
 P 2 
   1       2.0281365000      0.5596620919
   2       0.5358730000      0.5596620919
 D 1 
   1       2.2165124000      1.0000000000
  end;

 # Auxiliary/J basis set for element : C 
 NewAuxJGTO C 
 S 7 
   1    1861.0916331000      0.0134602335
   2     642.9939764000      0.0299160374
   3     235.1105725000      0.1008649584
   4      90.7028894000      0.2370970548
   5      36.7794552000      0.3924037254
   6      15.6046273000      0.3195862154
   7       6.8907294000      0.0530104441
 S 1 
   1       3.1478850000     -1.0000000000
 S 1 
   1       1.4777287000      1.0000000000
 S 1 
   1       0.7076466000      1.0000000000
 S 1 
   1       0.3430122000      1.0000000000
 S 1 
   1       0.1669453000      1.0000000000
 P 2 
   1      13.5472892000     -0.6769313712
   2       5.4669419000     -0.3779500978
 P 1 
   1       2.1751721000      1.0000000000
 P 1 
   1       0.8582194000      1.0000000000
 P 1 
   1       0.3376720000      1.0000000000
 D 2 
   1       5.9287253000     -0.3533329857
   2       1.9809209000     -0.7456525731
 D 1 
   1       0.8055417000     -1.0000000000
 D 1 
   1       0.3531244000     -1.0000000000
 F 2 
   1       1.6755626000      0.6311076882
   2       0.5997536000      0.4968166032
 G 1 
   1       1.0024600000     -1.0000000000
  end;

 # Auxiliary/J basis set for element : O 
 NewAuxJGTO O 
 S 7 
   1    2876.8216605000      0.0168151159
   2    1004.7443032000      0.0340137548
   3     369.7579954000      0.1194951309
   4     142.9442404000      0.2664627624
   5      57.8366425000      0.4202764046
   6      24.3864983000      0.2765077335
   7      10.6622662000      0.0057008815
 S 1 
   1       4.8070437000     -1.0000000000
 S 1 
   1       2.2210770000      1.0000000000
 S 1 
   1       1.0447795000      1.0000000000
 S 1 
   1       0.4968425000      1.0000000000
 S 1 
   1       0.2371384000      1.0000000000
 P 2 
   1      64.2613382000     -0.2731534179
   2      16.3006076000     -0.8168011598
 P 1 
   1       4.3550542000      1.0000000000
 P 1 
   1       1.2019554000      1.0000000000
 P 1 
   1       0.3354196000      1.0000000000
 D 2 
   1       9.2146611000     -0.4661230638
   2       2.8435251000     -0.6600908911
 D 1 
   1       0.9955759000     -1.0000000000
 D 1 
   1       0.3649441000     -1.0000000000
 F 2 
   1       2.6420115000      0.5931563945
   2       0.7345613000      0.5931563945
 G 1 
   1       1.3931000000     -1.0000000000
  end;


Checking for AutoStart:
The File: inpS.gbw exists
Trying to determine its content:
     ... Fine, the file contains calculation information
     ... Fine, the calculation information was read
     ... Fine, the file contains a basis set
     ... Fine, the basis set was read
     ... Fine, the file contains a geometry
     ... Fine, the geometry was read
     ... Fine, the file contains a set of orbitals
     ... Fine, the orbitals can be read
     => possible old guess file was deleted
     => GBW file was renamed to GES file
     => GES file is set as startup file
     => Guess is set to MORead
     ... now leaving AutoStart



           ************************************************************
           *        Program running with 4 parallel MPI-processes     *
           *              working on a common directory               *
           ************************************************************
------------------------------------------------------------------------------
                             ORCA STARTUP CALCULATIONS
                           -- RI-GTO INTEGRALS CHOSEN --
------------------------------------------------------------------------------
------------------------------------------------------------------------------
                   ___                                                        
                  /   \      - P O W E R E D   B Y -                         
                 /     \                                                     
                 |  |  |   _    _      __       _____    __    __             
                 |  |  |  | |  | |    /  \     |  _  \  |  |  /  |          
                  \  \/   | |  | |   /    \    | | | |  |  | /  /          
                 / \  \   | |__| |  /  /\  \   | |_| |  |  |/  /          
                |  |  |   |  __  | /  /__\  \  |    /   |      \           
                |  |  |   | |  | | |   __   |  |    \   |  |\   \          
                \     /   | |  | | |  |  |  |  | |\  \  |  | \   \       
                 \___/    |_|  |_| |__|  |__|  |_| \__\ |__|  \__/        
                                                                              
                      - O R C A' S   B I G   F R I E N D -                    
                                      &                                       
                       - I N T E G R A L  F E E D E R -                       
                                                                              
 v1 FN, 2020, v2 2021, v3 2022-2024                                           
------------------------------------------------------------------------------


----------------------
SHARK INTEGRAL PACKAGE
----------------------

Number of atoms                             ...     73
Number of basis functions                   ...    626
Number of shells                            ...    306
Maximum angular momentum                    ...      2
Integral batch strategy                     ... SHARK/LIBINT Hybrid
RI-J (if used) integral strategy            ... SPLIT-RIJ (Revised 2003 algorithm where possible)
Printlevel                                  ...      1
Contraction scheme used                     ... SEGMENTED contraction
Prescreening option                         ... SCHWARTZ
   Thresh                                   ... 3.000e-11
   Tcut                                     ... 1.000e-12
   Tpresel                                  ... 1.000e-12 
Coulomb Range Separation                    ... NOT USED
Exchange Range Separation                   ... Long Range
   Mu parameter                             ... 3.000e-01
   Scaling (regular/separated)              ... 1.670e-01 8.330e-01
Multipole approximations                    ... NOT USED
Finite Nucleus Model                        ... NOT USED
CABS basis                                  ... NOT available
Auxiliary Coulomb fitting basis             ... AVAILABLE
   # of basis functions in Aux-J            ...   1905
   # of shells in Aux-J                     ...    655
   Maximum angular momentum in Aux-J        ...      4
Auxiliary J/K fitting basis                 ... NOT available
Auxiliary Correlation fitting basis         ... NOT available
Auxiliary 'external' fitting basis          ... NOT available

Checking pre-screening integrals            ... done (  0.0 sec) Dimension = 306
Check shell pair data                       ... done (  0.0 sec)
Shell pair information
Shell pair cut-off parameter TPreSel        ...   1.0e-12
Total number of shell pairs                 ...     46971
Shell pairs after pre-screening             ...     27454
Total number of primitive shell pairs       ...    162105
Primitive shell pairs kept                  ...     60488
          la=0 lb=0:   9605 shell pairs
          la=1 lb=0:  10516 shell pairs
          la=1 lb=1:   2919 shell pairs
          la=2 lb=0:   2750 shell pairs
          la=2 lb=1:   1468 shell pairs
          la=2 lb=2:    196 shell pairs

Calculating one electron integrals          ... done (  0.1 sec)
Calculating RI/J V-Matrix + Cholesky decomp.... done (  0.2 sec)
Calculating Nuclear repulsion               ... done (  0.0 sec) ENN=   2779.747434554303 Eh

Diagonalization of the overlap matrix:
Smallest eigenvalue                        ... 4.570e-04
Time for diagonalization                   ...    0.043 sec
Threshold for overlap eigenvalues          ... 1.000e-07
Number of eigenvalues below threshold      ... 0
Time for construction of square roots      ...    0.030 sec
Total time needed                          ...    0.076 sec

-------------------
DFT GRID GENERATION
-------------------

General Integration Accuracy     IntAcc      ... 4.388
Radial Grid Type                 RadialGrid  ... OptM3 with GC (2021)
Angular Grid (max. ang.)         AngularGrid ... 4 (Lebedev-302)
Angular grid pruning method      GridPruning ... 4 (adaptive)
Weight generation scheme         WeightScheme... mBecke (2022)
Basis function cutoff            BFCut       ... 1.0000e-11
Integration weight cutoff        WCut        ... 1.0000e-14
Partially contracted basis set               ... off
Rotationally invariant grid construction     ... off
Angular grids for H and He will be reduced by one unit

Total number of grid points                  ...   309996
Total number of batches                      ...     4880
Average number of points per batch           ...       63
Average number of grid points per atom       ...     4247

--------------------
COSX GRID GENERATION
--------------------

GRIDX 1
-------
General Integration Accuracy     IntAcc      ... 3.816
Radial Grid Type                 RadialGrid  ... OptM3 with GC (2021)
Angular Grid (max. ang.)         AngularGrid ... 1 (Lebedev-50)
Angular grid pruning method      GridPruning ... 4 (adaptive)
Weight generation scheme         WeightScheme... mBecke (2022)
Basis function cutoff            BFCut       ... 1.0000e-11
Integration weight cutoff        WCut        ... 1.0000e-14
Partially contracted basis set               ... on
Rotationally invariant grid construction     ... off
Angular grids for H and He will be reduced by one unit

Total number of grid points                  ...    39415
Total number of batches                      ...      352
Average number of points per batch           ...      111
Average number of grid points per atom       ...      540
UseSFitting                                  ... on

GRIDX 2
-------
General Integration Accuracy     IntAcc      ... 4.020
Radial Grid Type                 RadialGrid  ... OptM3 with GC (2021)
Angular Grid (max. ang.)         AngularGrid ... 2 (Lebedev-110)
Angular grid pruning method      GridPruning ... 4 (adaptive)
Weight generation scheme         WeightScheme... mBecke (2022)
Basis function cutoff            BFCut       ... 1.0000e-11
Integration weight cutoff        WCut        ... 1.0000e-14
Partially contracted basis set               ... on
Rotationally invariant grid construction     ... off
Angular grids for H and He will be reduced by one unit

Total number of grid points                  ...    81373
Total number of batches                      ...      679
Average number of points per batch           ...      119
Average number of grid points per atom       ...     1115
UseSFitting                                  ... on

GRIDX 3
-------
General Integration Accuracy     IntAcc      ... 4.338
Radial Grid Type                 RadialGrid  ... OptM3 with GC (2021)
Angular Grid (max. ang.)         AngularGrid ... 3 (Lebedev-194)
Angular grid pruning method      GridPruning ... 4 (adaptive)
Weight generation scheme         WeightScheme... mBecke (2022)
Basis function cutoff            BFCut       ... 1.0000e-11
Integration weight cutoff        WCut        ... 1.0000e-14
Partially contracted basis set               ... on
Rotationally invariant grid construction     ... off
Angular grids for H and He will be reduced by one unit

Total number of grid points                  ...   176212
Total number of batches                      ...     1417
Average number of points per batch           ...      124
Average number of grid points per atom       ...     2414
UseSFitting                                  ... on
Initializing property integral containers    ... done (  0.0 sec)

SHARK setup successfully completed in   4.7 seconds

Maximum memory used throughout the entire STARTUP-calculation: 95.7 MB


           ************************************************************
           *        Program running with 4 parallel MPI-processes     *
           *              working on a common directory               *
           ************************************************************
-------------------------------------------------------------------------------
                                 ORCA GUESS
                   Start orbitals & Density for SCF / CASSCF
-------------------------------------------------------------------------------

------------
SCF SETTINGS
------------
Hamiltonian:
 Density Functional     Method          .... DFT(GTOs)
 Exchange Functional    Exchange        .... WB97X-V
 Correlation Functional Correlation     .... WB97X-V
 Gradients option       PostSCFGGA      .... off
 Hybrid DFT is turned on
   Fraction HF Exchange ScalHFX         ....  0.167000
   Scaling of DF-GGA-X  ScalDFX         ....  0.000000
   Scaling of DF-GGA-C  ScalDFC         ....  1.000000
   Scaling of DF-LDA-C  ScalLDAC        ....  1.000000
   Perturbative correction              ....  0.000000
 Long-range corrected/Screened/Range-Separated Hybrid DFT is turned on
   Amount of maximum screened exact exchange              ....  0.833000
   Range separation parameter mu (erf(mu*r12)/r12)        ....  0.300000
 RI-approximation to the Coulomb term is turned on
   Number of AuxJ basis functions       .... 1905
   RIJ-COSX (HFX calculated with COS-X)).... on


General Settings:
 Integral files         IntName         .... inpS
 Hartree-Fock type      HFTyp           .... RHF
 Total Charge           Charge          ....    0
 Multiplicity           Mult            ....    1
 Number of Electrons    NEL             ....  220
 Basis Dimension        Dim             ....  626
 Nuclear Repulsion      ENuc            ....   2779.7474345543 Eh

Convergence Acceleration:
 AO-DIIS                CNVDIIS         .... on
   Start iteration      DIISMaxIt       ....    12
   Startup error        DIISStart       ....  0.200000
   # of expansion vecs  DIISMaxEq       ....     5
   Bias factor          DIISBfac        ....   1.050
   Max. coefficient     DIISMaxC        ....  10.000
 MO-DIIS                CNVKDIIS        .... off
 Trust-Rad. Augm. Hess. CNVTRAH         .... auto
   Auto Start mean grad. ratio tolernc. ....  1.125000
   Auto Start start iteration           ....     1
   Auto Start num. interpolation iter.  ....    10
   Max. Number of Micro iterations      ....    24
   Max. Number of Macro iterations      .... Maxiter - #DIIS iter
   Number of Davidson start vectors     ....     2
   Converg. threshold    (grad. norm)   ....   1.000e-04
   Grad. Scal. Fac. for Micro threshold ....   0.100
   Minimum threshold for Micro iter.    ....   1.000e-02
   NR start threshold (gradient norm)   ....   1.000e-04
   Initial trust radius                 ....   0.400
   Minimum AH scaling param. (alpha)    ....   1.000
   Maximum AH scaling param. (alpha)    .... 1000.000
   Quad. conv. algorithm                .... NR
   White noise on init. David. guess    .... on
   Maximum white noise                  ....   0.010
   Pseudo random numbers                .... off
   Inactive MOs                         .... canonical
   Orbital update algorithm             .... Taylor
   Preconditioner                       .... Diag
   Full preconditioner red. dimension   ....   250
 SOSCF                  CNVSOSCF        .... off
 Level Shifting         CNVShift        .... on
   Level shift para.    LevelShift      ....    0.2500
   Turn off err/grad.   ShiftErr        ....    0.0010
 Zerner damping         CNVZerner       .... off
 Static damping         CNVDamp         .... on
   Fraction old density DampFac         ....    0.7000
   Max. Damping (<1)    DampMax         ....    0.9800
   Min. Damping (>=0)   DampMin         ....    0.0000
   Turn off err/grad.   DampErr         ....    0.1000

SCF Procedure:
 Maximum # iterations   MaxIter         ....   125
 SCF integral mode      SCFMode         .... Direct
   Integral package                     .... SHARK and LIBINT hybrid scheme
 Reset frequency        DirectResetFreq ....    20
 Integral Threshold     Thresh          ....  3.000e-11 Eh
 Primitive CutOff       TCut            ....  1.000e-12 Eh

Convergence Tolerance:
 Convergence Check Mode ConvCheckMode   .... Total+1el-Energy
 Convergence forced     ConvForced      .... 0
 Energy Change          TolE            ....  1.000e-07 Eh
 1-El. energy change                    ....  1.000e-04 Eh
 DIIS Error             TolErr          ....  1.000e-07

---------------------
INITIAL GUESS: MOREAD
---------------------
Guess MOs are being read from file: inpS.ges
Input Geometry matches current geometry (good)
Input basis set matches current basis set (good)
Occupation numbers will be reassigned to an Aufbau configuration
MOs were renormalized
MOs were reorthogonalized (Cholesky)
                      ------------------
                      INITIAL GUESS DONE (   0.2 sec)
                      ------------------
             **** ENERGY FILE WAS UPDATED (inpS.en.tmp) ****
Finished Guess after   0.4 sec
Maximum memory used throughout the entire GUESS-calculation: 52.3 MB


           ************************************************************
           *        Program running with 4 parallel MPI-processes     *
           *              working on a common directory               *
           ************************************************************

-------------------------------------------------------------------------------------------
                                      ORCA LEAN-SCF
                              memory conserving SCF solver
-------------------------------------------------------------------------------------------

--------------------
CPCM SOLVATION MODEL
--------------------
CPCM parameters:
  Epsilon                                         ...       4.8030
  Refrac                                          ...       1.4459
  Rsolv                                           ...       1.3000
  Surface type                                    ... GAUSSIAN VDW
  Discretization scheme                           ... Constant charge density
    Threshold for H atoms                         ...       5.0000 (charges/Ang^2)
    Threshold for non-H atoms                     ...       5.0000 (charges/Ang^2)
  Epsilon function type                           ...         CPCM
Solvent:                                          ... CHLOROFORM
Radii:
  Scheme                                          ... Element-dependent radii
  Radius for C  used is    3.8550 Bohr (=   2.0400 Ang.)
  Radius for H  used is    2.4944 Bohr (=   1.3200 Ang.)
  Radius for O  used is    3.4469 Bohr (=   1.8240 Ang.)
Calculating surface                               ...        done! (  0.0s)
Cavity surface points                             ...         5412
Cavity Volume                                     ...    3617.0255
Cavity Surface-area                               ...    1803.4001
Calculating surface distance matrix               ...        done! (  0.2s)
Performing Cholesky decomposition & store         ...        done! (  0.9s)
Overall time for CPCM initialization              ...                 1.1s

----------------------------------------D-I-I-S--------------------------------------------
Iteration    Energy (Eh)           Delta-E    RMSDP     MaxDP     DIISErr   Damp  Time(sec)
-------------------------------------------------------------------------------------------
               ***  Starting incremental Fock matrix formation  ***
    1    -1168.3645531492243208     0.00e+00  3.16e-08  2.16e-06  4.38e-06  0.700  23.4

  HOMO= 109 E= -7.960 eV LUMO=  8.069 eV gap=  16.028 eV
    2    -1168.3645531416664198     7.56e-09  2.70e-08  1.39e-06  2.56e-06  0.700   4.8
                 **** Energy Check signals convergence ****

  HOMO= 109 E= -7.960 eV LUMO=  8.069 eV gap=  16.028 eV

               *****************************************************
               *                     SUCCESS                       *
               *           SCF CONVERGED AFTER   2 CYCLES          *
               *****************************************************

Recomputing exchange energy using gridx3       ... done (   40.578 sec)
Old exchange energy                            :    -56.782289144 Eh
New exchange energy                            :    -56.782321888 Eh
Exchange energy change after final integration :     -0.000032744 Eh
Total energy after final integration           :  -1168.364585885 Eh
             **** ENERGY FILE WAS UPDATED (inpS.en.tmp) ****

----------------
TOTAL SCF ENERGY
----------------

Total Energy       :      -1168.36458588545042 Eh          -31792.81670 eV

Components:
Nuclear Repulsion  :       2779.74743455430325 Eh           75640.77320 eV
Electronic Energy  :      -3948.10288407177813 Eh         -107433.34128 eV
One Electron Energy:      -7104.53544700976272 Eh         -193324.23793 eV
Two Electron Energy:       3156.43256293798459 Eh           85890.89665 eV
CPCM Dielectric    :         -0.00910362419142 Eh              -0.24772 eV

Virial components:
Potential Energy   :      -2321.65888353684659 Eh          -63175.55000 eV
Kinetic Energy     :       1153.29429765139639 Eh           31382.73331 eV
Virial Ratio       :          2.01306716617323

DFT components:
N(Alpha)           :      110.000156784661 electrons
N(Beta)            :      110.000156784661 electrons
N(Total)           :      220.000313569322 electrons
E(X)               :     -111.767718536967 Eh       
E(C)               :       -8.950495365842 Eh       
E(XC)              :     -120.718213902808 Eh       

CPCM Solvation Model Properties:
Surface-charge          :         -0.04208757771945
Corrected charge        :         -0.00000000000000
Outlying charge corr.   :          0.00006206104290 Eh               0.00169 eV
Free-energy (cav+disp)  :  This term is not implemented in the current solvation scheme

---------------
SCF CONVERGENCE
---------------

  Last Energy change         ...   -7.5579e-09  Tolerance :   1.0000e-07
  Last MAX-Density change    ...    1.3899e-06  Tolerance :   1.0000e-05
  Last RMS-Density change    ...    2.7036e-08  Tolerance :   1.0000e-06
  Last DIIS Error            ...    2.5635e-06  Tolerance :   1.0000e-07


----------------
ORBITAL ENERGIES
----------------

  NO   OCC          E(Eh)            E(eV) 
   0   2.0000     -19.212336      -522.7942 
   1   2.0000     -10.330305      -281.1019 
   2   2.0000     -10.294235      -280.1204 
   3   2.0000     -10.292059      -280.0612 
   4   2.0000     -10.287574      -279.9391 
   5   2.0000     -10.286629      -279.9134 
   6   2.0000     -10.285474      -279.8820 
   7   2.0000     -10.284095      -279.8444 
   8   2.0000     -10.282974      -279.8140 
   9   2.0000     -10.281995      -279.7873 
  10   2.0000     -10.280991      -279.7600 
  11   2.0000     -10.280808      -279.7550 
  12   2.0000     -10.279333      -279.7149 
  13   2.0000     -10.278037      -279.6796 
  14   2.0000     -10.277702      -279.6705 
  15   2.0000     -10.277545      -279.6662 
  16   2.0000     -10.277474      -279.6643 
  17   2.0000     -10.276967      -279.6505 
  18   2.0000     -10.274519      -279.5839 
  19   2.0000     -10.273028      -279.5433 
  20   2.0000     -10.272710      -279.5347 
  21   2.0000     -10.272292      -279.5233 
  22   2.0000     -10.270935      -279.4863 
  23   2.0000     -10.270441      -279.4729 
  24   2.0000     -10.270251      -279.4677 
  25   2.0000     -10.270009      -279.4612 
  26   2.0000     -10.267987      -279.4061 
  27   2.0000     -10.267407      -279.3904 
  28   2.0000     -10.266487      -279.3653 
  29   2.0000      -1.130856       -30.7722 
  30   2.0000      -0.998775       -27.1781 
  31   2.0000      -0.977268       -26.5928 
  32   2.0000      -0.957402       -26.0522 
  33   2.0000      -0.943103       -25.6631 
  34   2.0000      -0.917867       -24.9764 
  35   2.0000      -0.910915       -24.7873 
  36   2.0000      -0.890045       -24.2194 
  37   2.0000      -0.888065       -24.1655 
  38   2.0000      -0.872910       -23.7531 
  39   2.0000      -0.853598       -23.2276 
  40   2.0000      -0.836367       -22.7587 
  41   2.0000      -0.830494       -22.5989 
  42   2.0000      -0.809768       -22.0349 
  43   2.0000      -0.800279       -21.7767 
  44   2.0000      -0.797044       -21.6887 
  45   2.0000      -0.791501       -21.5378 
  46   2.0000      -0.760668       -20.6988 
  47   2.0000      -0.750274       -20.4160 
  48   2.0000      -0.723652       -19.6916 
  49   2.0000      -0.712990       -19.4015 
  50   2.0000      -0.704568       -19.1723 
  51   2.0000      -0.698473       -19.0064 
  52   2.0000      -0.689315       -18.7572 
  53   2.0000      -0.674424       -18.3520 
  54   2.0000      -0.656916       -17.8756 
  55   2.0000      -0.639496       -17.4016 
  56   2.0000      -0.630587       -17.1592 
  57   2.0000      -0.619876       -16.8677 
  58   2.0000      -0.607412       -16.5285 
  59   2.0000      -0.601708       -16.3733 
  60   2.0000      -0.589703       -16.0466 
  61   2.0000      -0.584809       -15.9135 
  62   2.0000      -0.569632       -15.5005 
  63   2.0000      -0.567433       -15.4406 
  64   2.0000      -0.562178       -15.2976 
  65   2.0000      -0.556990       -15.1565 
  66   2.0000      -0.554612       -15.0918 
  67   2.0000      -0.553003       -15.0480 
  68   2.0000      -0.549727       -14.9588 
  69   2.0000      -0.543880       -14.7997 
  70   2.0000      -0.537866       -14.6361 
  71   2.0000      -0.530489       -14.4353 
  72   2.0000      -0.523754       -14.2521 
  73   2.0000      -0.519979       -14.1494 
  74   2.0000      -0.519575       -14.1384 
  75   2.0000      -0.511702       -13.9241 
  76   2.0000      -0.508920       -13.8484 
  77   2.0000      -0.501135       -13.6366 
  78   2.0000      -0.500611       -13.6223 
  79   2.0000      -0.493375       -13.4254 
  80   2.0000      -0.488905       -13.3038 
  81   2.0000      -0.486279       -13.2323 
  82   2.0000      -0.485614       -13.2142 
  83   2.0000      -0.477458       -12.9923 
  84   2.0000      -0.475742       -12.9456 
  85   2.0000      -0.467324       -12.7165 
  86   2.0000      -0.462673       -12.5900 
  87   2.0000      -0.461407       -12.5555 
  88   2.0000      -0.455504       -12.3949 
  89   2.0000      -0.451584       -12.2882 
  90   2.0000      -0.450027       -12.2458 
  91   2.0000      -0.444735       -12.1019 
  92   2.0000      -0.439191       -11.9510 
  93   2.0000      -0.434081       -11.8119 
  94   2.0000      -0.428259       -11.6535 
  95   2.0000      -0.424128       -11.5411 
  96   2.0000      -0.422870       -11.5069 
  97   2.0000      -0.421154       -11.4602 
  98   2.0000      -0.416674       -11.3383 
  99   2.0000      -0.415641       -11.3102 
 100   2.0000      -0.410448       -11.1689 
 101   2.0000      -0.409498       -11.1430 
 102   2.0000      -0.405481       -11.0337 
 103   2.0000      -0.401909       -10.9365 
 104   2.0000      -0.392614       -10.6836 
 105   2.0000      -0.380321       -10.3491 
 106   2.0000      -0.372641       -10.1401 
 107   2.0000      -0.355683        -9.6786 
 108   2.0000      -0.337708        -9.1895 
 109   2.0000      -0.292517        -7.9598 
 110   0.0000       0.046518         1.2658 
 111   0.0000       0.099438         2.7058 
 112   0.0000       0.107200         2.9171 
 113   0.0000       0.132769         3.6128 
 114   0.0000       0.141429         3.8485 
 115   0.0000       0.142634         3.8813 
 116   0.0000       0.149078         4.0566 
 117   0.0000       0.154415         4.2019 
 118   0.0000       0.159639         4.3440 
 119   0.0000       0.160787         4.3752 
 120   0.0000       0.168568         4.5870 
*Only the first 10 virtual orbitals were printed.

                    ********************************
                    * MULLIKEN POPULATION ANALYSIS *
                    ********************************

-----------------------
MULLIKEN ATOMIC CHARGES
-----------------------
   0 C :   -0.174246
   1 C :    0.141891
   2 C :    0.068295
   3 H :    0.017331
   4 H :    0.030681
   5 C :   -0.170784
   6 C :    0.095777
   7 C :    0.024094
   8 H :    0.013667
   9 H :    0.027355
  10 H :    0.019842
  11 H :    0.022569
  12 O :   -0.359238
  13 H :    0.018134
  14 C :   -0.008333
  15 C :   -0.046249
  16 H :    0.035277
  17 H :    0.029360
  18 C :   -0.062423
  19 H :   -0.002510
  20 C :   -0.113523
  21 H :    0.003173
  22 C :    0.114141
  23 C :   -0.001553
  24 H :    0.014398
  25 H :    0.017005
  26 C :    0.106677
  27 H :    0.013077
  28 H :    0.015680
  29 C :   -0.411557
  30 H :    0.009180
  31 H :   -0.002510
  32 C :   -0.041936
  33 H :    0.010881
  34 C :    0.120997
  35 H :    0.179058
  36 C :    0.070184
  37 H :    0.007485
  38 H :    0.015405
  39 C :   -0.039071
  40 H :    0.008826
  41 H :    0.001029
  42 H :   -0.007609
  43 C :   -0.042489
  44 C :    0.091351
  45 H :    0.019786
  46 H :    0.024274
  47 H :    0.018981
  48 H :    0.000548
  49 C :    0.050103
  50 C :   -0.033304
  51 C :   -0.057792
  52 H :    0.003004
  53 H :    0.009818
  54 C :   -0.079520
  55 C :    0.039121
  56 C :   -0.146279
  57 H :    0.005810
  58 H :    0.010398
  59 C :    0.013380
  60 C :    0.035533
  61 H :    0.020364
  62 H :    0.018492
  63 H :    0.020646
  64 H :    0.019338
  65 H :    0.017693
  66 H :    0.019277
  67 H :    0.013320
  68 H :    0.017577
  69 H :    0.016313
  70 H :    0.031190
  71 H :    0.013081
  72 H :    0.020058
Sum of atomic charges:    0.0000000

--------------------------------
MULLIKEN REDUCED ORBITAL CHARGES
--------------------------------
  0 C s       :     3.102440  s :     3.102440
      pz      :     1.015849  p :     3.028778
      px      :     1.003255
      py      :     1.009674
      dz2     :     0.004939  d :     0.043027
      dxz     :     0.006501
      dyz     :     0.005827
      dx2y2   :     0.014099
      dxy     :     0.011661

  1 C s       :     2.939727  s :     2.939727
      pz      :     0.989361  p :     2.883984
      px      :     0.930123
      py      :     0.964500
      dz2     :     0.007869  d :     0.034398
      dxz     :     0.006768
      dyz     :     0.003883
      dx2y2   :     0.009903
      dxy     :     0.005975

  2 C s       :     3.085266  s :     3.085266
      pz      :     0.738929  p :     2.775789
      px      :     1.044589
      py      :     0.992270
      dz2     :     0.022741  d :     0.070650
      dxz     :     0.011498
      dyz     :     0.017526
      dx2y2   :     0.011631
      dxy     :     0.007255

  3 H s       :     0.960015  s :     0.960015
      pz      :     0.004965  p :     0.022655
      px      :     0.003673
      py      :     0.014017

  4 H s       :     0.946008  s :     0.946008
      pz      :     0.014219  p :     0.023311
      px      :     0.004674
      py      :     0.004418

  5 C s       :     3.108993  s :     3.108993
      pz      :     0.976292  p :     3.016990
      px      :     0.986951
      py      :     1.053747
      dz2     :     0.009574  d :     0.044802
      dxz     :     0.005512
      dyz     :     0.008958
      dx2y2   :     0.011001
      dxy     :     0.009757

  6 C s       :     2.955037  s :     2.955037
      pz      :     1.002445  p :     2.913742
      px      :     0.945975
      py      :     0.965322
      dz2     :     0.008809  d :     0.035444
      dxz     :     0.006345
      dyz     :     0.004224
      dx2y2   :     0.008896
      dxy     :     0.007170

  7 C s       :     3.002475  s :     3.002475
      pz      :     0.985555  p :     2.938646
      px      :     0.981836
      py      :     0.971256
      dz2     :     0.007474  d :     0.034785
      dxz     :     0.006337
      dyz     :     0.004500
      dx2y2   :     0.008616
      dxy     :     0.007858

  8 H s       :     0.963501  s :     0.963501
      pz      :     0.005632  p :     0.022831
      px      :     0.003733
      py      :     0.013467

  9 H s       :     0.949248  s :     0.949248
      pz      :     0.014363  p :     0.023397
      px      :     0.004610
      py      :     0.004423

 10 H s       :     0.957333  s :     0.957333
      pz      :     0.013946  p :     0.022825
      px      :     0.004741
      py      :     0.004138

 11 H s       :     0.954801  s :     0.954801
      pz      :     0.008124  p :     0.022629
      px      :     0.007314
      py      :     0.007191

 12 O s       :     3.713424  s :     3.713424
      pz      :     1.411179  p :     4.633678
      px      :     1.338207
      py      :     1.884292
      dz2     :     0.005343  d :     0.012135
      dxz     :     0.001389
      dyz     :     0.001663
      dx2y2   :     0.003198
      dxy     :     0.000542

 13 H s       :     0.961520  s :     0.961520
      pz      :     0.001881  p :     0.020346
      px      :     0.014099
      py      :     0.004366

 14 C s       :     3.194289  s :     3.194289
      pz      :     0.992893  p :     2.777681
      px      :     0.872810
      py      :     0.911978
      dz2     :     0.003918  d :     0.036363
      dxz     :     0.007634
      dyz     :     0.003199
      dx2y2   :     0.011221
      dxy     :     0.010391

 15 C s       :     3.123983  s :     3.123983
      pz      :     1.007133  p :     2.896004
      px      :     0.982178
      py      :     0.906693
      dz2     :     0.005366  d :     0.026262
      dxz     :     0.004114
      dyz     :     0.004600
      dx2y2   :     0.006488
      dxy     :     0.005695

 16 H s       :     0.940181  s :     0.940181
      pz      :     0.006988  p :     0.024542
      px      :     0.008485
      py      :     0.009069

 17 H s       :     0.946026  s :     0.946026
      pz      :     0.004773  p :     0.024614
      px      :     0.004378
      py      :     0.015463

 18 C s       :     3.199945  s :     3.199945
      pz      :     1.030956  p :     2.827295
      px      :     0.882774
      py      :     0.913565
      dz2     :     0.003433  d :     0.035184
      dxz     :     0.006737
      dyz     :     0.003134
      dx2y2   :     0.012194
      dxy     :     0.009686

 19 H s       :     0.978195  s :     0.978195
      pz      :     0.004662  p :     0.024315
      px      :     0.004741
      py      :     0.014912

 20 C s       :     3.099817  s :     3.099817
      pz      :     0.957959  p :     2.969588
      px      :     0.984706
      py      :     1.026923
      dz2     :     0.004235  d :     0.044118
      dxz     :     0.007115
      dyz     :     0.006914
      dx2y2   :     0.014277
      dxy     :     0.011578

 21 H s       :     0.972237  s :     0.972237
      pz      :     0.004608  p :     0.024591
      px      :     0.004310
      py      :     0.015673

 22 C s       :     2.926038  s :     2.926038
      pz      :     1.001489  p :     2.924304
      px      :     0.975976
      py      :     0.946839
      dz2     :     0.009558  d :     0.035517
      dxz     :     0.004253
      dyz     :     0.005654
      dx2y2   :     0.009743
      dxy     :     0.006309

 23 C s       :     3.000776  s :     3.000776
      pz      :     1.012076  p :     2.964323
      px      :     0.964449
      py      :     0.987797
      dz2     :     0.009998  d :     0.036453
      dxz     :     0.007470
      dyz     :     0.002912
      dx2y2   :     0.010263
      dxy     :     0.005811

 24 H s       :     0.962406  s :     0.962406
      pz      :     0.004951  p :     0.023196
      px      :     0.013450
      py      :     0.004795

 25 H s       :     0.959726  s :     0.959726
      pz      :     0.013761  p :     0.023269
      px      :     0.004741
      py      :     0.004767

 26 C s       :     2.969302  s :     2.969302
      pz      :     0.969034  p :     2.888693
      px      :     0.975849
      py      :     0.943810
      dz2     :     0.007153  d :     0.035328
      dxz     :     0.006574
      dyz     :     0.005503
      dx2y2   :     0.008573
      dxy     :     0.007526

 27 H s       :     0.964066  s :     0.964066
      pz      :     0.013810  p :     0.022857
      px      :     0.004288
      py      :     0.004758

 28 H s       :     0.961678  s :     0.961678
      pz      :     0.004678  p :     0.022642
      px      :     0.003761
      py      :     0.014203

 29 C s       :     3.255634  s :     3.255634
      pz      :     1.047358  p :     3.104902
      px      :     1.000167
      py      :     1.057377
      dz2     :     0.011685  d :     0.051021
      dxz     :     0.010509
      dyz     :     0.009350
      dx2y2   :     0.010786
      dxy     :     0.008690

 30 H s       :     0.967775  s :     0.967775
      pz      :     0.008868  p :     0.023045
      px      :     0.007985
      py      :     0.006191

 31 H s       :     0.979973  s :     0.979973
      pz      :     0.013263  p :     0.022537
      px      :     0.004812
      py      :     0.004462

 32 C s       :     3.033832  s :     3.033832
      pz      :     0.989379  p :     2.964373
      px      :     0.945084
      py      :     1.029909
      dz2     :     0.008654  d :     0.043732
      dxz     :     0.007222
      dyz     :     0.007813
      dx2y2   :     0.011117
      dxy     :     0.008927

 33 H s       :     0.967841  s :     0.967841
      pz      :     0.012504  p :     0.021278
      px      :     0.004089
      py      :     0.004684

 34 C s       :     2.898375  s :     2.898375
      pz      :     0.988336  p :     2.945837
      px      :     0.978648
      py      :     0.978854
      dz2     :     0.005475  d :     0.034791
      dxz     :     0.005961
      dyz     :     0.008054
      dx2y2   :     0.008999
      dxy     :     0.006301

 35 H s       :     0.752153  s :     0.752153
[...]
 Total          139.599          174.079          192.325  iso=     168.668

 Orientation: 
  X           0.2488299   -0.4671949    0.8484177
  Y          -0.1412580   -0.8841084   -0.4454195
  Z           0.9581909   -0.0090121   -0.2859876

 --------------
 Nucleus  39C :
 --------------

Diamagnetic contribution to the shielding tensor (ppm) : 
           264.275          3.198        -5.962
             2.454        262.615         9.047
            -5.882          7.520       259.762

Paramagnetic contribution to the shielding tensor (ppm): 
           -99.489          1.341         8.940
             5.954       -127.466        -3.827
            13.798         -4.611      -129.385

Total shielding tensor (ppm): 
           164.786          4.539         2.978
             8.409        135.150         5.220
             7.916          2.909       130.377


 Diagonalized sT*s matrix:
 
 sDSO           254.213          268.484          263.955  iso=     262.217
 sPSO          -126.240         -133.319          -96.781  iso=    -118.780
        ---------------  ---------------  ---------------
 Total          127.973          135.165          167.174  iso=     143.437

 Orientation: 
  X          -0.0464829   -0.2583066   -0.9649441
  Y          -0.4617278    0.8621569   -0.2085493
  Z           0.8858029    0.4358476   -0.1593429

 --------------
 Nucleus  43C :
 --------------

Diamagnetic contribution to the shielding tensor (ppm) : 
           259.115         -1.198        -5.531
            -5.788        249.071        10.493
            -6.603         12.992       244.117

Paramagnetic contribution to the shielding tensor (ppm): 
           -93.976         -1.814         4.285
             9.520        -97.720        -7.884
             7.334        -10.934       -91.869

Total shielding tensor (ppm): 
           165.139         -3.012        -1.246
             3.731        151.351         2.609
             0.731          2.058       152.248


 Diagonalized sT*s matrix:
 
 sDSO           235.467          257.599          259.237  iso=     250.768
 sPSO           -86.056         -103.423          -94.087  iso=     -94.522
        ---------------  ---------------  ---------------
 Total          149.412          154.176          165.150  iso=     156.246

 Orientation: 
  X          -0.0215856    0.0060400   -0.9997488
  Y           0.7691881    0.6388952   -0.0127476
  Z          -0.6386577    0.7692700    0.0184368

 --------------
 Nucleus  44C :
 --------------

Diamagnetic contribution to the shielding tensor (ppm) : 
           250.338         -0.258         1.612
            -1.827        256.178         0.361
             0.261          4.516       271.719

Paramagnetic contribution to the shielding tensor (ppm): 
           -70.910         -3.854        -2.641
            -0.470        -76.832        -3.724
            -1.258         -8.278       -78.980

Total shielding tensor (ppm): 
           179.428         -4.112        -1.029
            -2.297        179.346        -3.363
            -0.997         -3.762       192.739


 Diagonalized sT*s matrix:
 
 sDSO           254.140          254.441          269.654  iso=     259.412
 sPSO           -78.587          -72.111          -76.024  iso=     -75.574
        ---------------  ---------------  ---------------
 Total          175.553          182.329          193.631  iso=     183.838

 Orientation: 
  X           0.6564885    0.7541683   -0.0159096
  Y           0.7298561   -0.6403720   -0.2392359
  Z           0.1906121   -0.1454439    0.9708311

 --------------
 Nucleus  49C :
 --------------

Diamagnetic contribution to the shielding tensor (ppm) : 
           243.480         -7.369        -2.450
           -21.672        257.555         7.033
            -7.087          6.878       242.214

Paramagnetic contribution to the shielding tensor (ppm): 
           -69.412          2.365        -4.078
            20.160        -70.303         1.043
             1.711         -1.658       -76.715

Total shielding tensor (ppm): 
           174.068         -5.004        -6.528
            -1.512        187.252         8.076
            -5.376          5.220       165.499


 Diagonalized sT*s matrix:
 
 sDSO           239.385          236.655          267.209  iso=     247.750
 sPSO           -77.774          -62.012          -76.644  iso=     -72.143
        ---------------  ---------------  ---------------
 Total          161.611          174.643          190.565  iso=     175.606

 Orientation: 
  X           0.3836444   -0.8782939    0.2853362
  Y          -0.1915259   -0.3779339   -0.9058056
  Z           0.9034018    0.2928580   -0.3132083

 --------------
 Nucleus  50C :
 --------------

Diamagnetic contribution to the shielding tensor (ppm) : 
           264.252         13.521         7.844
            12.003        263.252        -3.063
            18.216        -13.358       255.160

Paramagnetic contribution to the shielding tensor (ppm): 
          -186.002        -32.276       -84.597
           -35.019       -161.949        32.535
           -90.147         49.179      -261.164

Total shielding tensor (ppm): 
            78.249        -18.755       -76.753
           -23.016        101.303        29.473
           -71.931         35.820        -6.004


 Diagonalized sT*s matrix:
 
 sDSO           270.275          272.538          239.851  iso=     260.888
 sPSO          -318.102         -199.115          -91.899  iso=    -203.038
        ---------------  ---------------  ---------------
 Total          -47.827           73.423          147.952  iso=      57.849

 Orientation: 
  X          -0.5672651    0.4929338   -0.6597170
  Y          -0.0161119    0.7942831    0.6073341
  Z          -0.8233776   -0.3551488    0.4426270

 --------------
 Nucleus  51C :
 --------------

Diamagnetic contribution to the shielding tensor (ppm) : 
           264.705         12.403         9.036
            14.692        268.098       -11.580
             0.486         -6.462       271.881

Paramagnetic contribution to the shielding tensor (ppm): 
          -183.699        -31.889       -82.384
           -42.332       -155.882        39.002
           -72.399         34.312      -261.538

Total shielding tensor (ppm): 
            81.006        -19.486       -73.348
           -27.640        112.217        27.422
           -71.913         27.850        10.344


 Diagonalized sT*s matrix:
 
 sDSO           274.136          281.715          248.834  iso=     268.228
 sPSO          -309.784         -197.419          -93.915  iso=    -200.373
        ---------------  ---------------  ---------------
 Total          -35.648           84.296          154.919  iso=      67.856

 Orientation: 
  X           0.5378380   -0.5419412    0.6457786
  Y          -0.0356240   -0.7799299   -0.6248523
  Z           0.8422952    0.3130641   -0.4387821

 --------------
 Nucleus  54C :
 --------------

Diamagnetic contribution to the shielding tensor (ppm) : 
           254.417          1.270         1.102
             8.475        248.617        -0.437
             5.332         -2.174       242.951

Paramagnetic contribution to the shielding tensor (ppm): 
           -93.420          0.033        -4.895
            -5.584        -99.544         4.412
            -5.125          3.568       -86.534

Total shielding tensor (ppm): 
           160.997          1.304        -3.793
             2.891        149.073         3.975
             0.208          1.394       156.417


 Diagonalized sT*s matrix:
 
 sDSO           247.699          245.525          252.761  iso=     248.662
 sPSO           -99.996          -88.468          -91.034  iso=     -93.166
        ---------------  ---------------  ---------------
 Total          147.703          157.056          161.728  iso=     155.496

 Orientation: 
  X          -0.1889064    0.2262817   -0.9555684
  Y           0.9286101    0.3576375   -0.0988872
  Z          -0.3193707    0.9060309    0.2776875

 --------------
 Nucleus  55C :
 --------------

Diamagnetic contribution to the shielding tensor (ppm) : 
           238.088         -3.281         0.613
            23.368        260.121        -2.928
            10.039         -0.198       248.044

Paramagnetic contribution to the shielding tensor (ppm): 
           -63.218          3.283        -1.690
           -21.269        -66.096        14.164
            -6.352          7.573       -87.928

Total shielding tensor (ppm): 
           174.870          0.001        -1.077
             2.099        194.026        11.236
             3.687          7.375       160.116


 Diagonalized sT*s matrix:
 
 sDSO           249.262          237.062          259.930  iso=     248.751
 sPSO           -91.588          -62.217          -63.436  iso=     -72.414
        ---------------  ---------------  ---------------
 Total          157.673          174.845          196.494  iso=     176.337

 Orientation: 
  X          -0.0527129   -0.9964394   -0.0658012
  Y          -0.2513337    0.0770099   -0.9648320
  Z           0.9664640   -0.0343210   -0.2544982

 --------------
 Nucleus  56C :
 --------------

Diamagnetic contribution to the shielding tensor (ppm) : 
           247.970         -2.959        -6.018
            -7.719        234.856        -7.585
            -5.775         -7.671       248.571

Paramagnetic contribution to the shielding tensor (ppm): 
           -72.269          0.168         4.776
             5.842        -72.759         9.634
            -0.788         13.086       -91.225

Total shielding tensor (ppm): 
           175.701         -2.791        -1.243
            -1.877        162.097         2.049
            -6.562          5.415       157.345


 Diagonalized sT*s matrix:
 
 sDSO           251.234          228.855          251.308  iso=     243.799
 sPSO           -96.213          -65.860          -74.181  iso=     -78.751
        ---------------  ---------------  ---------------
 Total          155.021          162.995          177.127  iso=     165.048

 Orientation: 
  X           0.1120020    0.2789891   -0.9537403
  Y          -0.4278047    0.8798192    0.2071266
  Z           0.8969051    0.3848160    0.2178943

 --------------
 Nucleus  59C :
 --------------

Diamagnetic contribution to the shielding tensor (ppm) : 
           243.194          2.054        -1.803
             3.521        230.782        -9.126
           -16.929         -8.148       251.840

Paramagnetic contribution to the shielding tensor (ppm): 
           -68.416         -1.788         1.925
            -4.916        -51.061         3.370
            18.874         -3.959       -60.322

Total shielding tensor (ppm): 
           174.778          0.266         0.122
            -1.395        179.721        -5.756
             1.945        -12.107       191.519


 Diagonalized sT*s matrix:
 
 sDSO           243.859          228.840          253.118  iso=     241.939
 sPSO           -69.145          -53.922          -56.732  iso=     -59.933
        ---------------  ---------------  ---------------
 Total          174.714          174.918          196.386  iso=     182.006

 Orientation: 
  X           0.9951797   -0.0794859    0.0574398
  Y           0.0973472    0.8715706   -0.4805083
  Z          -0.0118692    0.4837837    0.8751071

 --------------
 Nucleus  60C :
 --------------

Diamagnetic contribution to the shielding tensor (ppm) : 
           248.780         -4.120        -1.743
           -21.594        240.375        -2.386
            -1.395         -6.742       232.335

Paramagnetic contribution to the shielding tensor (ppm): 
           -82.598         -6.652         0.562
             8.748        -53.136        -8.285
            -3.037          0.672       -61.085

Total shielding tensor (ppm): 
           166.182        -10.773        -1.181
           -12.846        187.240       -10.671
            -4.432         -6.070       171.249


 Diagonalized sT*s matrix:
 
 sDSO           232.086          238.667          250.737  iso=     240.497
 sPSO           -74.155          -66.362          -56.302  iso=     -65.606
        ---------------  ---------------  ---------------
 Total          157.931          172.304          194.435  iso=     174.890

 Orientation: 
  X           0.7782140   -0.5228661   -0.3478418
  Y           0.4462300    0.0706570    0.8921246
  Z           0.4418843    0.8494814   -0.2883048



--------------------------------
CHEMICAL SHIELDING SUMMARY (ppm)
--------------------------------


  Nucleus  Element    Isotropic     Anisotropy
  -------  -------  ------------   ------------
      0       C           61.433        151.841 
      1       C          154.554         12.165 
      2       C          132.345         50.851 
      5       C           50.799        177.604 
      6       C          167.957         31.821 
      7       C          164.891         17.308 
     14       C           71.799        133.283 
     15       C           83.789        119.421 
     18       C           80.230        133.992 
     20       C           52.130        175.798 
     22       C          169.095          7.227 
     23       C          174.148         13.186 
     26       C          158.739         23.952 
     29       C          154.326         16.800 
     32       C          142.722         28.375 
     34       C          174.867         23.865 
     36       C          168.668         35.487 
     39       C          143.437         35.605 
     43       C          156.246         13.356 
     44       C          183.838         14.690 
     49       C          175.606         22.438 
     50       C           57.849        135.154 
     51       C           67.856        130.595 
     54       C          155.496          9.348 
     55       C          176.337         30.234 
     56       C          165.048         18.119 
     59       C          182.006         21.570 
     60       C          174.890         29.317 


NMR shielding tensor and spin rotation calculation done in   1.0 sec 

Maximum memory used throughout the entire PROP-calculation: 51.8 MB

--------------------------------
SUGGESTED CITATIONS FOR THIS RUN
--------------------------------

Below you find a list of papers that are relevant to this ORCA run
We neither can nor want to force you to cite these papers, but we appreciate if you do
You receive ORCA, which is the product of decades of hard work by many enthusiastic individuals, for free
The only thing we kindly ask in return is that you cite our papers,
We deeply appreciate it, if you show your appreciation for ORCA by not just citing the generic ORCA reference.

Please note that relegating all ORCA citations to the supporting information does *not* help us.
SI sections are not indexed - citations you put there will not count into any citation statistics
But we need these citations in order to attract the funding resources that allow us to do what we are doing

Therefore, if you are a happy ORCA user, please consider citing a few of the papers listed below in the main body of your paper

In addition to the list printed below, the program has created the file inpS.bibtex that contains the list in bibtex format
You can import this file easily into all common literature databanks and citation aid programs


List of essential papers. We consider these as the minimum necessary citations

  1. Neese,F.
     Software update: the ORCA program system, version 5.0
     WIRES Comput. Molec. Sci., 2022 12(1)e1606
     doi.org/10.1002/wcms.1606

List of papers to cite with high priority. The work reported in these papers was absolutely
necessary for this run to complete.
Our perspective: the developers of density functionals and basis sets usually get cited in chemistry papers
Good! But without the algorithms to do something with them, the functionals or basis sets would not do anything.
Hence, in our opinion, the algorithm design and method developments papers are equally worthy of getting cited

  1. Neese,F.
     An improvement of the resolution of the identity approximation for the formation of the Coulomb matrix
     J. Comp. Chem., 2003 24(14)1740-1747
     doi.org/10.1002/jcc.10318
  2. Neese,F.; Wennmohs,F.; Hansen,A.; Becker,U.
     Efficient, approximate and parallel Hartree-Fock and hybrid DFT calculations. A 'chain-of-spheres' algorithm for the Hartree-Fock exchange
     Chem. Phys., 2009 356(1-3)98-109
     doi.org/10.1016/j.chemphys.2008.10.036
  3. Stoychev,G.L.; Auer,A.A.; Izsak,R.; Neese,F.
     Self-Consistent Field Calculation of Nuclear Magnetic Resonance Chemical Shielding Constants Using Gauge-Including Atomic Orbitals and Approximate Two-Electron Integrals
     J. Chem. Theory Comput., 2018 14(2)619-637
     doi.org/10.1021/acs.jctc.7b01006
  4. Garcia-Rates,M.; Neese,F.
     Effect of the Solute Cavity on the Solvation Energy and its Derivatives within the Framework of the Gaussian Charge Scheme
     J. Comput. Chem., 2020 41 922-939
     doi.org/10.1002/jcc.26139
  5. Helmich-Paris,B.; de Souza,B.; Neese,F.; Izsák,R.
     An improved chain of spheres for exchange algorithm
     J. Chem. Phys., 2021 155 104109
     doi.org/doi: 10.1063/5.0058766.
  6. Neese,F.
     The SHARK Integral Generation and Digestion System
     J. Comp. Chem., 2022  1-16
     doi.org/10.1002/jcc.26942
  7. Caldeweyher,E.; Bannwarth,C.; Grimme,S.
     Extension of the D3 dispersion coefficient model
     J. Chem. Phys., 2017 147 034112-XXXX
     doi.org/10.1063/1.4993215
  8. Caldeweyher,E.; Ehlert,S.; Hansen,A.; Neugebauer,H.; Spicher,S.; Bannwarth,C.; Grimme,S.
     A generally applicable atomic-charge dependent London dispersion correction
     J. Chem. Phys., 2019 150 154122-XXXX
     doi.org/10.1063/1.5090222
  9. Caldeweyher,E.; Mewes,J.; Ehlert,S.; Grimme,S.
     Extension and evaluation of the D4 London-dispersion model for periodic systems
     Phys. Chem. Chem. Phys., 2020 22(16)8499-8512
     doi.org/10.1039/D0CP00502A

List of suggested additional citations. These are papers that are important in the 'surrounding' of 
of this run, or papers that preceded the highly important papers. If you like your results we are grateful for a citation.

  1. Izsak,R.; Neese,F.
     An overlap fitted chain of spheres exchange method
     J. Chem. Phys., 2011 135 144105
     doi.org/10.1063/1.3646921
  2. Izsak,R.; Hansen,A.; Neese,F.
     The resolution of identity and chain of spheres approximations for the LPNO-CCSD singles Fock term
     Molec. Phys., 2012 110 2413-2417
     doi.org/10.1080/00268976.2012.687466
  3. Neese,F.
     The ORCA program system
     WIRES Comput. Molec. Sci., 2012 2(1)73-78
     doi.org/10.1002/wcms.81
  4. Izsak,R.; Neese,F.; Klopper,W.
     Robust fitting techniques in the chain of spheres approximation to the Fock exchange: The role of the complementary space
     J. Chem. Phys., 2013 139 
     doi.org/10.1063/1.4819264
  5. Neese,F.
     Software update: the ORCA program system, version 4.0
     WIRES Comput. Molec. Sci., 2018 8(1)1-6
     doi.org/10.1002/wcms.1327
  6. Neese,F.; Wennmohs,F.; Becker,U.; Riplinger,C.
     The ORCA quantum chemistry program package
     J. Chem. Phys., 2020 152 Art. No. L224108
     doi.org/10.1063/5.0004608

Timings for individual modules:

Sum of individual times          ...      177.350 sec (=   2.956 min)
Startup calculation              ...        4.883 sec (=   0.081 min)   2.8 %
SCF iterations                   ...       71.309 sec (=   1.188 min)  40.2 %
Property integrals               ...       60.959 sec (=   1.016 min)  34.4 %
SCF Response                     ...       38.861 sec (=   0.648 min)  21.9 %
Property calculations            ...        1.338 sec (=   0.022 min)   0.8 %
                             ****ORCA TERMINATED NORMALLY****
TOTAL RUN TIME: 0 days 0 hours 2 minutes 57 seconds 644 msec
