
                                 *****************
                                 * O   R   C   A *
                                 *****************

                                            #,                                       
                                            ###                                      
                                            ####                                     
                                            #####                                    
                                            ######                                   
                                           ########,                                 
                                     ,,################,,,,,                         
                               ,,#################################,,                 
                          ,,##########################################,,             
                       ,#########################################, ''#####,          
                    ,#############################################,,   '####,        
                  ,##################################################,,,,####,       
                ,###########''''           ''''###############################       
              ,#####''   ,,,,##########,,,,          '''####'''          '####       
            ,##' ,,,,###########################,,,                        '##       
           ' ,,###''''                  '''############,,,                           
         ,,##''                                '''############,,,,        ,,,,,,###''
      ,#''                                            '''#######################'''  
     '                                                          ''''####''''         
             ,#######,   #######,   ,#######,      ##                                
            ,#'     '#,  ##    ##  ,#'     '#,    #''#        ,####,   ,####,        
            ##       ##  ##   ,#'  ##            #'  '#       #'       #'  '#        
            ##       ##  #######   ##           ,######,      #####,   #    #        
            '#,     ,#'  ##    ##  '#,     ,#' ,#      #,     #,   #   #,  ,#        
             '#######'   ##     ##  '#######'  #'      '#     '####' # '####'        



                #########################################################
                #                        -***-                          #
                #          Department of theory and spectroscopy        #
                #                                                       #
                #                      Frank Neese                      #
                #                                                       #
                #     Directorship, Architecture, Infrastructure        #
                #                    SHARK, DRIVERS                     #
                #        Core code/Algorithms in most modules           #
                #                                                       #
                #        Max Planck Institute fuer Kohlenforschung      #
                #                Kaiser Wilhelm Platz 1                 #
                #                 D-45470 Muelheim/Ruhr                 #
                #                      Germany                          #
                #                                                       #
                #                  All rights reserved                  #
                #                        -***-                          #
                #########################################################


                         Program Version 6.0.0  -   RELEASE  -


 With contributions from (in alphabetic order):
   Daniel Aravena         : Magnetic Suceptibility
   Michael Atanasov       : Ab Initio Ligand Field Theory (pilot matlab implementation)
   Alexander A. Auer      : GIAO ZORA, VPT2 properties, NMR spectrum
   Ute Becker             : All parallelization in ORCA, NUMFREQ, NUMCALC
   Giovanni Bistoni       : ED, misc. LED, open-shell LED, HFLD
   Martin Brehm           : Molecular dynamics
   Dmytro Bykov           : pre 5.0 version of the SCF Hessian
   Marcos Casanova-Páez   : Triplet and SCS-CIS(D). UHF-(DLPNO)-IP/EA/STEOM-CCSD. UHF-CVS-IP/STEOM-CCSD
   Vijay G. Chilkuri      : MRCI spin determinant printing, contributions to CSF-ICE
   Pauline Colinet        : FMM embedding
   Dipayan Datta          : RHF DLPNO-CCSD density
   Achintya Kumar Dutta   : EOM-CC, STEOM-CC
   Nicolas Foglia         : Exact transition moments, OPA infrastructure, MCD improvements
   Dmitry Ganyushin       : Spin-Orbit,Spin-Spin,Magnetic field MRCI
   Miquel Garcia          : C-PCM and meta-GGA Hessian, CCSD/C-PCM, Gaussian charge scheme
   Tiago L. C. Gouveia    : GS-ROHF, GS-ROCIS
   Yang Guo               : DLPNO-NEVPT2, F12-NEVPT2, CIM, IAO-localization
   Andreas Hansen         : Spin unrestricted coupled pair/coupled cluster methods
   Ingolf Harden          : AUTO-CI MPn and infrastructure 
   Benjamin Helmich-Paris : MC-RPA, TRAH-(SCF,CASSCF), AVAS, COSX integrals, SCF dyn. polar.
   Lee Huntington         : MR-EOM, pCC
   Robert Izsak           : Overlap fitted RIJCOSX, COSX-SCS-MP3, EOM
   Riya Kayal             : Wick's Theorem for AUTO-CI, AUTO-CI UHF-CCSDT
   Emily Kempfer          : AUTO-CI, RHF CISDT and CCSDT
   Christian Kollmar      : KDIIS, OOCD, Brueckner-CCSD(T), CCSD density, CASPT2, CASPT2-K, improved NEVPT2
   Axel Koslowski         : Symmetry handling
   Simone Kossmann        : Meta GGA functionals, TD-DFT gradient, OOMP2, (MP2 Hessian; deprecated post 5.0)
   Lucas Lang             : DCDCAS
   Marvin Lechner         : AUTO-CI (C++ implementation), FIC-MRCC
   Spencer Leger          : CASSCF response
   Dagmar Lenk            : GEPOL surface, SMD, ORCA-2-JSON
   Dimitrios Liakos       : Extrapolation schemes; Compound Job, initial MDCI parallelization
   Dimitrios Manganas     : Further ROCIS development; embedding schemes. LFT, Crystal Embedding
   Dimitrios Pantazis     : SARC Basis sets
   Anastasios Papadopoulos: AUTO-CI, single reference methods and gradients
   Taras Petrenko         : pre 6.0 DFT Hessian and TD-DFT gradient, (ASA, deprecated), ECA, 1-Electron XAS/XES, NRVS
   Peter Pinski           : DLPNO-MP2, DLPNO-MP2 Gradient
   Christoph Reimann      : Effective Core Potentials
   Marius Retegan         : Local ZFS, SOC
   Christoph Riplinger    : Optimizer, TS searches, QM/MM, DLPNO-CCSD(T), (RO)-DLPNO pert. Triples
   Michael Roemelt        : Original ROCIS implementation
   Masaaki Saitow         : Open-shell DLPNO-CCSD energy and density
   Barbara Sandhoefer     : DKH picture change effects
   Kantharuban Sivalingam : CASSCF convergence/infrastructure, NEVPT2 and variants, FIC-MRCI
   Bernardo de Souza      : ESD, SOC TD-DFT
   Georgi Stoychev        : AutoAux, RI-MP2 NMR, DLPNO-MP2 response, X2C
   Van Anh Tran           : RI-MP2 g-tensors
   Willem Van den Heuvel  : Paramagnetic NMR
   Zikuan Wang            : NOTCH, Electric field optimization 
   Frank Wennmohs         : Technical directorship and infrastructure
   Hang Xu                : AUTO-CI-Response properties 


 We gratefully acknowledge several colleagues who have allowed us to
 interface, adapt or use parts of their codes:
   Stefan Grimme, W. Hujo, H. Kruse, P. Pracht,  : VdW corrections, initial TS optimization,
                  C. Bannwarth, S. Ehlert,         DFT functionals, gCP, sTDA/sTD-DF
                  L. Wittmann, M. Mueller
   Ed Valeev, F. Pavosevic, A. Kumar             : LibInt (2-el integral package), F12 methods
   Garnet Chan, S. Sharma, J. Yang, R. Olivares  : DMRG
   Ulf Ekstrom                                   : XCFun DFT Library
   Mihaly Kallay                                 : mrcc  (arbitrary order and MRCC methods)
   Frank Weinhold                                : gennbo (NPA and NBO analysis)
   Simon Mueller                                 : openCOSMO-RS
   Christopher J. Cramer and Donald G. Truhlar   : smd solvation model
   Lars Goerigk                                  : TD-DFT with DH, B97 family of functionals
   V. Asgeirsson, H. Jonsson                     : NEB implementation
   FAccTs GmbH                                   : IRC, NEB, NEB-TS, DLPNO-Multilevel, CI-OPT
                                                   MM, QMMM, 2- and 3-layer-ONIOM, Crystal-QMMM,
                                                   LR-CPCM, SF, NACMEs, symmetry and pop. for TD-DFT,
                                                   nearIR, NL-DFT gradient (VV10), updates on ESD,
                                                   ML-optimized integration grids, MBIS, APM,
                                                   GOAT, DOCKER, SOLVATOR, interface openCOSMO-RS
   S Lehtola, MJT Oliveira, MAL Marques          : LibXC Library
   Liviu Ungur et al                             : ANISO software


 Your calculation uses the libint2 library for the computation of 2-el integrals
 For citations please refer to: http://libint.valeyev.net

 Your ORCA version has been built with support for libXC version: 6.2.2
 For citations please refer to: https://libxc.gitlab.io

 This ORCA versions uses:
   CBLAS   interface :  Fast vector & matrix operations
   LAPACKE interface :  Fast linear algebra routines
   SCALAPACK package :  Parallel linear algebra routines
   Shared memory     :  Shared parallel matrices
   BLAS/LAPACK       :  OpenBLAS 0.3.27  USE64BITINT DYNAMIC_ARCH NO_AFFINITY Zen SINGLE_THREADED
        Core in use  :  Zen
   Copyright (c) 2011-2014, The OpenBLAS Project


NOTE: MaxCore=8000 MB was set to SCF,MP2,MDCI,CIPSI,MRCI and CIS
      => If you want to overwrite this, your respective input block should be placed after the MaxCore statement
Your calculation utilizes the atom-pairwise dispersion correction
based on EEQ partial charges (D4)


================================================================================

----- Orbital basis set information -----
Your calculation utilizes the basis: pcJ-0
   F. Jensen, Theor. Chem. Acc. 126, 371 (2010).

----- AuxJ basis set information -----
Your calculation utilizes the auxiliary basis: def2/J
   F. Weigend, Phys. Chem. Chem. Phys. 8, 1057 (2006).

================================================================================
                                        WARNINGS
                       Please study these warnings very carefully!
================================================================================

WARNING: Old DensityContainer found on disk!
         Will remove this file - 
         If you want to keep old densities, please start your calculation with a different basename. 


================================================================================
                                       INPUT FILE
================================================================================
NAME = inpJ
|  1> ! pbe0
|  2> ! D4
|  3> ! pcJ-0
|  4> ! def2/J RIJCOSX
|  5> ! DEFGRID2
|  6> ! scfconv7
|  7> ! smallprint printgap noloewdin
|  8> ! NOSOSCF
|  9> %MaxCore 8000
| 10> %output
| 11>        print[P_BondOrder_M] 1
| 12>        print[P_Mayer] 1
| 13>        print[P_basis] 2
| 14> end
| 15> %pal
| 16>     nprocs 4
| 17> end
| 18> ! CPCM(chloroform)
| 19> *xyz 0 1
| 20> C   -5.0486647100   0.1934272600  -0.4613964200
| 21> C   -6.4926790600  -0.2252913100  -0.6055016100
| 22> C   -7.3983220400   0.6721027700   0.2475984500
| 23> H   -6.6233371600  -1.2740653300  -0.3155623600
| 24> H   -6.8084874900  -0.1217409200  -1.6541892300
| 25> C   -4.8075709300   1.6250848000  -0.7472037200
| 26> C   -5.7393510400   2.5725042100  -0.0240590000
| 27> C   -7.2070435500   2.1383125000  -0.1439713000
| 28> H   -5.6078017000   3.5929153700  -0.3995082100
| 29> H   -5.4612822200   2.5837882500   1.0408177000
| 30> H   -7.5444650900   2.2653383200  -1.1816536900
| 31> H   -7.8395583200   2.7716572900   0.4887518400
| 32> O   -7.1504962900   0.4595134400   1.6473888700
| 33> H   -8.4462758900   0.3860094400   0.0944417400
| 34> C   -4.1039351200  -0.6795365200  -0.0372459900
| 35> C   -3.8726107500   2.0528233400  -1.6026538900
| 36> H   -3.2240031300   1.3554882300  -2.1261612700
| 37> H   -3.7430451500   3.1134604400  -1.8048545600
| 38> C   -2.7203267500  -0.3696325800   0.2395257100
| 39> H   -4.4367892400  -1.7017131500   0.1392668300
| 40> C   -1.7507215600  -1.2498201800   0.5676081100
| 41> H   -2.4509692400   0.6827635500   0.1854151200
| 42> C   -1.9155058100  -2.7449292800   0.6670813300
| 43> C   -0.9017453400  -3.4867335500  -0.2258833600
| 44> H   -2.9300582600  -3.0692737400   0.4202344500
| 45> H   -1.7282543100  -3.0370525800   1.7126220700
| 46> C    0.5414631600  -3.0157928800   0.0003176900
| 47> H   -1.1793395700  -3.3418414600  -1.2775845600
| 48> H   -0.9715750800  -4.5638708300  -0.0307243800
| 49> C    0.6757815100  -1.4941247200  -0.1459142200
| 50> H    1.2001221800  -3.5426630500  -0.6980267200
| 51> H    0.8589560400  -3.2973416800   1.0156941400
| 52> C   -0.3378815400  -0.8363157000   0.8447820700
| 53> H   -0.0756472100  -1.2626174900   1.8304119500
| 54> C    0.0651137400   0.6354765400   0.8683617700
| 55> H   -6.1925668700   0.3934242000   1.7685762400
| 56> C    1.6078532400   0.5926223200   0.7420751300
| 57> H   -0.2747395000   1.1404652800   1.7786202300
| 58> H   -0.3722353200   1.1723092300   0.0191524200
| 59> C    1.9981942500  -0.8719350300   0.3808710000
| 60> H    2.1039697400   0.9054996700   1.6661570700
| 61> H    1.9556866100   1.2766812400  -0.0409241200
| 62> H    2.2461507700  -1.4085609900   1.3114400300
| 63> C    3.2522700600  -0.9175009600  -0.5152360500
| 64> C    0.4015745200  -1.0514967000  -1.5895802700
| 65> H    0.6062784900   0.0146973000  -1.7295027900
| 66> H   -0.6419245300  -1.2230768500  -1.8713856100
| 67> H    1.0354845000  -1.6059155300  -2.2904289100
| 68> H    3.0334886300  -0.3722946400  -1.4452159500
| 69> C    3.6984956100  -2.3435494900  -0.8731167200
| 70> C    4.3853768100  -0.2099226900   0.1786500100
| 71> C    5.0517143100   0.8380700700  -0.3033953800
| 72> H    4.6749591400  -0.6215369800   1.1509401000
| 73> H    4.7523041600   1.2468711800  -1.2722046800
| 74> C    6.1860795600   1.5381146900   0.3909889500
| 75> C    5.8738203000   3.0347067400   0.5345674900
| 76> C    7.5548905600   1.2982733000  -0.3029214600
| 77> H    6.2743607400   1.1123730400   1.4018598300
| 78> H    8.2859567600   1.9060703000   0.2524230900
| 79> C    7.5839400000   1.7473295600  -1.7660993100
| 80> C    7.9762701600  -0.1674601600  -0.1891964400
| 81> H    5.6890875500   3.4996569300  -0.4400775000
| 82> H    6.7066861400   3.5640958600   1.0118077200
| 83> H    4.9769355300   3.1824616300   1.1455767300
| 84> H    7.2863976500   2.7942784400  -1.8840089900
| 85> H    6.9145180200   1.1318878600  -2.3783676400
| 86> H    8.5949143800   1.6409706200  -2.1746679200
| 87> H    7.9896967500  -0.4974434900   0.8560639700
| 88> H    8.9774081200  -0.3200212200  -0.6078348200
| 89> H    7.2784831800  -0.8131555600  -0.7354684800
| 90> H    2.9786909000  -2.8435806200  -1.5261808000
| 91> H    3.8184537500  -2.9520567500   0.0316672800
| 92> H    4.6621464500  -2.3176586100  -1.3931688900
| 93> *
| 94> %eprnmr
| 95>  Nuclei = all C { ssfc }
| 96>  SpinSpinRThresh 8.0
| 97> end
| 98> 
| 99>                          ****END OF INPUT****
================================================================================

                       ****************************
                       * Single Point Calculation *
                       ****************************

---------------------------------
CARTESIAN COORDINATES (ANGSTROEM)
---------------------------------
  C     -5.048665    0.193427   -0.461396
  C     -6.492679   -0.225291   -0.605502
  C     -7.398322    0.672103    0.247598
  H     -6.623337   -1.274065   -0.315562
  H     -6.808487   -0.121741   -1.654189
  C     -4.807571    1.625085   -0.747204
  C     -5.739351    2.572504   -0.024059
  C     -7.207044    2.138313   -0.143971
  H     -5.607802    3.592915   -0.399508
  H     -5.461282    2.583788    1.040818
  H     -7.544465    2.265338   -1.181654
  H     -7.839558    2.771657    0.488752
  O     -7.150496    0.459513    1.647389
  H     -8.446276    0.386009    0.094442
  C     -4.103935   -0.679537   -0.037246
  C     -3.872611    2.052823   -1.602654
  H     -3.224003    1.355488   -2.126161
  H     -3.743045    3.113460   -1.804855
  C     -2.720327   -0.369633    0.239526
  H     -4.436789   -1.701713    0.139267
  C     -1.750722   -1.249820    0.567608
  H     -2.450969    0.682764    0.185415
  C     -1.915506   -2.744929    0.667081
  C     -0.901745   -3.486734   -0.225883
  H     -2.930058   -3.069274    0.420234
  H     -1.728254   -3.037053    1.712622
  C      0.541463   -3.015793    0.000318
  H     -1.179340   -3.341841   -1.277585
  H     -0.971575   -4.563871   -0.030724
  C      0.675782   -1.494125   -0.145914
  H      1.200122   -3.542663   -0.698027
  H      0.858956   -3.297342    1.015694
  C     -0.337882   -0.836316    0.844782
  H     -0.075647   -1.262617    1.830412
  C      0.065114    0.635477    0.868362
  H     -6.192567    0.393424    1.768576
  C      1.607853    0.592622    0.742075
  H     -0.274740    1.140465    1.778620
  H     -0.372235    1.172309    0.019152
  C      1.998194   -0.871935    0.380871
  H      2.103970    0.905500    1.666157
  H      1.955687    1.276681   -0.040924
  H      2.246151   -1.408561    1.311440
  C      3.252270   -0.917501   -0.515236
  C      0.401575   -1.051497   -1.589580
  H      0.606278    0.014697   -1.729503
  H     -0.641925   -1.223077   -1.871386
  H      1.035484   -1.605916   -2.290429
  H      3.033489   -0.372295   -1.445216
  C      3.698496   -2.343549   -0.873117
  C      4.385377   -0.209923    0.178650
  C      5.051714    0.838070   -0.303395
  H      4.674959   -0.621537    1.150940
  H      4.752304    1.246871   -1.272205
  C      6.186080    1.538115    0.390989
  C      5.873820    3.034707    0.534567
  C      7.554891    1.298273   -0.302921
  H      6.274361    1.112373    1.401860
  H      8.285957    1.906070    0.252423
  C      7.583940    1.747330   -1.766099
  C      7.976270   -0.167460   -0.189196
  H      5.689088    3.499657   -0.440078
  H      6.706686    3.564096    1.011808
  H      4.976936    3.182462    1.145577
  H      7.286398    2.794278   -1.884009
  H      6.914518    1.131888   -2.378368
  H      8.594914    1.640971   -2.174668
  H      7.989697   -0.497443    0.856064
  H      8.977408   -0.320021   -0.607835
  H      7.278483   -0.813156   -0.735468
  H      2.978691   -2.843581   -1.526181
  H      3.818454   -2.952057    0.031667
  H      4.662146   -2.317659   -1.393169

----------------------------
CARTESIAN COORDINATES (A.U.)
----------------------------
  NO LB      ZA    FRAG     MASS         X           Y           Z
   0 C     6.0000    0    12.011   -9.540594    0.365525   -0.871913
   1 C     6.0000    0    12.011  -12.269385   -0.425739   -1.144232
   2 C     6.0000    0    12.011  -13.980803    1.270090    0.467893
   3 H     1.0000    0     1.008  -12.516293   -2.407635   -0.596326
   4 H     1.0000    0     1.008  -12.866177   -0.230057   -3.125965
   5 C     6.0000    0    12.011   -9.084992    3.070965   -1.412010
   6 C     6.0000    0    12.011  -10.845802    4.861328   -0.045465
   7 C     6.0000    0    12.011  -13.619339    4.040825   -0.272066
   8 H     1.0000    0     1.008  -10.597209    6.789626   -0.754961
   9 H     1.0000    0     1.008  -10.320328    4.882652    1.966860
  10 H     1.0000    0     1.008  -14.256973    4.280869   -2.233002
  11 H     1.0000    0     1.008  -14.814618    5.237673    0.923607
  12 O     8.0000    0    15.999  -13.512480    0.868355    3.113114
  13 H     1.0000    0     1.008  -15.961148    0.729452    0.178469
  14 C     6.0000    0    12.011   -7.755313   -1.284138   -0.070385
  15 C     6.0000    0    12.011   -7.318174    3.879274   -3.028577
  16 H     1.0000    0     1.008   -6.092483    2.561502   -4.017863
  17 H     1.0000    0     1.008   -7.073330    5.883588   -3.410681
  18 C     6.0000    0    12.011   -5.140673   -0.698504    0.452638
  19 H     1.0000    0     1.008   -8.384317   -3.215772    0.263176
  20 C     6.0000    0    12.011   -3.308384   -2.361818    1.072624
  21 H     1.0000    0     1.008   -4.631661    1.290236    0.350384
  22 C     6.0000    0    12.011   -3.619781   -5.187165    1.260601
  23 C     6.0000    0    12.011   -1.704052   -6.588972   -0.426858
  24 H     1.0000    0     1.008   -5.537008   -5.800087    0.794128
  25 H     1.0000    0     1.008   -3.265927   -5.739198    3.236387
  26 C     6.0000    0    12.011    1.023217   -5.699023    0.000600
  27 H     1.0000    0     1.008   -2.228629   -6.315165   -2.414285
  28 H     1.0000    0     1.008   -1.836011   -8.624466   -0.058061
  29 C     6.0000    0    12.011    1.277042   -2.823487   -0.275738
  30 H     1.0000    0     1.008    2.267902   -6.694663   -1.319079
  31 H     1.0000    0     1.008    1.623192   -6.231073    1.919384
  32 C     6.0000    0    12.011   -0.638504   -1.580408    1.596407
  33 H     1.0000    0     1.008   -0.142953   -2.386001    3.458977
  34 C     6.0000    0    12.011    0.123047    1.200877    1.640966
  35 H     1.0000    0     1.008  -11.702255    0.743464    3.342125
  36 C     6.0000    0    12.011    3.038402    1.119894    1.402319
  37 H     1.0000    0     1.008   -0.519182    2.155167    3.361105
  38 H     1.0000    0     1.008   -0.703423    2.215343    0.036193
  39 C     6.0000    0    12.011    3.776040   -1.647718    0.719742
  40 H     1.0000    0     1.008    3.975927    1.711146    3.148581
  41 H     1.0000    0     1.008    3.695712    2.412578   -0.077335
  42 H     1.0000    0     1.008    4.244610   -2.661795    2.478262
  43 C     6.0000    0    12.011    6.145900   -1.733826   -0.973655
  44 C     6.0000    0    12.011    0.758866   -1.987041   -3.003871
  45 H     1.0000    0     1.008    1.145700    0.027774   -3.268287
  46 H     1.0000    0     1.008   -1.213062   -2.311280   -3.536406
  47 H     1.0000    0     1.008    1.956782   -3.034741   -4.328283
  48 H     1.0000    0     1.008    5.732463   -0.703535   -2.731062
  49 C     6.0000    0    12.011    6.989144   -4.428667   -1.649951
  50 C     6.0000    0    12.011    8.287161   -0.396696    0.337600
  51 C     6.0000    0    12.011    9.546357    1.583723   -0.573334
  52 H     1.0000    0     1.008    8.834392   -1.174535    2.174962
  53 H     1.0000    0     1.008    8.980553    2.356245   -2.404118
  54 C     6.0000    0    12.011   11.689996    2.906616    0.738862
  55 C     6.0000    0    12.011   11.099912    5.734765    1.010186
  56 C     6.0000    0    12.011   14.276674    2.453381   -0.572439
  57 H     1.0000    0     1.008   11.856823    2.102080    2.649131
  58 H     1.0000    0     1.008   15.658189    3.601951    0.477011
  59 C     6.0000    0    12.011   14.331570    3.301974   -3.337444
  60 C     6.0000    0    12.011   15.072966   -0.316454   -0.357529
  61 H     1.0000    0     1.008   10.750817    6.613393   -0.831626
  62 H     1.0000    0     1.008   12.673800    6.735165    1.912039
  63 H     1.0000    0     1.008    9.405045    6.013981    2.164826
  64 H     1.0000    0     1.008   13.769296    5.280421   -3.560261
  65 H     1.0000    0     1.008   13.066545    2.138958   -4.494463
  66 H     1.0000    0     1.008   16.242034    3.100985   -4.109527
  67 H     1.0000    0     1.008   15.098339   -0.940032    1.617726
  68 H     1.0000    0     1.008   16.964843   -0.604752   -1.148641
  69 H     1.0000    0     1.008   13.754340   -1.536641   -1.389834
  70 H     1.0000    0     1.008    5.628910   -5.373589   -2.884064
  71 H     1.0000    0     1.008    7.215832   -5.578579    0.059842
  72 H     1.0000    0     1.008    8.810180   -4.379740   -2.632708

--------------------------------
INTERNAL COORDINATES (ANGSTROEM)
--------------------------------
 C      0   0   0     0.000000000000     0.00000000     0.00000000
 C      1   0   0     1.510387033066     0.00000000     0.00000000
 C      2   1   0     1.534042064095   110.43771341     0.00000000
 H      2   1   3     1.095930313849   110.73449473   237.88178816
 H      2   1   3     1.100092437966   109.83517186   118.75721209
 C      1   2   3     1.479680822112   113.92723064   306.04666514
 C      6   1   2     1.512863509343   114.40833843    49.80310854
 C      3   2   1     1.529602988425   110.15463179    56.83842159
 H      7   6   1     1.095219737585   110.22016986   188.81233925
 H      7   6   1     1.100641623971   108.25710871    72.13781292
 H      8   3   2     1.098532474312   108.31518154    64.43379918
 H      8   3   2     1.096147403035   109.50690684   181.42503657
 O      3   2   1     1.437367401021   110.68715456   292.82832483
 H      3   2   1     1.097047694049   109.49661395   177.30447761
 C      1   2   3     1.354431004770   121.20208187   122.76522007
 C      6   1   2     1.337499828090   123.15207984   231.71352455
 H     16   6   1     1.086751157016   121.33891279   359.03899679
 H     16   6   1     1.087484902676   120.93835463   178.43204050
 C     15   1   2     1.444650527803   126.14079139   185.23358799
 H     15   1   2     1.089400616735   116.25559032     3.13802155
 C     19  15   1     1.350000924762   126.48222062   185.21138920
 H     19  15   1     1.087666786559   115.79889852     5.96286338
 C     21  19  15     1.507448172060   125.74497698     2.07690917
 C     23  21  19     1.541223476045   111.54514235   124.80511812
 H     23  21  19     1.093366079911   112.38047022     1.15424631
 H     23  21  19     1.101614535877   107.88182747   243.36693781
 C     24  23  21     1.534862470762   112.66970926    51.10375346
 H     24  23  21     1.097327521005   108.98662778   288.97825585
 H     24  23  21     1.096899238777   109.12799896   173.04580547
 C     27  24  23     1.534568075977   111.87037355   306.39060969
 H     27  24  23     1.095038262181   108.90262064   182.90879959
 H     27  24  23     1.100482072024   109.19317362    66.43605984
 C     21  19  15     1.497974726488   122.84695246   180.28289015
 H     33  21  19     1.105425854744   106.39564214   127.03248062
 C     33  21  19     1.526149925688   121.20635996     4.46020127
 H     13   3   2     0.967823816608   107.61962006    42.09990986
 C     35  33  21     1.548492804140   103.59927710   196.97531470
 H     35  33  21     1.095027084718   112.06322733    74.91972183
 H     35  33  21     1.095728094676   110.80023867   315.32853787
 C     30  27  24     1.553511549126   116.06136847   166.20248859
 H     37  35  33     1.094509593174   112.01359616   249.17990639
 H     37  35  33     1.096363299649   110.91972238   130.57207579
 H     40  30  27     1.102455702671   106.42329029   320.78711526
 C     40  30  27     1.542008507196   118.90772461    81.58267688
 C     30  27  24     1.534692380048   111.09966412   294.00623720
 H     45  30  27     1.094646825498   111.57682087   186.51164135
 H     45  30  27     1.094415033192   111.55315097    66.45503845
 H     45  30  27     1.095632656501   110.63495759   306.31240699
 H     44  40  30     1.099989936265   108.35544511    60.45443125
 C     44  40  30     1.536492832833   113.51395280   299.58805605
 C     44  40  30     1.505349055646   109.29356462   177.72741941
 C     51  44  40     1.332164496952   125.41434682   238.46064681
 H     51  44  40     1.094820655949   115.57771656    59.46654852
 H     52  51  44     1.093323486086   118.54240100     1.40497852
 C     52  51  44     1.503002524332   125.22197355   180.24514560
 C     55  52  51     1.535548243048   110.10053763   235.64129095
 C     55  52  51     1.553280110986   112.75485015   110.01885740
 H     55  52  51     1.100413311133   107.74328819   353.08594905
 H     57  55  52     1.101037034439   105.93577755   176.49084848
 C     57  55  52     1.530811815783   113.47997625    58.27675755
 C     57  55  52     1.529336039997   110.95141403   293.42679964
 H     56  55  52     1.095553615592   111.39136418   302.20057757
 H     56  55  52     1.096210100731   110.90873553   181.76331519
 H     56  55  52     1.095247044982   110.49770032    61.64158343
 H     60  57  55     1.094776735236   112.22939714    54.76869587
 H     60  57  55     1.096251240057   110.95050702   293.70727954
 H     60  57  55     1.095586477742   110.21104257   174.75560147
 H     61  57  55     1.096192773243   111.27161340   304.94145668
 H     61  57  55     1.095814849868   110.90062581   184.53547059
 H     61  57  55     1.096468130282   110.60975643    64.72727829
 H     50  44  40     1.092997092445   111.87071050    67.65882155
 H     50  44  40     1.096952655077   110.76240501   306.95193218
 H     50  44  40     1.095329876622   110.13019540   187.58675469

---------------------------
INTERNAL COORDINATES (A.U.)
---------------------------
 C      0   0   0     0.000000000000     0.00000000     0.00000000
 C      1   0   0     2.854217848720     0.00000000     0.00000000
 C      2   1   0     2.898919379056   110.43771341     0.00000000
 H      2   1   3     2.071008155037   110.73449473   237.88178816
 H      2   1   3     2.078873429753   109.83517186   118.75721209
 C      1   2   3     2.796191519408   113.92723064   306.04666514
 C      6   1   2     2.858897710660   114.40833843    49.80310854
 C      3   2   1     2.890530741751   110.15463179    56.83842159
 H      7   6   1     2.069665360501   110.22016986   188.81233925
 H      7   6   1     2.079911240900   108.25710871    72.13781292
 H      8   3   2     2.075925525669   108.31518154    64.43379918
 H      8   3   2     2.071418394145   109.50690684   181.42503657
 O      3   2   1     2.716230741755   110.68715456   292.82832483
 H      3   2   1     2.073119697603   109.49661395   177.30447761
 C      1   2   3     2.559503666307   121.20208187   122.76522007
 C      6   1   2     2.527508379256   123.15207984   231.71352455
 H     16   6   1     2.053662062482   121.33891279   359.03899679
 H     16   6   1     2.055048640832   120.93835463   178.43204050
 C     15   1   2     2.729993856773   126.14079139   185.23358799
 H     15   1   2     2.058668815755   116.25559032     3.13802155
 C     19  15   1     2.551132028341   126.48222062   185.21138920
 H     19  15   1     2.055392351558   115.79889852     5.96286338
 C     21  19  15     2.848664206274   125.74497698     2.07690917
 C     23  21  19     2.912490280895   111.54514235   124.80511812
 H     23  21  19     2.066162455150   112.38047022     1.15424631
 H     23  21  19     2.081749777954   107.88182747   243.36693781
 C     24  23  21     2.900469722974   112.66970926    51.10375346
 H     24  23  21     2.073648493914   108.98662778   288.97825585
 H     24  23  21     2.072839157795   109.12799896   173.04580547
 C     27  24  23     2.899913397454   111.87037355   306.39060969
 H     27  24  23     2.069322421688   108.90262064   182.90879959
 H     27  24  23     2.079609731416   109.19317362    66.43605984
 C     21  19  15     2.830761988597   122.84695246   180.28289015
 H     33  21  19     2.088952126822   106.39564214   127.03248062
 C     33  21  19     2.884005398855   121.20635996     4.46020127
 H     13   3   2     1.828921959275   107.61962006    42.09990986
 C     35  33  21     2.926227320173   103.59927710   196.97531470
 H     35  33  21     2.069301299344   112.06322733    74.91972183
 H     35  33  21     2.070626016182   110.80023867   315.32853787
 C     30  27  24     2.935711373731   116.06136847   166.20248859
 H     37  35  33     2.068323382048   112.01359616   249.17990639
 H     37  35  33     2.071826379619   110.91972238   130.57207579
 H     40  30  27     2.083339352828   106.42329029   320.78711526
 C     40  30  27     2.913973774776   118.90772461    81.58267688
 C     30  27  24     2.900148298106   111.09966412   294.00623720
 H     45  30  27     2.068582713558   111.57682087   186.51164135
 H     45  30  27     2.068144689580   111.55315097    66.45503845
 H     45  30  27     2.070445664168   110.63495759   306.31240699
 H     44  40  30     2.078679729611   108.35544511    60.45443125
 C     44  40  30     2.903550660787   113.51395280   299.58805605
 C     44  40  30     2.844697451128   109.29356462   177.72741941
 C     51  44  40     2.517426064572   125.41434682   238.46064681
 H     51  44  40     2.068911205504   115.57771656    59.46654852
 H     52  51  44     2.066081964486   118.54240100     1.40497852
 C     52  51  44     2.840263149580   125.22197355   180.24514560
 C     55  52  51     2.901765644784   110.10053763   235.64129095
 C     55  52  51     2.935274019030   112.75485015   110.01885740
 H     55  52  51     2.079479792163   107.74328819   353.08594905
 H     57  55  52     2.080658458394   105.93577755   176.49084848
 C     57  55  52     2.892815094400   113.47997625    58.27675755
 C     57  55  52     2.890026282330   110.95141403   293.42679964
 H     56  55  52     2.070296298495   111.39136418   302.20057757
 H     56  55  52     2.071536875619   110.90873553   181.76331519
 H     56  55  52     2.069716964003   110.49770032    61.64158343
 H     60  57  55     2.068828207385   112.22939714    54.76869587
 H     60  57  55     2.071614617680   110.95050702   293.70727954
 H     60  57  55     2.070358398960   110.21104257   174.75560147
 H     61  57  55     2.071504131413   111.27161340   304.94145668
 H     61  57  55     2.070789959734   110.90062581   184.53547059
 H     61  57  55     2.072024480806   110.60975643    64.72727829
 H     50  44  40     2.065465169894   111.87071050    67.65882155
 H     50  44  40     2.072940099974   110.76240501   306.95193218
 H     50  44  40     2.069873493118   110.13019540   187.58675469

---------------------
BASIS SET INFORMATION
---------------------
There are 3 groups of distinct atoms

 Group   1 Type C   : 7s4p contracted to 4s3p pattern {4111/211}
 Group   2 Type H   : 5s contracted to 3s pattern {311}
 Group   3 Type O   : 7s4p contracted to 4s3p pattern {4111/211}

Atom   0C    basis set group =>   1
Atom   1C    basis set group =>   1
Atom   2C    basis set group =>   1
Atom   3H    basis set group =>   2
Atom   4H    basis set group =>   2
Atom   5C    basis set group =>   1
Atom   6C    basis set group =>   1
Atom   7C    basis set group =>   1
Atom   8H    basis set group =>   2
Atom   9H    basis set group =>   2
Atom  10H    basis set group =>   2
Atom  11H    basis set group =>   2
Atom  12O    basis set group =>   3
Atom  13H    basis set group =>   2
Atom  14C    basis set group =>   1
Atom  15C    basis set group =>   1
Atom  16H    basis set group =>   2
Atom  17H    basis set group =>   2
Atom  18C    basis set group =>   1
Atom  19H    basis set group =>   2
Atom  20C    basis set group =>   1
Atom  21H    basis set group =>   2
Atom  22C    basis set group =>   1
Atom  23C    basis set group =>   1
Atom  24H    basis set group =>   2
Atom  25H    basis set group =>   2
Atom  26C    basis set group =>   1
Atom  27H    basis set group =>   2
Atom  28H    basis set group =>   2
Atom  29C    basis set group =>   1
Atom  30H    basis set group =>   2
Atom  31H    basis set group =>   2
Atom  32C    basis set group =>   1
Atom  33H    basis set group =>   2
Atom  34C    basis set group =>   1
Atom  35H    basis set group =>   2
Atom  36C    basis set group =>   1
Atom  37H    basis set group =>   2
Atom  38H    basis set group =>   2
Atom  39C    basis set group =>   1
Atom  40H    basis set group =>   2
Atom  41H    basis set group =>   2
Atom  42H    basis set group =>   2
Atom  43C    basis set group =>   1
Atom  44C    basis set group =>   1
Atom  45H    basis set group =>   2
Atom  46H    basis set group =>   2
Atom  47H    basis set group =>   2
Atom  48H    basis set group =>   2
Atom  49C    basis set group =>   1
Atom  50C    basis set group =>   1
Atom  51C    basis set group =>   1
Atom  52H    basis set group =>   2
Atom  53H    basis set group =>   2
Atom  54C    basis set group =>   1
Atom  55C    basis set group =>   1
Atom  56C    basis set group =>   1
Atom  57H    basis set group =>   2
Atom  58H    basis set group =>   2
Atom  59C    basis set group =>   1
Atom  60C    basis set group =>   1
Atom  61H    basis set group =>   2
Atom  62H    basis set group =>   2
Atom  63H    basis set group =>   2
Atom  64H    basis set group =>   2
Atom  65H    basis set group =>   2
Atom  66H    basis set group =>   2
Atom  67H    basis set group =>   2
Atom  68H    basis set group =>   2
Atom  69H    basis set group =>   2
Atom  70H    basis set group =>   2
Atom  71H    basis set group =>   2
Atom  72H    basis set group =>   2

-------------------------
BASIS SET IN INPUT FORMAT
-------------------------

 # Basis set for element : H 
 NewGTO H 
 S 3 
   1    1357.7500000000      0.0012928364
   2      54.3100000000      0.0588280685
   3       4.3448000000      0.9761499708
 S 1 
   1       0.6604910000      1.0000000000
 S 1 
   1       0.1366870000      1.0000000000
  end;

 # Basis set for element : C 
 NewGTO C 
 S 4 
   1  139534.0000000000      0.0001655246
   2    5581.3600000000      0.0074486101
   3     446.5090000000      0.1285821065
   4      67.4620000000      0.9218029311
 S 1 
   1      15.0674000000      1.0000000000
 S 1 
   1       3.9387600000      1.0000000000
 S 1 
   1       0.2999150000      1.0000000000
 P 2 
   1      28.3900000000      0.0816325586
   2       4.3676900000      0.9660360576
 P 1 
   1       0.8698170000      1.0000000000
 P 1 
   1       0.1889340000      1.0000000000
  end;

 # Basis set for element : O 
 NewGTO O 
 S 4 
   1  253789.0000000000      0.0001641076
   2   10151.6000000000      0.0074010921
   3     812.1250000000      0.1277711901
   4     122.6930000000      0.9223372164
 S 1 
   1      27.5608000000      1.0000000000
 S 1 
   1       7.3172600000      1.0000000000
 S 1 
   1       0.5792400000      1.0000000000
 P 2 
   1      53.4157000000      0.0793786106
   2       8.2177900000      0.9670506337
 P 1 
   1       1.6754400000      1.0000000000
 P 1 
   1       0.3506720000      1.0000000000
  end;

---------------------------------
AUXILIARY/J BASIS SET INFORMATION
---------------------------------
There are 3 groups of distinct atoms

 Group   1 Type C   : 12s5p4d2f1g contracted to 6s4p3d1f1g pattern {711111/2111/211/2/1}
 Group   2 Type H   : 5s2p1d contracted to 3s1p1d pattern {311/2/1}
 Group   3 Type O   : 12s5p4d2f1g contracted to 6s4p3d1f1g pattern {711111/2111/211/2/1}

Atom   0C    basis set group =>   1
Atom   1C    basis set group =>   1
Atom   2C    basis set group =>   1
Atom   3H    basis set group =>   2
Atom   4H    basis set group =>   2
Atom   5C    basis set group =>   1
Atom   6C    basis set group =>   1
Atom   7C    basis set group =>   1
Atom   8H    basis set group =>   2
Atom   9H    basis set group =>   2
Atom  10H    basis set group =>   2
Atom  11H    basis set group =>   2
Atom  12O    basis set group =>   3
Atom  13H    basis set group =>   2
Atom  14C    basis set group =>   1
Atom  15C    basis set group =>   1
Atom  16H    basis set group =>   2
Atom  17H    basis set group =>   2
Atom  18C    basis set group =>   1
Atom  19H    basis set group =>   2
Atom  20C    basis set group =>   1
Atom  21H    basis set group =>   2
Atom  22C    basis set group =>   1
Atom  23C    basis set group =>   1
Atom  24H    basis set group =>   2
Atom  25H    basis set group =>   2
Atom  26C    basis set group =>   1
Atom  27H    basis set group =>   2
Atom  28H    basis set group =>   2
Atom  29C    basis set group =>   1
Atom  30H    basis set group =>   2
Atom  31H    basis set group =>   2
Atom  32C    basis set group =>   1
Atom  33H    basis set group =>   2
Atom  34C    basis set group =>   1
Atom  35H    basis set group =>   2
Atom  36C    basis set group =>   1
Atom  37H    basis set group =>   2
Atom  38H    basis set group =>   2
Atom  39C    basis set group =>   1
Atom  40H    basis set group =>   2
Atom  41H    basis set group =>   2
Atom  42H    basis set group =>   2
Atom  43C    basis set group =>   1
Atom  44C    basis set group =>   1
Atom  45H    basis set group =>   2
Atom  46H    basis set group =>   2
Atom  47H    basis set group =>   2
Atom  48H    basis set group =>   2
Atom  49C    basis set group =>   1
Atom  50C    basis set group =>   1
Atom  51C    basis set group =>   1
Atom  52H    basis set group =>   2
Atom  53H    basis set group =>   2
Atom  54C    basis set group =>   1
Atom  55C    basis set group =>   1
Atom  56C    basis set group =>   1
Atom  57H    basis set group =>   2
Atom  58H    basis set group =>   2
Atom  59C    basis set group =>   1
Atom  60C    basis set group =>   1
Atom  61H    basis set group =>   2
Atom  62H    basis set group =>   2
Atom  63H    basis set group =>   2
Atom  64H    basis set group =>   2
Atom  65H    basis set group =>   2
Atom  66H    basis set group =>   2
Atom  67H    basis set group =>   2
Atom  68H    basis set group =>   2
Atom  69H    basis set group =>   2
Atom  70H    basis set group =>   2
Atom  71H    basis set group =>   2
Atom  72H    basis set group =>   2

-------------------------------------
AUXILIARY/J BASIS SET IN INPUT FORMAT
-------------------------------------

 # Auxiliary/J basis set for element : H 
 NewAuxJGTO H 
 S 3 
   1      15.6752927000      0.1007184237
   2       3.6063578000      0.3404257499
   3       1.2080016000      0.6491996172
 S 1 
   1       0.4726794000      1.0000000000
 S 1 
   1       0.2018100000      1.0000000000
 P 2 
   1       2.0281365000      0.5596620919
   2       0.5358730000      0.5596620919
 D 1 
   1       2.2165124000      1.0000000000
  end;

 # Auxiliary/J basis set for element : C 
 NewAuxJGTO C 
 S 7 
   1    1861.0916331000      0.0134602335
   2     642.9939764000      0.0299160374
   3     235.1105725000      0.1008649584
   4      90.7028894000      0.2370970548
   5      36.7794552000      0.3924037254
   6      15.6046273000      0.3195862154
   7       6.8907294000      0.0530104441
 S 1 
   1       3.1478850000     -1.0000000000
 S 1 
   1       1.4777287000      1.0000000000
 S 1 
   1       0.7076466000      1.0000000000
 S 1 
   1       0.3430122000      1.0000000000
 S 1 
   1       0.1669453000      1.0000000000
 P 2 
   1      13.5472892000     -0.6769313712
   2       5.4669419000     -0.3779500978
 P 1 
   1       2.1751721000      1.0000000000
 P 1 
   1       0.8582194000      1.0000000000
 P 1 
   1       0.3376720000      1.0000000000
 D 2 
   1       5.9287253000     -0.3533329857
   2       1.9809209000     -0.7456525731
 D 1 
   1       0.8055417000     -1.0000000000
 D 1 
   1       0.3531244000     -1.0000000000
 F 2 
   1       1.6755626000      0.6311076882
   2       0.5997536000      0.4968166032
 G 1 
   1       1.0024600000     -1.0000000000
  end;

 # Auxiliary/J basis set for element : O 
 NewAuxJGTO O 
 S 7 
   1    2876.8216605000      0.0168151159
   2    1004.7443032000      0.0340137548
   3     369.7579954000      0.1194951309
   4     142.9442404000      0.2664627624
   5      57.8366425000      0.4202764046
   6      24.3864983000      0.2765077335
   7      10.6622662000      0.0057008815
 S 1 
   1       4.8070437000     -1.0000000000
 S 1 
   1       2.2210770000      1.0000000000
 S 1 
   1       1.0447795000      1.0000000000
 S 1 
   1       0.4968425000      1.0000000000
 S 1 
   1       0.2371384000      1.0000000000
 P 2 
   1      64.2613382000     -0.2731534179
   2      16.3006076000     -0.8168011598
 P 1 
   1       4.3550542000      1.0000000000
 P 1 
   1       1.2019554000      1.0000000000
 P 1 
   1       0.3354196000      1.0000000000
 D 2 
   1       9.2146611000     -0.4661230638
   2       2.8435251000     -0.6600908911
 D 1 
   1       0.9955759000     -1.0000000000
 D 1 
   1       0.3649441000     -1.0000000000
 F 2 
   1       2.6420115000      0.5931563945
   2       0.7345613000      0.5931563945
 G 1 
   1       1.3931000000     -1.0000000000
  end;


Checking for AutoStart:
The File: inpJ.gbw exists
Trying to determine its content:
     ... Fine, the file contains calculation information
     ... Fine, the calculation information was read
     ... Fine, the file contains a basis set
     ... Fine, the basis set was read
     ... Fine, the file contains a geometry
     ... Fine, the geometry was read
     ... Fine, the file contains a set of orbitals
     ... Fine, the orbitals can be read
     => possible old guess file was deleted
     => GBW file was renamed to GES file
     => GES file is set as startup file
     => Guess is set to MORead
     ... now leaving AutoStart



           ************************************************************
           *        Program running with 4 parallel MPI-processes     *
           *              working on a common directory               *
           ************************************************************
------------------------------------------------------------------------------
                             ORCA STARTUP CALCULATIONS
                           -- RI-GTO INTEGRALS CHOSEN --
------------------------------------------------------------------------------
------------------------------------------------------------------------------
                   ___                                                        
                  /   \      - P O W E R E D   B Y -                         
                 /     \                                                     
                 |  |  |   _    _      __       _____    __    __             
                 |  |  |  | |  | |    /  \     |  _  \  |  |  /  |          
                  \  \/   | |  | |   /    \    | | | |  |  | /  /          
                 / \  \   | |__| |  /  /\  \   | |_| |  |  |/  /          
                |  |  |   |  __  | /  /__\  \  |    /   |      \           
                |  |  |   | |  | | |   __   |  |    \   |  |\   \          
                \     /   | |  | | |  |  |  |  | |\  \  |  | \   \       
                 \___/    |_|  |_| |__|  |__|  |_| \__\ |__|  \__/        
                                                                              
                      - O R C A' S   B I G   F R I E N D -                    
                                      &                                       
                       - I N T E G R A L  F E E D E R -                       
                                                                              
 v1 FN, 2020, v2 2021, v3 2022-2024                                           
------------------------------------------------------------------------------


----------------------
SHARK INTEGRAL PACKAGE
----------------------

Number of atoms                             ...     73
Number of basis functions                   ...    509
Number of shells                            ...    335
Maximum angular momentum                    ...      1
Integral batch strategy                     ... SHARK/LIBINT Hybrid
RI-J (if used) integral strategy            ... SPLIT-RIJ (Revised 2003 algorithm where possible)
Printlevel                                  ...      1
Contraction scheme used                     ... SEGMENTED contraction
Prescreening option                         ... SCHWARTZ
   Thresh                                   ... 3.000e-11
   Tcut                                     ... 1.000e-12
   Tpresel                                  ... 1.000e-12 
Coulomb Range Separation                    ... NOT USED
Exchange Range Separation                   ... NOT USED
Multipole approximations                    ... NOT USED
Finite Nucleus Model                        ... NOT USED
CABS basis                                  ... NOT available
Auxiliary Coulomb fitting basis             ... AVAILABLE
   # of basis functions in Aux-J            ...   1905
   # of shells in Aux-J                     ...    655
   Maximum angular momentum in Aux-J        ...      4
Auxiliary J/K fitting basis                 ... NOT available
Auxiliary Correlation fitting basis         ... NOT available
Auxiliary 'external' fitting basis          ... NOT available

Checking pre-screening integrals            ... done (  0.0 sec) Dimension = 335
Check shell pair data                       ... done (  0.0 sec)
Shell pair information
Shell pair cut-off parameter TPreSel        ...   1.0e-12
Total number of shell pairs                 ...     56280
Shell pairs after pre-screening             ...     21765
Total number of primitive shell pairs       ...    145865
Primitive shell pairs kept                  ...     37442
          la=0 lb=0:  10942 shell pairs
          la=1 lb=0:   8966 shell pairs
          la=1 lb=1:   1857 shell pairs

Calculating one electron integrals          ... done (  0.0 sec)
Calculating RI/J V-Matrix + Cholesky decomp.... done (  0.2 sec)
Calculating Nuclear repulsion               ... done (  0.0 sec) ENN=   2779.747434554303 Eh

Diagonalization of the overlap matrix:
Smallest eigenvalue                        ... 7.561e-03
Time for diagonalization                   ...    0.026 sec
Threshold for overlap eigenvalues          ... 1.000e-07
Number of eigenvalues below threshold      ... 0
Time for construction of square roots      ...    0.013 sec
Total time needed                          ...    0.042 sec

-------------------
DFT GRID GENERATION
-------------------

General Integration Accuracy     IntAcc      ... 4.388
Radial Grid Type                 RadialGrid  ... OptM3 with GC (2021)
Angular Grid (max. ang.)         AngularGrid ... 4 (Lebedev-302)
Angular grid pruning method      GridPruning ... 4 (adaptive)
Weight generation scheme         WeightScheme... mBecke (2022)
Basis function cutoff            BFCut       ... 1.0000e-11
Integration weight cutoff        WCut        ... 1.0000e-14
Partially contracted basis set               ... off
Rotationally invariant grid construction     ... off
Angular grids for H and He will be reduced by one unit

Total number of grid points                  ...   309996
Total number of batches                      ...     4880
Average number of points per batch           ...       63
Average number of grid points per atom       ...     4247

--------------------
COSX GRID GENERATION
--------------------

GRIDX 1
-------
General Integration Accuracy     IntAcc      ... 3.816
Radial Grid Type                 RadialGrid  ... OptM3 with GC (2021)
Angular Grid (max. ang.)         AngularGrid ... 1 (Lebedev-50)
Angular grid pruning method      GridPruning ... 4 (adaptive)
Weight generation scheme         WeightScheme... mBecke (2022)
Basis function cutoff            BFCut       ... 1.0000e-11
Integration weight cutoff        WCut        ... 1.0000e-14
Partially contracted basis set               ... on
Rotationally invariant grid construction     ... off
Angular grids for H and He will be reduced by one unit

Total number of grid points                  ...    39415
Total number of batches                      ...      352
Average number of points per batch           ...      111
Average number of grid points per atom       ...      540
UseSFitting                                  ... on

GRIDX 2
-------
General Integration Accuracy     IntAcc      ... 4.020
Radial Grid Type                 RadialGrid  ... OptM3 with GC (2021)
Angular Grid (max. ang.)         AngularGrid ... 2 (Lebedev-110)
Angular grid pruning method      GridPruning ... 4 (adaptive)
Weight generation scheme         WeightScheme... mBecke (2022)
Basis function cutoff            BFCut       ... 1.0000e-11
Integration weight cutoff        WCut        ... 1.0000e-14
Partially contracted basis set               ... on
Rotationally invariant grid construction     ... off
Angular grids for H and He will be reduced by one unit

Total number of grid points                  ...    81373
Total number of batches                      ...      679
Average number of points per batch           ...      119
Average number of grid points per atom       ...     1115
UseSFitting                                  ... on

GRIDX 3
-------
General Integration Accuracy     IntAcc      ... 4.338
Radial Grid Type                 RadialGrid  ... OptM3 with GC (2021)
Angular Grid (max. ang.)         AngularGrid ... 3 (Lebedev-194)
Angular grid pruning method      GridPruning ... 4 (adaptive)
Weight generation scheme         WeightScheme... mBecke (2022)
Basis function cutoff            BFCut       ... 1.0000e-11
Integration weight cutoff        WCut        ... 1.0000e-14
Partially contracted basis set               ... on
Rotationally invariant grid construction     ... off
Angular grids for H and He will be reduced by one unit

Total number of grid points                  ...   176212
Total number of batches                      ...     1417
Average number of points per batch           ...      124
Average number of grid points per atom       ...     2414
UseSFitting                                  ... on
Initializing property integral containers    ... done (  0.0 sec)

SHARK setup successfully completed in   3.6 seconds

Maximum memory used throughout the entire STARTUP-calculation: 85.6 MB


           ************************************************************
           *        Program running with 4 parallel MPI-processes     *
           *              working on a common directory               *
           ************************************************************
-------------------------------------------------------------------------------
                                 ORCA GUESS
                   Start orbitals & Density for SCF / CASSCF
-------------------------------------------------------------------------------

------------
SCF SETTINGS
------------
Hamiltonian:
 Density Functional     Method          .... DFT(GTOs)
 Exchange Functional    Exchange        .... PBE
   PBE kappa parameter   XKappa         ....  0.804000
   PBE mue parameter    XMuePBE         ....  0.219520
 Correlation Functional Correlation     .... PBE
   PBE beta parameter  CBetaPBE         ....  0.066725
 LDA part of GGA corr.  LDAOpt          .... PW91-LDA
 Gradients option       PostSCFGGA      .... off
 Hybrid DFT is turned on
   Fraction HF Exchange ScalHFX         ....  0.250000
   Scaling of DF-GGA-X  ScalDFX         ....  0.750000
   Scaling of DF-GGA-C  ScalDFC         ....  1.000000
   Scaling of DF-LDA-C  ScalLDAC        ....  1.000000
   Perturbative correction              ....  0.000000
   NL short-range parameter             ....  6.900000
 RI-approximation to the Coulomb term is turned on
   Number of AuxJ basis functions       .... 1905
   RIJ-COSX (HFX calculated with COS-X)).... on


General Settings:
 Integral files         IntName         .... inpJ
 Hartree-Fock type      HFTyp           .... RHF
 Total Charge           Charge          ....    0
 Multiplicity           Mult            ....    1
 Number of Electrons    NEL             ....  220
 Basis Dimension        Dim             ....  509
 Nuclear Repulsion      ENuc            ....   2779.7474345543 Eh

Convergence Acceleration:
 AO-DIIS                CNVDIIS         .... on
   Start iteration      DIISMaxIt       ....    12
   Startup error        DIISStart       ....  0.200000
   # of expansion vecs  DIISMaxEq       ....     5
   Bias factor          DIISBfac        ....   1.050
   Max. coefficient     DIISMaxC        ....  10.000
 MO-DIIS                CNVKDIIS        .... off
 Trust-Rad. Augm. Hess. CNVTRAH         .... auto
   Auto Start mean grad. ratio tolernc. ....  1.125000
   Auto Start start iteration           ....     1
   Auto Start num. interpolation iter.  ....    10
   Max. Number of Micro iterations      ....    24
   Max. Number of Macro iterations      .... Maxiter - #DIIS iter
   Number of Davidson start vectors     ....     2
   Converg. threshold    (grad. norm)   ....   1.000e-04
   Grad. Scal. Fac. for Micro threshold ....   0.100
   Minimum threshold for Micro iter.    ....   1.000e-02
   NR start threshold (gradient norm)   ....   1.000e-04
   Initial trust radius                 ....   0.400
   Minimum AH scaling param. (alpha)    ....   1.000
   Maximum AH scaling param. (alpha)    .... 1000.000
   Quad. conv. algorithm                .... NR
   White noise on init. David. guess    .... on
   Maximum white noise                  ....   0.010
   Pseudo random numbers                .... off
   Inactive MOs                         .... canonical
   Orbital update algorithm             .... Taylor
   Preconditioner                       .... Diag
   Full preconditioner red. dimension   ....   250
 SOSCF                  CNVSOSCF        .... off
 Level Shifting         CNVShift        .... on
   Level shift para.    LevelShift      ....    0.2500
   Turn off err/grad.   ShiftErr        ....    0.0010
 Zerner damping         CNVZerner       .... off
 Static damping         CNVDamp         .... on
   Fraction old density DampFac         ....    0.7000
   Max. Damping (<1)    DampMax         ....    0.9800
   Min. Damping (>=0)   DampMin         ....    0.0000
   Turn off err/grad.   DampErr         ....    0.1000

SCF Procedure:
 Maximum # iterations   MaxIter         ....   125
 SCF integral mode      SCFMode         .... Direct
   Integral package                     .... SHARK and LIBINT hybrid scheme
 Reset frequency        DirectResetFreq ....    20
 Integral Threshold     Thresh          ....  3.000e-11 Eh
 Primitive CutOff       TCut            ....  1.000e-12 Eh

Convergence Tolerance:
 Convergence Check Mode ConvCheckMode   .... Total+1el-Energy
 Convergence forced     ConvForced      .... 0
 Energy Change          TolE            ....  1.000e-07 Eh
 1-El. energy change                    ....  1.000e-04 Eh
 DIIS Error             TolErr          ....  1.000e-07

---------------------
INITIAL GUESS: MOREAD
---------------------
Guess MOs are being read from file: inpJ.ges
Input Geometry matches current geometry (good)
Input basis set matches current basis set (good)
Occupation numbers will be reassigned to an Aufbau configuration
MOs were renormalized
MOs were reorthogonalized (Cholesky)
                      ------------------
                      INITIAL GUESS DONE (   0.1 sec)
                      ------------------
             **** ENERGY FILE WAS UPDATED (inpJ.en.tmp) ****
Finished Guess after   0.2 sec
Maximum memory used throughout the entire GUESS-calculation: 36.6 MB


           ************************************************************
           *        Program running with 4 parallel MPI-processes     *
           *              working on a common directory               *
           ************************************************************

-------------------------------------------------------------------------------------------
                                      ORCA LEAN-SCF
                              memory conserving SCF solver
-------------------------------------------------------------------------------------------

--------------------
CPCM SOLVATION MODEL
--------------------
CPCM parameters:
  Epsilon                                         ...       4.8030
  Refrac                                          ...       1.4459
  Rsolv                                           ...       1.3000
  Surface type                                    ... GAUSSIAN VDW
  Discretization scheme                           ... Constant charge density
    Threshold for H atoms                         ...       5.0000 (charges/Ang^2)
    Threshold for non-H atoms                     ...       5.0000 (charges/Ang^2)
  Epsilon function type                           ...         CPCM
Solvent:                                          ... CHLOROFORM
Radii:
  Scheme                                          ... Element-dependent radii
  Radius for C  used is    3.8550 Bohr (=   2.0400 Ang.)
  Radius for H  used is    2.4944 Bohr (=   1.3200 Ang.)
  Radius for O  used is    3.4469 Bohr (=   1.8240 Ang.)
Calculating surface                               ...        done! (  0.0s)
Cavity surface points                             ...         5412
Cavity Volume                                     ...    3617.0255
Cavity Surface-area                               ...    1803.4001
Calculating surface distance matrix               ...        done! (  0.3s)
Performing Cholesky decomposition & store         ...        done! (  1.3s)
Overall time for CPCM initialization              ...                 1.6s

----------------------------------------D-I-I-S--------------------------------------------
Iteration    Energy (Eh)           Delta-E    RMSDP     MaxDP     DIISErr   Damp  Time(sec)
-------------------------------------------------------------------------------------------
               ***  Starting incremental Fock matrix formation  ***
    1    -1165.5130001077627639     0.00e+00  4.24e-08  5.53e-06  6.67e-06  0.700   6.2

  HOMO= 109 E= -6.013 eV LUMO=  5.935 eV gap=  11.948 eV
    2    -1165.5130001398301829    -3.21e-08  2.86e-08  3.32e-06  3.34e-06  0.700   2.1
                 **** Energy Check signals convergence ****

  HOMO= 109 E= -6.013 eV LUMO=  5.935 eV gap=  11.948 eV

               *****************************************************
               *                     SUCCESS                       *
               *           SCF CONVERGED AFTER   2 CYCLES          *
               *****************************************************

Recomputing exchange energy using gridx3       ... done (    8.198 sec)
Old exchange energy                            :    -42.067383210 Eh
New exchange energy                            :    -42.067370606 Eh
Exchange energy change after final integration :      0.000012605 Eh
Total energy after final integration           :  -1165.512987535 Eh
             **** ENERGY FILE WAS UPDATED (inpJ.en.tmp) ****

----------------
TOTAL SCF ENERGY
----------------

Total Energy       :      -1165.51298753518154 Eh          -31715.22076 eV

Components:
Nuclear Repulsion  :       2779.74743455430325 Eh           75640.77320 eV
Electronic Energy  :      -3945.24699269435678 Eh         -107355.62853 eV
One Electron Energy:      -7101.26513768231780 Eh         -193235.24829 eV
Two Electron Energy:       3156.01814498796102 Eh           85879.61976 eV
CPCM Dielectric    :         -0.01344199977644 Eh              -0.36578 eV

Virial components:
Potential Energy   :      -2322.41069893173471 Eh          -63196.00794 eV
Kinetic Energy     :       1156.89771139655318 Eh           31480.78718 eV
Virial Ratio       :          2.00744687802021

DFT components:
N(Alpha)           :      110.000178656052 electrons
N(Beta)            :      110.000178656052 electrons
N(Total)           :      220.000357312103 electrons
E(X)               :     -125.744592898764 Eh       
E(C)               :       -7.326373708726 Eh       
E(XC)              :     -133.070966607490 Eh       

CPCM Solvation Model Properties:
Surface-charge          :         -0.03349603774499
Corrected charge        :         -0.00000000000000
Outlying charge corr.   :          0.00003930955081 Eh               0.00107 eV
Free-energy (cav+disp)  :  This term is not implemented in the current solvation scheme

---------------
SCF CONVERGENCE
---------------

  Last Energy change         ...    3.2067e-08  Tolerance :   1.0000e-07
  Last MAX-Density change    ...    3.3201e-06  Tolerance :   1.0000e-05
  Last RMS-Density change    ...    2.8559e-08  Tolerance :   1.0000e-06
  Last DIIS Error            ...    3.3399e-06  Tolerance :   1.0000e-07


----------------
ORBITAL ENERGIES
----------------

  NO   OCC          E(Eh)            E(eV) 
   0   2.0000     -19.212469      -522.7979 
   1   2.0000     -10.300506      -280.2910 
   2   2.0000     -10.270552      -279.4759 
   3   2.0000     -10.268440      -279.4185 
   4   2.0000     -10.263921      -279.2955 
   5   2.0000     -10.257646      -279.1247 
   6   2.0000     -10.257218      -279.1131 
   7   2.0000     -10.250592      -278.9328 
   8   2.0000     -10.249466      -278.9021 
   9   2.0000     -10.248386      -278.8728 
  10   2.0000     -10.248189      -278.8674 
  11   2.0000     -10.247706      -278.8542 
  12   2.0000     -10.246433      -278.8196 
  13   2.0000     -10.245460      -278.7931 
  14   2.0000     -10.245242      -278.7872 
  15   2.0000     -10.244734      -278.7734 
  16   2.0000     -10.243548      -278.7411 
  17   2.0000     -10.243099      -278.7289 
  18   2.0000     -10.241797      -278.6935 
  19   2.0000     -10.241530      -278.6862 
  20   2.0000     -10.240358      -278.6543 
  21   2.0000     -10.234702      -278.5004 
  22   2.0000     -10.234467      -278.4940 
  23   2.0000     -10.233206      -278.4597 
  24   2.0000     -10.226883      -278.2876 
  25   2.0000     -10.226626      -278.2806 
  26   2.0000     -10.223847      -278.2050 
  27   2.0000     -10.222419      -278.1662 
  28   2.0000     -10.221102      -278.1303 
  29   2.0000      -1.043231       -28.3878 
  30   2.0000      -0.901762       -24.5382 
  31   2.0000      -0.882291       -24.0084 
  32   2.0000      -0.860232       -23.4081 
  33   2.0000      -0.846401       -23.0318 
  34   2.0000      -0.822877       -22.3916 
  35   2.0000      -0.814458       -22.1625 
  36   2.0000      -0.796067       -21.6621 
  37   2.0000      -0.795171       -21.6377 
  38   2.0000      -0.776925       -21.1412 
  39   2.0000      -0.758522       -20.6404 
  40   2.0000      -0.742406       -20.2019 
  41   2.0000      -0.736389       -20.0382 
  42   2.0000      -0.715345       -19.4655 
  43   2.0000      -0.703029       -19.1304 
  44   2.0000      -0.702239       -19.1089 
  45   2.0000      -0.695784       -18.9333 
  46   2.0000      -0.670875       -18.2554 
  47   2.0000      -0.656430       -17.8624 
  48   2.0000      -0.630859       -17.1665 
  49   2.0000      -0.622296       -16.9335 
  50   2.0000      -0.612700       -16.6724 
  51   2.0000      -0.606509       -16.5039 
  52   2.0000      -0.596967       -16.2443 
  53   2.0000      -0.582716       -15.8565 
  54   2.0000      -0.563717       -15.3395 
  55   2.0000      -0.549717       -14.9586 
  56   2.0000      -0.540469       -14.7069 
  57   2.0000      -0.529574       -14.4105 
  58   2.0000      -0.515361       -14.0237 
  59   2.0000      -0.510091       -13.8803 
  60   2.0000      -0.500155       -13.6099 
  61   2.0000      -0.492237       -13.3945 
  62   2.0000      -0.481231       -13.0949 
  63   2.0000      -0.475980       -12.9521 
  64   2.0000      -0.473615       -12.8877 
  65   2.0000      -0.466757       -12.7011 
  66   2.0000      -0.464411       -12.6373 
  67   2.0000      -0.462566       -12.5871 
  68   2.0000      -0.459239       -12.4965 
  69   2.0000      -0.454077       -12.3561 
  70   2.0000      -0.450239       -12.2516 
  71   2.0000      -0.440679       -11.9915 
  72   2.0000      -0.434780       -11.8310 
  73   2.0000      -0.432237       -11.7618 
  74   2.0000      -0.430390       -11.7115 
  75   2.0000      -0.423236       -11.5168 
  76   2.0000      -0.421259       -11.4631 
  77   2.0000      -0.413464       -11.2509 
  78   2.0000      -0.412411       -11.2223 
  79   2.0000      -0.402929       -10.9643 
  80   2.0000      -0.401946       -10.9375 
  81   2.0000      -0.397809       -10.8249 
  82   2.0000      -0.396758       -10.7963 
  83   2.0000      -0.388810       -10.5801 
  84   2.0000      -0.387419       -10.5422 
  85   2.0000      -0.381094       -10.3701 
  86   2.0000      -0.375606       -10.2208 
  87   2.0000      -0.374090       -10.1795 
  88   2.0000      -0.368825       -10.0362 
  89   2.0000      -0.364399        -9.9158 
  90   2.0000      -0.360773        -9.8171 
  91   2.0000      -0.358328        -9.7506 
  92   2.0000      -0.351294        -9.5592 
  93   2.0000      -0.344974        -9.3872 
  94   2.0000      -0.341579        -9.2948 
  95   2.0000      -0.340370        -9.2620 
  96   2.0000      -0.338015        -9.1978 
  97   2.0000      -0.333971        -9.0878 
  98   2.0000      -0.331547        -9.0219 
  99   2.0000      -0.330248        -8.9865 
 100   2.0000      -0.327726        -8.9179 
 101   2.0000      -0.324622        -8.8334 
 102   2.0000      -0.319305        -8.6887 
 103   2.0000      -0.316548        -8.6137 
 104   2.0000      -0.311108        -8.4657 
 105   2.0000      -0.300346        -8.1728 
 106   2.0000      -0.276656        -7.5282 
 107   2.0000      -0.275261        -7.4902 
 108   2.0000      -0.258291        -7.0285 
 109   2.0000      -0.220985        -6.0133 
 110   0.0000      -0.031893        -0.8678 
 111   0.0000       0.019236         0.5234 
 112   0.0000       0.025621         0.6972 
 113   0.0000       0.080085         2.1792 
 114   0.0000       0.087625         2.3844 
 115   0.0000       0.100663         2.7392 
 116   0.0000       0.104618         2.8468 
 117   0.0000       0.106675         2.9028 
 118   0.0000       0.110175         2.9980 
 119   0.0000       0.113603         3.0913 
 120   0.0000       0.116878         3.1804 
*Only the first 10 virtual orbitals were printed.

                    ********************************
                    * MULLIKEN POPULATION ANALYSIS *
                    ********************************

-----------------------
MULLIKEN ATOMIC CHARGES
-----------------------
   0 C :    0.078019
   1 C :   -0.500736
   2 C :   -0.074123
   3 H :    0.222964
   4 H :    0.219917
   5 C :    0.138721
   6 C :   -0.479854
   7 C :   -0.439763
   8 H :    0.225338
   9 H :    0.207436
  10 H :    0.208778
  11 H :    0.227872
  12 O :   -0.488214
  13 H :    0.247257
  14 C :   -0.280360
  15 C :   -0.514090
  16 H :    0.200971
  17 H :    0.196981
  18 C :   -0.260232
  19 H :    0.220129
  20 C :    0.154096
  21 H :    0.219813
  22 C :   -0.479556
  23 C :   -0.427541
  24 H :    0.211824
  25 H :    0.207157
  26 C :   -0.397370
  27 H :    0.208651
  28 H :    0.217398
  29 C :    0.003106
  30 H :    0.221947
  31 H :    0.194618
  32 C :   -0.230009
  33 H :    0.227924
  34 C :   -0.432972
  35 H :    0.341083
  36 C :   -0.416703
  37 H :    0.207992
  38 H :    0.198078
  39 C :   -0.187779
  40 H :    0.207404
  41 H :    0.206177
  42 H :    0.210130
  43 C :   -0.250958
  44 C :   -0.627093
  45 H :    0.205472
  46 H :    0.209064
  47 H :    0.200563
  48 H :    0.219989
  49 C :   -0.620888
  50 C :   -0.175271
  51 C :   -0.179383
  52 H :    0.207865
  53 H :    0.210687
  54 C :   -0.241941
  55 C :   -0.618287
  56 C :   -0.197240
  57 H :    0.225399
  58 H :    0.218031
  59 C :   -0.618643
  60 C :   -0.607205
  61 H :    0.198946
  62 H :    0.202347
  63 H :    0.204585
  64 H :    0.206200
  65 H :    0.196375
  66 H :    0.202597
  67 H :    0.197581
  68 H :    0.201541
  69 H :    0.197760
  70 H :    0.211310
  71 H :    0.193606
  72 H :    0.204512
Sum of atomic charges:    0.0000000

--------------------------------
MULLIKEN REDUCED ORBITAL CHARGES
--------------------------------
  0 C s       :     3.354329  s :     3.354329
      pz      :     1.003036  p :     2.567652
      px      :     0.807070
      py      :     0.757546

  1 C s       :     3.377943  s :     3.377943
      pz      :     1.131144  p :     3.122793
      px      :     0.874022
      py      :     1.117626

  2 C s       :     3.312666  s :     3.312666
      pz      :     0.707418  p :     2.761457
      px      :     1.141214
      py      :     0.912826

  3 H s       :     0.777036  s :     0.777036

  4 H s       :     0.780083  s :     0.780083

  5 C s       :     3.341432  s :     3.341432
      pz      :     0.885928  p :     2.519847
      px      :     0.867195
      py      :     0.766725

  6 C s       :     3.367251  s :     3.367251
      pz      :     1.131134  p :     3.112603
      px      :     0.889102
      py      :     1.092367

  7 C s       :     3.338585  s :     3.338585
      pz      :     1.182854  p :     3.101178
      px      :     0.966798
      py      :     0.951525

  8 H s       :     0.774662  s :     0.774662

  9 H s       :     0.792564  s :     0.792564

 10 H s       :     0.791222  s :     0.791222

 11 H s       :     0.772128  s :     0.772128

 12 O s       :     3.685016  s :     3.685016
      pz      :     1.445218  p :     4.803199
      px      :     1.454224
      py      :     1.903757

 13 H s       :     0.752743  s :     0.752743

 14 C s       :     3.394274  s :     3.394274
      pz      :     0.981933  p :     2.886086
      px      :     0.824255
      py      :     1.079898

 15 C s       :     3.385160  s :     3.385160
      pz      :     0.991222  p :     3.128930
      px      :     0.992914
      py      :     1.144794

 16 H s       :     0.799029  s :     0.799029

 17 H s       :     0.803019  s :     0.803019

 18 C s       :     3.397212  s :     3.397212
      pz      :     1.017007  p :     2.863020
      px      :     0.763892
      py      :     1.082121

 19 H s       :     0.779871  s :     0.779871

 20 C s       :     3.350960  s :     3.350960
      pz      :     0.943367  p :     2.494944
      px      :     0.757953
      py      :     0.793624

 21 H s       :     0.780187  s :     0.780187

 22 C s       :     3.372597  s :     3.372597
      pz      :     1.109796  p :     3.106959
      px      :     1.111530
      py      :     0.885634

 23 C s       :     3.327497  s :     3.327497
      pz      :     1.096439  p :     3.100044
      px      :     0.890276
      py      :     1.113329

 24 H s       :     0.788176  s :     0.788176

 25 H s       :     0.792843  s :     0.792843

 26 C s       :     3.349787  s :     3.349787
      pz      :     1.174302  p :     3.047583
      px      :     0.964565
      py      :     0.908717

 27 H s       :     0.791349  s :     0.791349

 28 H s       :     0.782602  s :     0.782602

 29 C s       :     3.317348  s :     3.317348
      pz      :     0.868678  p :     2.679546
      px      :     0.905874
      py      :     0.904995

 30 H s       :     0.778053  s :     0.778053

 31 H s       :     0.805382  s :     0.805382

 32 C s       :     3.362837  s :     3.362837
      pz      :     1.078451  p :     2.867172
      px      :     0.864059
      py      :     0.924662

 33 H s       :     0.772076  s :     0.772076

 34 C s       :     3.344661  s :     3.344661
      pz      :     1.190050  p :     3.088310
      px      :     0.935085
      py      :     0.963175

 35 H s       :     0.658917  s :     0.658917

 36 C s       :     3.336192  s :     3.336192
      pz      :     1.170061  p :     3.080511
      px      :     0.933112
      py      :     0.977338

 37 H s       :     0.792008  s :     0.792008

 38 H s       :     0.801922  s :     0.801922

 39 C s       :     3.337548  s :     3.337548
      pz      :     1.061793  p :     2.850231
      px      :     0.860546
      py      :     0.927891

 40 H s       :     0.792596  s :     0.792596

 41 H s       :     0.793823  s :     0.793823

 42 H s       :     0.789870  s :     0.789870

 43 C s       :     3.346512  s :     3.346512
      pz      :     1.077519  p :     2.904446
      px      :     0.878141
      py      :     0.948786

 44 C s       :     3.365797  s :     3.365797
      pz      :     0.956265  p :     3.261296
      px      :     1.161904
      py      :     1.143127

 45 H s       :     0.794528  s :     0.794528

 46 H s       :     0.790936  s :     0.790936

 47 H s       :     0.799437  s :     0.799437

 48 H s       :     0.780011  s :     0.780011

 49 C s       :     3.347354  s :     3.347354
      pz      :     1.148059  p :     3.273534
      px      :     1.152573
      py      :     0.972902

 50 C s       :     3.334927  s :     3.334927
      pz      :     1.059844  p :     2.840345
      px      :     0.898446
      py      :     0.882056

 51 C s       :     3.340379  s :     3.340379
      pz      :     1.056193  p :     2.839004
      px      :     0.900183
      py      :     0.882628

 52 H s       :     0.792135  s :     0.792135

 53 H s       :     0.789313  s :     0.789313

 54 C s       :     3.338028  s :     3.338028
      pz      :     1.115692  p :     2.903914
      px      :     0.874194
      py      :     0.914027

 55 C s       :     3.343461  s :     3.343461
      pz      :     1.159846  p :     3.274827
      px      :     1.162972
      py      :     0.952009

 56 C s       :     3.311383  s :     3.311383
      pz      :     0.939330  p :     2.885857
      px      :     0.988187
      py      :     0.958340

 57 H s       :     0.774601  s :     0.774601

 58 H s       :     0.781969  s :     0.781969

 59 C s       :     3.344402  s :     3.344402
      pz      :     0.965312  p :     3.274241
      px      :     1.161425
      py      :     1.147504

 60 C s       :     3.340466  s :     3.340466
      pz      :     1.161904  p :     3.266739
      px      :     1.145756
      py      :     0.959079

 61 H s       :     0.801054  s :     0.801054

 62 H s       :     0.797653  s :     0.797653

 63 H s       :     0.795415  s :     0.795415

 64 H s       :     0.793800  s :     0.793800

 65 H s       :     0.803625  s :     0.803625

 66 H s       :     0.797403  s :     0.797403

 67 H s       :     0.802419  s :     0.802419

 68 H s       :     0.798459  s :     0.798459

 69 H s       :     0.802240  s :     0.802240

 70 H s       :     0.788690  s :     0.788690

 71 H s       :     0.806394  s :     0.806394

 72 H s       :     0.795488  s :     0.795488


------------------------
MULLIKEN OVERLAP CHARGES
------------------------
B(  0-C ,  1-C ) :   0.5246 B(  0-C ,  2-C ) :  -0.1803 B(  0-C ,  3-H ) :  -0.0795 
B(  0-C ,  4-H ) :  -0.0863 B(  0-C ,  5-C ) :   0.4157 B(  0-C ,  6-C ) :  -0.1415 
B(  0-C , 14-C ) :   0.9500 B(  0-C , 15-C ) :  -0.2023 B(  0-C , 18-C ) :  -0.1865 
B(  0-C , 19-H ) :  -0.0751 B(  1-C ,  2-C ) :   0.5266 B(  1-C ,  3-H ) :   0.8090 
B(  1-C ,  4-H ) :   0.7737 B(  1-C ,  5-C ) :  -0.1408 B(  1-C ,  7-C ) :  -0.1580 
B(  1-C , 12-O ) :  -0.1099 B(  1-C , 13-H ) :  -0.0572 B(  1-C , 14-C ) :  -0.1138 
B(  2-C ,  3-H ) :  -0.0591 B(  2-C ,  4-H ) :  -0.0535 B(  2-C ,  6-C ) :  -0.1581 
B(  2-C ,  7-C ) :   0.5150 B(  2-C , 10-H ) :  -0.0624 B(  2-C , 11-H ) :  -0.0697 
B(  2-C , 12-O ) :   0.6965 B(  2-C , 13-H ) :   0.8216 B(  2-C , 35-H ) :  -0.1152 
B(  5-C ,  6-C ) :   0.5301 B(  5-C ,  7-C ) :  -0.1574 B(  5-C ,  8-H ) :  -0.0730 
B(  5-C ,  9-H ) :  -0.0939 B(  5-C , 14-C ) :  -0.1992 B(  5-C , 15-C ) :   1.0621 
B(  5-C , 16-H ) :  -0.0997 B(  5-C , 17-H ) :  -0.0951 B(  6-C ,  7-C ) :   0.5527 
B(  6-C ,  8-H ) :   0.8228 B(  6-C ,  9-H ) :   0.7937 B(  6-C , 10-H ) :  -0.0741 
B(  6-C , 11-H ) :  -0.0561 B(  6-C , 15-C ) :  -0.1298 B(  7-C ,  9-H ) :  -0.0776 
B(  7-C , 10-H ) :   0.7763 B(  7-C , 11-H ) :   0.8044 B(  7-C , 12-O ) :  -0.1079 
B(  7-C , 13-H ) :  -0.0827 B( 12-O , 35-H ) :   0.6663 B( 14-C , 18-C ) :   0.6120 
B( 14-C , 19-H ) :   0.8212 B( 14-C , 20-C ) :  -0.1942 B( 14-C , 21-H ) :  -0.0738 
B( 15-C , 16-H ) :   0.8137 B( 15-C , 17-H ) :   0.8065 B( 18-C , 19-H ) :  -0.0602 
B( 18-C , 20-C ) :   0.9185 B( 18-C , 21-H ) :   0.8334 B( 18-C , 22-C ) :  -0.1508 
B( 18-C , 32-C ) :  -0.1495 B( 20-C , 21-H ) :  -0.0831 B( 20-C , 22-C ) :   0.5335 
B( 20-C , 23-C ) :  -0.1722 B( 20-C , 24-H ) :  -0.0673 B( 20-C , 25-H ) :  -0.0918 
B( 20-C , 29-C ) :  -0.1247 B( 20-C , 32-C ) :   0.5185 B( 20-C , 33-H ) :  -0.0915 
[...]
        0.0000         2.9217        0.0000
        0.0000         0.0000        2.9217

 Diagonalized JT*J matrix:
 
 J[55,60](FC)             2.922            2.922            2.922  iso=      2.922
                ---------------  ---------------  ---------------  ---------------
 J[55,60](Total)          2.922            2.922            2.922  iso=      2.922



-----------------------------------------------------------
 NUCLEUS A = C   56 NUCLEUS B = C   59 
 ( 13C  gnA =  1.405  13C  gnB =  1.405) r(AB) =     1.5308
-----------------------------------------------------------

Fermi-contact contribution to J (Hz):
       26.4361         0.0000        0.0000
        0.0000        26.4361        0.0000
        0.0000         0.0000       26.4361

Total spin-spin coupling tensor J (Hz):
       26.4361         0.0000        0.0000
        0.0000        26.4361        0.0000
        0.0000         0.0000       26.4361

 Diagonalized JT*J matrix:
 
 J[56,59](FC)            26.436           26.436           26.436  iso=     26.436
                ---------------  ---------------  ---------------  ---------------
 J[56,59](Total)         26.436           26.436           26.436  iso=     26.436



-----------------------------------------------------------
 NUCLEUS A = C   56 NUCLEUS B = C   60 
 ( 13C  gnA =  1.405  13C  gnB =  1.405) r(AB) =     1.5293
-----------------------------------------------------------

Fermi-contact contribution to J (Hz):
       27.4581         0.0000        0.0000
        0.0000        27.4581        0.0000
        0.0000         0.0000       27.4581

Total spin-spin coupling tensor J (Hz):
       27.4581         0.0000        0.0000
        0.0000        27.4581        0.0000
        0.0000         0.0000       27.4581

 Diagonalized JT*J matrix:
 
 J[56,60](FC)            27.458           27.458           27.458  iso=     27.458
                ---------------  ---------------  ---------------  ---------------
 J[56,60](Total)         27.458           27.458           27.458  iso=     27.458



-----------------------------------------------------------
 NUCLEUS A = C   59 NUCLEUS B = C   60 
 ( 13C  gnA =  1.405  13C  gnB =  1.405) r(AB) =     2.5114
-----------------------------------------------------------

Fermi-contact contribution to J (Hz):
       -0.9473         0.0000        0.0000
        0.0000        -0.9473        0.0000
        0.0000         0.0000       -0.9473

Total spin-spin coupling tensor J (Hz):
       -0.9473         0.0000        0.0000
        0.0000        -0.9473        0.0000
        0.0000         0.0000       -0.9473

 Diagonalized JT*J matrix:
 
 J[59,60](FC)            -0.947           -0.947           -0.947  iso=     -0.947
                ---------------  ---------------  ---------------  ---------------
 J[59,60](Total)         -0.947           -0.947           -0.947  iso=     -0.947



-----------------------------------------------------------------------------
                SUMMARY OF ISOTROPIC COUPLING CONSTANTS J (Hz)                
-----------------------------------------------------------------------------
                  0 C        1 C        2 C        5 C        6 C        7 C  
      0 C        0.000     33.141     -3.762     41.315     -0.887      2.280
      1 C       33.141      0.000     23.385     -1.204      1.439     -0.668
      2 C       -3.762     23.385      0.000      2.296     -2.773     25.891
      5 C       41.315     -1.204      2.296      0.000     30.339     -2.776
      6 C       -0.887      1.439     -2.773     30.339      0.000     24.847
      7 C        2.280     -0.668     25.891     -2.776     24.847      0.000
     14 C       69.365     -0.370      2.839     -3.016      2.178     -0.620
     15 C       -3.414      2.418     -0.865     64.554     -1.067      2.601
     18 C       -2.400      4.173     -1.100      3.181     -0.814      0.191
     20 C        6.815     -1.103      1.090     -1.389      0.606     -0.102
     22 C       -0.925      0.328     -0.331      0.424     -0.181      0.038
     23 C        0.822     -0.286      0.281     -0.342      0.152      0.000
     26 C       -0.094      0.039      0.000      0.049      0.000      0.000
     29 C        1.164     -0.366      0.000     -0.449      0.207      0.000
     32 C       -1.122      0.545     -0.376      0.472     -0.213      0.045
     34 C        0.022     -0.015      0.014     -0.015      0.005     -0.001
     36 C       -0.016      0.000      0.000      0.016     -0.008      0.000
     39 C       -0.070      0.000      0.000      0.030      0.000      0.000
     43 C        0.000      0.000      0.000      0.000      0.000      0.000
     44 C        0.009     -0.003      0.000     -0.002     -0.003      0.000
     49 C        0.000      0.000      0.000      0.000      0.000      0.000
     50 C        0.000      0.000      0.000      0.000      0.000      0.000
     51 C        0.000      0.000      0.000      0.000      0.000      0.000
     54 C        0.000      0.000      0.000      0.000      0.000      0.000
     55 C        0.000      0.000      0.000      0.000      0.000      0.000
     56 C        0.000      0.000      0.000      0.000      0.000      0.000
     59 C        0.000      0.000      0.000      0.000      0.000      0.000
     60 C        0.000      0.000      0.000      0.000      0.000      0.000
                 14 C       15 C       18 C       20 C       22 C       23 C  
      0 C       69.365     -3.414     -2.400      6.815     -0.925      0.822
      1 C       -0.370      2.418      4.173     -1.103      0.328     -0.286
      2 C        2.839     -0.865     -1.100      1.090     -0.331      0.281
      5 C       -3.016     64.554      3.181     -1.389      0.424     -0.342
      6 C        2.178     -1.067     -0.814      0.606     -0.181      0.152
      7 C       -0.620      2.601      0.191     -0.102      0.038      0.000
     14 C        0.000      3.103     54.135     -2.639      3.788     -0.918
     15 C        3.103      0.000     -1.146      1.010     -0.273      0.253
     18 C       54.135     -1.146      0.000     69.970     -2.159      2.356
     20 C       -2.639      1.010     69.970      0.000     32.144     -2.972
     22 C        3.788     -0.273     -2.159     32.144      0.000     24.245
     23 C       -0.918      0.253      2.356     -2.972     24.245      0.000
     26 C        0.136     -0.034     -0.353      1.024     -1.924     25.412
     29 C       -1.133      0.327      2.282     -2.442      1.080     -2.219
     32 C        4.380     -0.316     -1.288     36.800     -0.212      1.530
     34 C        0.071      0.003      2.463     -1.373      1.612     -0.265
     36 C        0.015     -0.014     -0.145      3.419      0.073      0.165
     39 C        0.255     -0.023     -0.044      2.895     -0.333      2.539
     43 C        0.008      0.017      0.279      0.179      0.001     -0.115
     44 C        0.006      0.026     -0.054      0.691     -0.134      0.587
     49 C        0.000      0.000     -0.009     -0.050      0.138      0.044
     50 C        0.000      0.000      0.022      0.129     -0.005      0.118
     51 C        0.000      0.000      0.016      0.048      0.000     -0.003
     54 C        0.000      0.000      0.000      0.000      0.000      0.000
     55 C        0.000      0.000      0.000      0.000      0.000      0.000
     56 C        0.000      0.000      0.000      0.000      0.000      0.000
     59 C        0.000      0.000      0.000      0.000      0.000      0.000
     60 C        0.000      0.000      0.000      0.000      0.000      0.000
                 26 C       29 C       32 C       34 C       36 C       39 C  
      0 C       -0.094      1.164     -1.122      0.022     -0.016     -0.070
      1 C        0.039     -0.366      0.545     -0.015      0.000      0.000
      2 C        0.000      0.000     -0.376      0.014      0.000      0.000
      5 C        0.049     -0.449      0.472     -0.015      0.016      0.030
      6 C        0.000      0.207     -0.213      0.005     -0.008      0.000
      7 C        0.000      0.000      0.045     -0.001      0.000      0.000
     14 C        0.136     -1.133      4.380      0.071      0.015      0.255
     15 C       -0.034      0.327     -0.316      0.003     -0.014     -0.023
     18 C       -0.353      2.282     -1.288      2.463     -0.145     -0.044
     20 C        1.024     -2.442     36.800     -1.373      3.419      2.895
     22 C       -1.924      1.080     -0.212      1.612      0.073     -0.333
     23 C       25.412     -2.219      1.530     -0.265      0.165      2.539
     26 C        0.000     27.847     -0.921      2.267      3.031     -0.601
     29 C       27.847      0.000     23.114      0.842      0.767     28.422
     32 C       -0.921     23.114      0.000     27.922      1.168      3.391
     34 C        2.267      0.842     27.922      0.000     25.941      0.184
     36 C        3.031      0.767      1.168     25.941      0.000     26.900
     39 C       -0.601     28.422      3.391      0.184     26.900      0.000
     43 C       -0.021     -0.633      2.711      1.826      0.347     28.870
     44 C       -0.578     27.282     -0.967      0.807      0.300     -1.188
     49 C        0.354      0.058     -0.032      0.046      3.223     -1.245
     50 C       -0.118      3.559     -0.093     -0.039      0.701     -1.838
     51 C       -0.023      0.225      0.126      0.068     -0.001      3.235
     54 C       -0.001      0.083     -0.016     -0.005     -0.032     -0.525
     55 C        0.000      0.104      0.032     -0.004     -0.012      0.799
     56 C        0.000      0.003      0.000      0.008      0.050      0.563
     59 C        0.000     -0.000      0.000      0.000     -0.001     -0.010
     60 C       -0.000     -0.002      0.000      0.000     -0.001      0.015
                 43 C       44 C       49 C       50 C       51 C       54 C  
      0 C        0.000      0.009      0.000      0.000      0.000      0.000
      1 C        0.000     -0.003      0.000      0.000      0.000      0.000
      2 C        0.000      0.000      0.000      0.000      0.000      0.000
      5 C        0.000     -0.002      0.000      0.000      0.000      0.000
      6 C        0.000     -0.003      0.000      0.000      0.000      0.000
      7 C        0.000      0.000      0.000      0.000      0.000      0.000
     14 C        0.008      0.006      0.000      0.000      0.000      0.000
     15 C        0.017      0.026      0.000      0.000      0.000      0.000
     18 C        0.279     -0.054     -0.009      0.022      0.016      0.000
     20 C        0.179      0.691     -0.050      0.129      0.048      0.000
     22 C        0.001     -0.134      0.138     -0.005      0.000      0.000
     23 C       -0.115      0.587      0.044      0.118     -0.003      0.000
     26 C       -0.021     -0.578      0.354     -0.118     -0.023     -0.001
     29 C       -0.633     27.282      0.058      3.559      0.225      0.083
     32 C        2.711     -0.967     -0.032     -0.093      0.126     -0.016
     34 C        1.826      0.807      0.046     -0.039      0.068     -0.005
     36 C        0.347      0.300      3.223      0.701     -0.001     -0.032
     39 C       28.870     -1.188     -1.245     -1.838      3.235     -0.525
     43 C        0.000      1.459     25.829     35.920     -0.336      4.039
     44 C        1.459      0.000     -0.114     -0.168     -0.005      0.001
     49 C       25.829     -0.114      0.000     -3.099      3.504     -0.805
     50 C       35.920     -0.168     -3.099      0.000     69.005     -0.586
     51 C       -0.336     -0.005      3.504     69.005      0.000     35.783
     54 C        4.039      0.001     -0.805     -0.586     35.783      0.000
     55 C       -0.537     -0.002      0.816      3.753     -2.079     26.895
     56 C       -0.606      0.001      1.172      2.947     -2.870     25.393
     59 C       -0.002      0.000     -0.007     -0.045      1.706     -1.597
     60 C       -0.008      0.000     -0.063     -0.119      0.535     -0.369
                 55 C       56 C       59 C       60 C  
      0 C        0.000      0.000      0.000      0.000
      1 C        0.000      0.000      0.000      0.000
      2 C        0.000      0.000      0.000      0.000
      5 C        0.000      0.000      0.000      0.000
      6 C        0.000      0.000      0.000      0.000
      7 C        0.000      0.000      0.000      0.000
     14 C        0.000      0.000      0.000      0.000
     15 C        0.000      0.000      0.000      0.000
     18 C        0.000      0.000      0.000      0.000
     20 C        0.000      0.000      0.000      0.000
     22 C        0.000      0.000      0.000      0.000
     23 C        0.000      0.000      0.000      0.000
     26 C        0.000      0.000      0.000     -0.000
     29 C        0.104      0.003     -0.000     -0.002
     32 C        0.032      0.000      0.000      0.000
     34 C       -0.004      0.008      0.000      0.000
     36 C       -0.012      0.050     -0.001     -0.001
     39 C        0.799      0.563     -0.010      0.015
     43 C       -0.537     -0.606     -0.002     -0.008
     44 C       -0.002      0.001      0.000      0.000
     49 C        0.816      1.172     -0.007     -0.063
     50 C        3.753      2.947     -0.045     -0.119
     51 C       -2.079     -2.870      1.706      0.535
     54 C       26.895     25.393     -1.597     -0.369
     55 C        0.000     -0.808      0.911      2.922
     56 C       -0.808      0.000     26.436     27.458
     59 C        0.911     26.436      0.000     -0.947
     60 C        2.922     27.458     -0.947      0.000

NMR spin-spin coupling calculation done in   0.3 sec 

Maximum memory used throughout the entire PROP-calculation: 34.1 MB

--------------------------------
SUGGESTED CITATIONS FOR THIS RUN
--------------------------------

Below you find a list of papers that are relevant to this ORCA run
We neither can nor want to force you to cite these papers, but we appreciate if you do
You receive ORCA, which is the product of decades of hard work by many enthusiastic individuals, for free
The only thing we kindly ask in return is that you cite our papers,
We deeply appreciate it, if you show your appreciation for ORCA by not just citing the generic ORCA reference.

Please note that relegating all ORCA citations to the supporting information does *not* help us.
SI sections are not indexed - citations you put there will not count into any citation statistics
But we need these citations in order to attract the funding resources that allow us to do what we are doing

Therefore, if you are a happy ORCA user, please consider citing a few of the papers listed below in the main body of your paper

In addition to the list printed below, the program has created the file inpJ.bibtex that contains the list in bibtex format
You can import this file easily into all common literature databanks and citation aid programs


List of essential papers. We consider these as the minimum necessary citations

  1. Neese,F.
     Software update: the ORCA program system, version 5.0
     WIRES Comput. Molec. Sci., 2022 12(1)e1606
     doi.org/10.1002/wcms.1606

List of papers to cite with high priority. The work reported in these papers was absolutely
necessary for this run to complete.
Our perspective: the developers of density functionals and basis sets usually get cited in chemistry papers
Good! But without the algorithms to do something with them, the functionals or basis sets would not do anything.
Hence, in our opinion, the algorithm design and method developments papers are equally worthy of getting cited

  1. Neese,F.
     An improvement of the resolution of the identity approximation for the formation of the Coulomb matrix
     J. Comp. Chem., 2003 24(14)1740-1747
     doi.org/10.1002/jcc.10318
  2. Neese,F.; Wennmohs,F.; Hansen,A.; Becker,U.
     Efficient, approximate and parallel Hartree-Fock and hybrid DFT calculations. A 'chain-of-spheres' algorithm for the Hartree-Fock exchange
     Chem. Phys., 2009 356(1-3)98-109
     doi.org/10.1016/j.chemphys.2008.10.036
  3. Stoychev,G.L.; Auer,A.A.; Izsak,R.; Neese,F.
     Self-Consistent Field Calculation of Nuclear Magnetic Resonance Chemical Shielding Constants Using Gauge-Including Atomic Orbitals and Approximate Two-Electron Integrals
     J. Chem. Theory Comput., 2018 14(2)619-637
     doi.org/10.1021/acs.jctc.7b01006
  4. Garcia-Rates,M.; Neese,F.
     Effect of the Solute Cavity on the Solvation Energy and its Derivatives within the Framework of the Gaussian Charge Scheme
     J. Comput. Chem., 2020 41 922-939
     doi.org/10.1002/jcc.26139
  5. Helmich-Paris,B.; de Souza,B.; Neese,F.; Izsák,R.
     An improved chain of spheres for exchange algorithm
     J. Chem. Phys., 2021 155 104109
     doi.org/doi: 10.1063/5.0058766.
  6. Neese,F.
     The SHARK Integral Generation and Digestion System
     J. Comp. Chem., 2022  1-16
     doi.org/10.1002/jcc.26942
  7. Grimme,S.; Bannwarth,C.; Dohm,S.; Hansen,A.; Pisarek,J.; Pracht,P.; Seibert,J.; Neese,F.
     Fully Automated Quantum-Chemistry-Based Computation of Spin-Spin-Coupled Nuclear Magnetic Resonance Spectra
     Angew. Chem., Int. Ed., 2017 56 14763-14769
     doi.org/10.1002/anie.201708266
  8. Caldeweyher,E.; Bannwarth,C.; Grimme,S.
     Extension of the D3 dispersion coefficient model
     J. Chem. Phys., 2017 147 034112-XXXX
     doi.org/10.1063/1.4993215
  9. Caldeweyher,E.; Ehlert,S.; Hansen,A.; Neugebauer,H.; Spicher,S.; Bannwarth,C.; Grimme,S.
     A generally applicable atomic-charge dependent London dispersion correction
     J. Chem. Phys., 2019 150 154122-XXXX
     doi.org/10.1063/1.5090222
 10. Caldeweyher,E.; Mewes,J.; Ehlert,S.; Grimme,S.
     Extension and evaluation of the D4 London-dispersion model for periodic systems
     Phys. Chem. Chem. Phys., 2020 22(16)8499-8512
     doi.org/10.1039/D0CP00502A

List of suggested additional citations. These are papers that are important in the 'surrounding' of 
of this run, or papers that preceded the highly important papers. If you like your results we are grateful for a citation.

  1. Izsak,R.; Neese,F.
     An overlap fitted chain of spheres exchange method
     J. Chem. Phys., 2011 135 144105
     doi.org/10.1063/1.3646921
  2. Izsak,R.; Hansen,A.; Neese,F.
     The resolution of identity and chain of spheres approximations for the LPNO-CCSD singles Fock term
     Molec. Phys., 2012 110 2413-2417
     doi.org/10.1080/00268976.2012.687466
  3. Neese,F.
     The ORCA program system
     WIRES Comput. Molec. Sci., 2012 2(1)73-78
     doi.org/10.1002/wcms.81
  4. Izsak,R.; Neese,F.; Klopper,W.
     Robust fitting techniques in the chain of spheres approximation to the Fock exchange: The role of the complementary space
     J. Chem. Phys., 2013 139 
     doi.org/10.1063/1.4819264
  5. Neese,F.
     Software update: the ORCA program system, version 4.0
     WIRES Comput. Molec. Sci., 2018 8(1)1-6
     doi.org/10.1002/wcms.1327
  6. Neese,F.; Wennmohs,F.; Becker,U.; Riplinger,C.
     The ORCA quantum chemistry program package
     J. Chem. Phys., 2020 152 Art. No. L224108
     doi.org/10.1063/5.0004608

Timings for individual modules:

Sum of individual times          ...      137.351 sec (=   2.289 min)
Startup calculation              ...        3.734 sec (=   0.062 min)   2.7 %
SCF iterations                   ...       19.261 sec (=   0.321 min)  14.0 %
Property integrals               ...        0.751 sec (=   0.013 min)   0.5 %
SCF Response                     ...      113.042 sec (=   1.884 min)  82.3 %
Property calculations            ...        0.562 sec (=   0.009 min)   0.4 %
                             ****ORCA TERMINATED NORMALLY****
TOTAL RUN TIME: 0 days 0 hours 2 minutes 17 seconds 603 msec
