
                                 *****************
                                 * O   R   C   A *
                                 *****************

                                            #,                                       
                                            ###                                      
                                            ####                                     
                                            #####                                    
                                            ######                                   
                                           ########,                                 
                                     ,,################,,,,,                         
                               ,,#################################,,                 
                          ,,##########################################,,             
                       ,#########################################, ''#####,          
                    ,#############################################,,   '####,        
                  ,##################################################,,,,####,       
                ,###########''''           ''''###############################       
              ,#####''   ,,,,##########,,,,          '''####'''          '####       
            ,##' ,,,,###########################,,,                        '##       
           ' ,,###''''                  '''############,,,                           
         ,,##''                                '''############,,,,        ,,,,,,###''
      ,#''                                            '''#######################'''  
     '                                                          ''''####''''         
             ,#######,   #######,   ,#######,      ##                                
            ,#'     '#,  ##    ##  ,#'     '#,    #''#        ######   ,####,        
            ##       ##  ##   ,#'  ##            #'  '#       #        #'  '#        
            ##       ##  #######   ##           ,######,      #####,   #    #        
            '#,     ,#'  ##    ##  '#,     ,#' ,#      #,         ##   #,  ,#        
             '#######'   ##     ##  '#######'  #'      '#     #####' # '####'        



                  #######################################################
                  #                        -***-                        #
                  #          Department of theory and spectroscopy      #
                  #    Directorship and core code : Frank Neese         #
                  #        Max Planck Institute fuer Kohlenforschung    #
                  #                Kaiser Wilhelm Platz 1               #
                  #                 D-45470 Muelheim/Ruhr               #
                  #                      Germany                        #
                  #                                                     #
                  #                  All rights reserved                #
                  #                        -***-                        #
                  #######################################################


                         Program Version 5.0.2 -  RELEASE  -


 With contributions from (in alphabetic order):
   Daniel Aravena         : Magnetic Suceptibility
   Michael Atanasov       : Ab Initio Ligand Field Theory (pilot matlab implementation)
   Alexander A. Auer      : GIAO ZORA, VPT2 properties, NMR spectrum
   Ute Becker             : Parallelization
   Giovanni Bistoni       : ED, misc. LED, open-shell LED, HFLD
   Martin Brehm           : Molecular dynamics
   Dmytro Bykov           : SCF Hessian
   Vijay G. Chilkuri      : MRCI spin determinant printing, contributions to CSF-ICE
   Dipayan Datta          : RHF DLPNO-CCSD density
   Achintya Kumar Dutta   : EOM-CC, STEOM-CC
   Dmitry Ganyushin       : Spin-Orbit,Spin-Spin,Magnetic field MRCI
   Miquel Garcia          : C-PCM and meta-GGA Hessian, CC/C-PCM, Gaussian charge scheme
   Yang Guo               : DLPNO-NEVPT2, F12-NEVPT2, CIM, IAO-localization
   Andreas Hansen         : Spin unrestricted coupled pair/coupled cluster methods
   Benjamin Helmich-Paris : MC-RPA, TRAH-SCF, COSX integrals
   Lee Huntington         : MR-EOM, pCC
   Robert Izsak           : Overlap fitted RIJCOSX, COSX-SCS-MP3, EOM
   Marcus Kettner         : VPT2
   Christian Kollmar      : KDIIS, OOCD, Brueckner-CCSD(T), CCSD density, CASPT2, CASPT2-K
   Simone Kossmann        : Meta GGA functionals, TD-DFT gradient, OOMP2, MP2 Hessian
   Martin Krupicka        : Initial AUTO-CI
   Lucas Lang             : DCDCAS
   Marvin Lechner         : AUTO-CI (C++ implementation), FIC-MRCC
   Dagmar Lenk            : GEPOL surface, SMD
   Dimitrios Liakos       : Extrapolation schemes; Compound Job, initial MDCI parallelization
   Dimitrios Manganas     : Further ROCIS development; embedding schemes
   Dimitrios Pantazis     : SARC Basis sets
   Anastasios Papadopoulos: AUTO-CI, single reference methods and gradients
   Taras Petrenko         : DFT Hessian,TD-DFT gradient, ASA, ECA, R-Raman, ABS, FL, XAS/XES, NRVS
   Peter Pinski           : DLPNO-MP2, DLPNO-MP2 Gradient
   Christoph Reimann      : Effective Core Potentials
   Marius Retegan         : Local ZFS, SOC
   Christoph Riplinger    : Optimizer, TS searches, QM/MM, DLPNO-CCSD(T), (RO)-DLPNO pert. Triples
   Tobias Risthaus        : Range-separated hybrids, TD-DFT gradient, RPA, STAB
   Michael Roemelt        : Original ROCIS implementation
   Masaaki Saitow         : Open-shell DLPNO-CCSD energy and density
   Barbara Sandhoefer     : DKH picture change effects
   Avijit Sen             : IP-ROCIS
   Kantharuban Sivalingam : CASSCF convergence, NEVPT2, FIC-MRCI
   Bernardo de Souza      : ESD, SOC TD-DFT
   Georgi Stoychev        : AutoAux, RI-MP2 NMR, DLPNO-MP2 response
   Willem Van den Heuvel  : Paramagnetic NMR
   Boris Wezisla          : Elementary symmetry handling
   Frank Wennmohs         : Technical directorship


 We gratefully acknowledge several colleagues who have allowed us to
 interface, adapt or use parts of their codes:
   Stefan Grimme, W. Hujo, H. Kruse, P. Pracht,  : VdW corrections, initial TS optimization,
                  C. Bannwarth, S. Ehlert          DFT functionals, gCP, sTDA/sTD-DF
   Ed Valeev, F. Pavosevic, A. Kumar             : LibInt (2-el integral package), F12 methods
   Garnet Chan, S. Sharma, J. Yang, R. Olivares  : DMRG
   Ulf Ekstrom                                   : XCFun DFT Library
   Mihaly Kallay                                 : mrcc  (arbitrary order and MRCC methods)
   Jiri Pittner, Ondrej Demel                    : Mk-CCSD
   Frank Weinhold                                : gennbo (NPA and NBO analysis)
   Christopher J. Cramer and Donald G. Truhlar   : smd solvation model
   Lars Goerigk                                  : TD-DFT with DH, B97 family of functionals
   V. Asgeirsson, H. Jonsson                     : NEB implementation
   FAccTs GmbH                                   : IRC, NEB, NEB-TS, DLPNO-Multilevel, CI-OPT
                                                   MM, QMMM, 2- and 3-layer-ONIOM, Crystal-QMMM,
                                                   LR-CPCM, SF, NACMEs, symmetry and pop. for TD-DFT,
                                                   nearIR, NL-DFT gradient (VV10), updates on ESD,
                                                   ML-optimized integration grids
   S Lehtola, MJT Oliveira, MAL Marques          : LibXC Library
   Liviu Ungur et al                             : ANISO software


 Your calculation uses the libint2 library for the computation of 2-el integrals
 For citations please refer to: http://libint.valeyev.net

 Your ORCA version has been built with support for libXC version: 5.1.0
 For citations please refer to: https://tddft.org/programs/libxc/

 This ORCA versions uses:
   CBLAS   interface :  Fast vector & matrix operations
   LAPACKE interface :  Fast linear algebra routines
   SCALAPACK package :  Parallel linear algebra routines
   Shared memory     :  Shared parallel matrices
   BLAS/LAPACK       :  OpenBLAS 0.3.15  USE64BITINT DYNAMIC_ARCH NO_AFFINITY Zen SINGLE_THREADED
        Core in use  :  Zen
   Copyright (c) 2011-2014, The OpenBLAS Project


Your calculation utilizes the atom-pairwise dispersion correction
based on tight binding partial charges (D4)
Cite in your paper:
E.Caldeweyher, C.Bannwarth, S.Grimme, J.Chem.Phys., (2017), 147, 034112.
E.Caldeweyher, S.Ehlert, A.Hansen, H.Neugebauer, S.Grimme, J.Chem.Phys., (2018), in progress.
   

================================================================================

----- Orbital basis set information -----
Your calculation utilizes the basis: pcSseg-1
   F. Jensen, J. Chem. Theory Comput. 11, 132 (2015).

----- AuxJ basis set information -----
Your calculation utilizes the auxiliary basis: def2/J
   F. Weigend, Phys. Chem. Chem. Phys. 8, 1057 (2006).

================================================================================
                                        WARNINGS
                       Please study these warnings very carefully!
================================================================================



WARNING: Found flag for RIJCOSX approximation but no HF exchange needed!
  ===> : RIJCOSX  will be disabled and Split-RI-J is turned on

INFO   : the flag for use of the SHARK integral package has been found!

================================================================================
                                       INPUT FILE
================================================================================
NAME = inpS
|  1> ! revTPSS
|  2> ! D4
|  3> ! pcSseg-1
|  4> ! def2/J RIJCOSX
|  5> ! DEFGRID2
|  6> ! scfconv7
|  7> ! smallprint printgap noloewdin
|  8> ! NOSOSCF
|  9> %MaxCore 4000
| 10> %output
| 11>        print[P_BondOrder_M] 1
| 12>        print[P_Mayer] 1
| 13>        print[P_basis] 2
| 14> end
| 15> %pal
| 16>     nprocs 4
| 17> end
| 18> ! CPCM(chloroform)
| 19> *xyz 0 1
| 20> C   -5.3006659000   0.1265676400  -0.6836427900
| 21> C   -6.7046338400  -0.3621446600  -0.9515300900
| 22> C   -7.7237623700   0.4800214800  -0.1739676500
| 23> H   -6.8056613300  -1.4189978000  -0.6797440400
| 24> H   -6.9359186200  -0.2643008400  -2.0226796900
| 25> C   -5.1083273500   1.5721407900  -0.9346864500
| 26> C   -6.1471188400   2.4645467700  -0.2916216200
| 27> C   -7.5749355200   1.9574966800  -0.5399362400
| 28> H   -6.0357299000   3.4936078000  -0.6494671300
| 29> H   -5.9635872000   2.4806990600   0.7935741100
| 30> H   -7.8285582100   2.0763607900  -1.6022158900
| 31> H   -8.2911547100   2.5521344000   0.0388975500
| 32> O   -7.5868444900   0.2661198100   1.2405933700
| 33> H   -8.7387557500   0.1433785100  -0.4187935000
| 34> C   -4.3514567200  -0.7061314900  -0.1937299800
| 35> C   -4.1228742100   2.0556042600  -1.6991703700
| 36> H   -3.3957117700   1.3976321000  -2.1676055900
| 37> H   -4.0282760900   3.1236631100  -1.8809178400
| 38> C   -3.0117862200  -0.3359281300   0.2016662500
| 39> H   -4.6470486100  -1.7457521200  -0.0577632800
| 40> C   -2.0295892500  -1.1785503100   0.5870001700
| 41> H   -2.7937361000   0.7296159900   0.1950205400
| 42> C   -2.1292091600  -2.6819502900   0.6301169400
| 43> C   -1.0082724000  -3.3447996800  -0.1932458100
| 44> H   -3.1016870700  -3.0443104400   0.2864469900
| 45> H   -2.0174878400  -2.9990483200   1.6791975300
| 46> C    0.3853587000  -2.8176257800   0.1732622600
| 47> H   -1.2005916600  -3.1758296600  -1.2603334500
| 48> H   -1.0421954300  -4.4302061700  -0.0383895300
| 49> C    0.4608156600  -1.2871420700   0.0810089200
| 50> H    1.1263298000  -3.2937760300  -0.4768825400
| 51> H    0.6245545500  -3.1156942300   1.2053100500
| 52> C   -0.6672101800  -0.7083180700   0.9953192500
| 53> H   -0.4704837000  -1.1516726500   1.9888037400
| 54> C   -0.3432792500   0.7788040600   1.0911849900
| 55> H   -6.6412743000   0.2536201000   1.4459978100
| 56> C    1.2050940300   0.8136897500   1.1011652700
| 57> H   -0.7839056000   1.2403226300   1.9810278700
| 58> H   -0.7326115700   1.3183846100   0.2207658000
| 59> C    1.6989313900  -0.6219191600   0.7435475600
| 60> H    1.5963885200   1.1264696400   2.0742081000
| 61> H    1.5778869700   1.5361010400   0.3649472300
| 62> H    1.8872194800  -1.1710073700   1.6804824100
| 63> C    3.0405704700  -0.5979402300  -0.0292938600
| 64> C    0.2904047900  -0.8094737200  -1.3679975300
| 65> H    0.4565567200   0.2686503400  -1.4596135600
| 66> H   -0.7173625300  -1.0173865900  -1.7404829700
| 67> H    1.0048703500  -1.3127750000  -2.0285982000
| 68> H    2.8720107800  -0.0035504900  -0.9426865700
| 69> C    3.5295357100  -1.9841770100  -0.4461740100
| 70> C    4.0558487700   0.1585214100   0.7971517800
| 71> C    5.1494017100  -0.3529498300   1.3649766200
| 72> H    3.8303651100   1.2134480000   0.9467721300
| 73> H    5.3692719200  -1.4103856900   1.2209781700
| 74> C    6.1472825100   0.3875961700   2.2170451700
| 75> C    5.7508744800   1.8307692200   2.5257220300
| 76> C    7.5866025900   0.2973306100   1.6332775900
| 77> H    6.1922944600  -0.1514503600   3.1790672500
| 78> H    8.2306903500   0.8423059700   2.3402541000
| 79> C    7.7121968300   0.9673459100   0.2636132100
| 80> C    8.0933727300  -1.1461740500   1.5679264000
| 81> H    5.6409579800   2.4308712400   1.6164239600
| 82> H    6.5138246900   2.3063692100   3.1515403600
| 83> H    4.7973533500   1.8687370700   3.0635354000
| 84> H    7.4308477200   2.0246057000   0.2963131900
| 85> H    7.0670476300   0.4685989500  -0.4696794700
| 86> H    8.7447112900   0.9076477000  -0.0982027200
| 87> H    7.9539447500  -1.6639636800   2.5242205200
| 88> H    9.1616203000  -1.1652908100   1.3252199900
| 89> H    7.5725118300  -1.7191936600   0.7921448600
| 90> H    2.8789314700  -2.4198586500  -1.2069511200
| 91> H    3.5580271600  -2.6722169300   0.4070225200
| 92> H    4.5388174000  -1.9251472600  -0.8680940600
| 93> *
| 94> %eprnmr
| 95>  Nuclei = all H { shift }
| 96>  origin giao
| 97>  giao_2el giao_2el_same_as_scf
| 98>  giao_1el giao_1el_analytic
| 99> end
|100> 
|101>                          ****END OF INPUT****
================================================================================

                       ****************************
                       * Single Point Calculation *
                       ****************************

---------------------------------
CARTESIAN COORDINATES (ANGSTROEM)
---------------------------------
  C     -5.300666    0.126568   -0.683643
  C     -6.704634   -0.362145   -0.951530
  C     -7.723762    0.480021   -0.173968
  H     -6.805661   -1.418998   -0.679744
  H     -6.935919   -0.264301   -2.022680
  C     -5.108327    1.572141   -0.934686
  C     -6.147119    2.464547   -0.291622
  C     -7.574936    1.957497   -0.539936
  H     -6.035730    3.493608   -0.649467
  H     -5.963587    2.480699    0.793574
  H     -7.828558    2.076361   -1.602216
  H     -8.291155    2.552134    0.038898
  O     -7.586844    0.266120    1.240593
  H     -8.738756    0.143379   -0.418793
  C     -4.351457   -0.706131   -0.193730
  C     -4.122874    2.055604   -1.699170
  H     -3.395712    1.397632   -2.167606
  H     -4.028276    3.123663   -1.880918
  C     -3.011786   -0.335928    0.201666
  H     -4.647049   -1.745752   -0.057763
  C     -2.029589   -1.178550    0.587000
  H     -2.793736    0.729616    0.195021
  C     -2.129209   -2.681950    0.630117
  C     -1.008272   -3.344800   -0.193246
  H     -3.101687   -3.044310    0.286447
  H     -2.017488   -2.999048    1.679198
  C      0.385359   -2.817626    0.173262
  H     -1.200592   -3.175830   -1.260333
  H     -1.042195   -4.430206   -0.038390
  C      0.460816   -1.287142    0.081009
  H      1.126330   -3.293776   -0.476883
  H      0.624555   -3.115694    1.205310
  C     -0.667210   -0.708318    0.995319
  H     -0.470484   -1.151673    1.988804
  C     -0.343279    0.778804    1.091185
  H     -6.641274    0.253620    1.445998
  C      1.205094    0.813690    1.101165
  H     -0.783906    1.240323    1.981028
  H     -0.732612    1.318385    0.220766
  C      1.698931   -0.621919    0.743548
  H      1.596389    1.126470    2.074208
  H      1.577887    1.536101    0.364947
  H      1.887219   -1.171007    1.680482
  C      3.040570   -0.597940   -0.029294
  C      0.290405   -0.809474   -1.367998
  H      0.456557    0.268650   -1.459614
  H     -0.717363   -1.017387   -1.740483
  H      1.004870   -1.312775   -2.028598
  H      2.872011   -0.003550   -0.942687
  C      3.529536   -1.984177   -0.446174
  C      4.055849    0.158521    0.797152
  C      5.149402   -0.352950    1.364977
  H      3.830365    1.213448    0.946772
  H      5.369272   -1.410386    1.220978
  C      6.147283    0.387596    2.217045
  C      5.750874    1.830769    2.525722
  C      7.586603    0.297331    1.633278
  H      6.192294   -0.151450    3.179067
  H      8.230690    0.842306    2.340254
  C      7.712197    0.967346    0.263613
  C      8.093373   -1.146174    1.567926
  H      5.640958    2.430871    1.616424
  H      6.513825    2.306369    3.151540
  H      4.797353    1.868737    3.063535
  H      7.430848    2.024606    0.296313
  H      7.067048    0.468599   -0.469679
  H      8.744711    0.907648   -0.098203
  H      7.953945   -1.663964    2.524221
  H      9.161620   -1.165291    1.325220
  H      7.572512   -1.719194    0.792145
  H      2.878931   -2.419859   -1.206951
  H      3.558027   -2.672217    0.407023
  H      4.538817   -1.925147   -0.868094

----------------------------
CARTESIAN COORDINATES (A.U.)
----------------------------
  NO LB      ZA    FRAG     MASS         X           Y           Z
   0 C     6.0000    0    12.011  -10.016807    0.239178   -1.291898
   1 C     6.0000    0    12.011  -12.669922   -0.684354   -1.798131
   2 C     6.0000    0    12.011  -14.595796    0.907109   -0.328751
   3 H     1.0000    0     1.008  -12.860836   -2.681517   -1.284530
   4 H     1.0000    0     1.008  -13.106987   -0.499456   -3.822311
   5 C     6.0000    0    12.011   -9.653340    2.970916   -1.766301
   6 C     6.0000    0    12.011  -11.616371    4.657318   -0.551085
   7 C     6.0000    0    12.011  -14.314554    3.699133   -1.020332
   8 H     1.0000    0     1.008  -11.405877    6.601962   -1.227315
   9 H     1.0000    0     1.008  -11.269547    4.687842    1.499638
  10 H     1.0000    0     1.008  -14.793831    3.923753   -3.027749
  11 H     1.0000    0     1.008  -15.668012    4.822835    0.073506
  12 O     8.0000    0    15.999  -14.337058    0.502894    2.344382
  13 H     1.0000    0     1.008  -16.513855    0.270946   -0.791405
  14 C     6.0000    0    12.011   -8.223061   -1.334395   -0.366097
  15 C     6.0000    0    12.011   -7.791103    3.884529   -3.210967
  16 H     1.0000    0     1.008   -6.416965    2.641142   -4.096181
  17 H     1.0000    0     1.008   -7.612339    5.902868   -3.554420
  18 C     6.0000    0    12.011   -5.691451   -0.634812    0.381094
  19 H     1.0000    0     1.008   -8.781649   -3.298993   -0.109157
  20 C     6.0000    0    12.011   -3.835368   -2.227137    1.109270
  21 H     1.0000    0     1.008   -5.279396    1.378774    0.368535
  22 C     6.0000    0    12.011   -4.023622   -5.068152    1.190748
  23 C     6.0000    0    12.011   -1.905359   -6.320755   -0.365182
  24 H     1.0000    0     1.008   -5.861339   -5.752913    0.541306
  25 H     1.0000    0     1.008   -3.812499   -5.667380    3.173223
  26 C     6.0000    0    12.011    0.728222   -5.324541    0.327418
  27 H     1.0000    0     1.008   -2.268789   -6.001448   -2.381685
  28 H     1.0000    0     1.008   -1.969464   -8.371876   -0.072546
  29 C     6.0000    0    12.011    0.870815   -2.432346    0.153085
  30 H     1.0000    0     1.008    2.128455   -6.224335   -0.901177
  31 H     1.0000    0     1.008    1.180237   -5.887809    2.277706
  32 C     6.0000    0    12.011   -1.260845   -1.338527    1.880881
  33 H     1.0000    0     1.008   -0.889085   -2.176346    3.758294
  34 C     6.0000    0    12.011   -0.648704    1.471726    2.062041
  35 H     1.0000    0     1.008  -12.550190    0.479273    2.732540
  36 C     6.0000    0    12.011    2.277298    1.537651    2.080901
  37 H     1.0000    0     1.008   -1.481367    2.343870    3.743600
  38 H     1.0000    0     1.008   -1.384435    2.491386    0.417187
  39 C     6.0000    0    12.011    3.210515   -1.175257    1.405101
  40 H     1.0000    0     1.008    3.016737    2.128719    3.919685
  41 H     1.0000    0     1.008    2.981774    2.902810    0.689650
  42 H     1.0000    0     1.008    3.566328   -2.212883    3.175652
  43 C     6.0000    0    12.011    5.745845   -1.129943   -0.055357
  44 C     6.0000    0    12.011    0.548786   -1.529684   -2.585141
  45 H     1.0000    0     1.008    0.862767    0.507676   -2.758270
  46 H     1.0000    0     1.008   -1.355619   -1.922582   -3.289036
  47 H     1.0000    0     1.008    1.898930   -2.480785   -3.833495
  48 H     1.0000    0     1.008    5.427314   -0.006709   -1.781419
  49 C     6.0000    0    12.011    6.669856   -3.749551   -0.843147
  50 C     6.0000    0    12.011    7.664443    0.299562    1.506399
  51 C     6.0000    0    12.011    9.730959   -0.666979    2.579432
  52 H     1.0000    0     1.008    7.238341    2.293084    1.789140
  53 H     1.0000    0     1.008   10.146453   -2.665243    2.307314
  54 C     6.0000    0    12.011   11.616680    0.732451    4.189608
  55 C     6.0000    0    12.011   10.867578    3.459652    4.772923
  56 C     6.0000    0    12.011   14.336601    0.561873    3.086447
  57 H     1.0000    0     1.008   11.701741   -0.286200    6.007566
  58 H     1.0000    0     1.008   15.553751    1.591728    4.422439
  59 C     6.0000    0    12.011   14.573940    1.828019    0.498157
  60 C     6.0000    0    12.011   15.294258   -2.165955    2.962951
  61 H     1.0000    0     1.008   10.659866    4.593681    3.054599
  62 H     1.0000    0     1.008   12.309345    4.358406    5.955548
  63 H     1.0000    0     1.008    9.065684    3.531401    5.789243
  64 H     1.0000    0     1.008   14.042267    3.825950    0.559951
  65 H     1.0000    0     1.008   13.354785    0.885524   -0.887566
  66 H     1.0000    0     1.008   16.525109    1.715206   -0.185576
  67 H     1.0000    0     1.008   15.030777   -3.144436    4.770085
  68 H     1.0000    0     1.008   17.312953   -2.202080    2.504303
  69 H     1.0000    0     1.008   14.309974   -3.248805    1.496937
  70 H     1.0000    0     1.008    5.440392   -4.572870   -2.280807
  71 H     1.0000    0     1.008    6.723697   -5.049758    0.769161
  72 H     1.0000    0     1.008    8.577122   -3.638001   -1.640460

--------------------------------
INTERNAL COORDINATES (ANGSTROEM)
--------------------------------
 C      0   0   0     0.000000000000     0.00000000     0.00000000
 C      1   0   0     1.510539405054     0.00000000     0.00000000
 C      2   1   0     1.533776423121   110.48882851     0.00000000
 H      2   1   3     1.095907281771   110.71414430   237.84330391
 H      2   1   3     1.100194313816   109.83306285   118.74860256
 C      1   2   3     1.479763078686   114.00283215   306.28324330
 C      6   1   2     1.512946981364   114.51081757    49.41991385
 C      3   2   1     1.529383995850   110.14964842    56.83073064
 H      7   6   1     1.095183778389   110.21359270   189.04701887
 H      7   6   1     1.100724548542   108.25329495    72.40582654
 H      8   3   2     1.098586000426   108.26682858    64.38777813
 H      8   3   2     1.096180871306   109.51863055   181.34819485
 O      3   2   1     1.437178941397   110.72954836   292.75324477
 H      3   2   1     1.097032245434   109.45910792   177.22413843
 C      1   2   3     1.354400409739   121.10613751   123.18916802
 C      6   1   2     1.337643630381   123.07890524   231.32936705
 H     16   6   1     1.086795350017   121.36191886   359.04821348
 H     16   6   1     1.087534208300   120.96735809   178.45264539
 C     15   1   2     1.445027942645   126.24236352   185.24366307
 H     15   1   2     1.089345015716   116.21396442     3.07981268
 C     19  15   1     1.350261180664   126.34092299   185.78482387
 H     19  15   1     1.087646216359   115.79643613     6.62518466
 C     21  19  15     1.507313730511   125.62736851     2.39535882
 C     23  21  19     1.540712416978   111.45280914   124.83700558
 H     23  21  19     1.093218733044   112.35847553     1.28619126
 H     23  21  19     1.101636463761   107.91665104   243.42814561
 C     24  23  21     1.534421105532   112.66441377    51.31626853
 H     24  23  21     1.097366664733   109.02057834   289.17489056
 H     24  23  21     1.096922279815   109.13303339   173.21082066
 C     27  24  23     1.535117200128   111.88951042   306.11716586
 H     27  24  23     1.094735352758   108.87229354   182.56611998
 H     27  24  23     1.100537185372   109.16830490    66.10783316
 C     21  19  15     1.497971815823   122.91964224   180.61670418
 H     33  21  19     1.105565929020   106.31373760   126.87869047
 C     33  21  19     1.525009415398   121.09337026     4.35749259
 H     13   3   2     0.967703575967   107.69387218    42.55745376
 C     35  33  21     1.548798383126   103.57535136   196.80832914
 H     35  33  21     1.094975489158   112.12481842    74.89941323
 H     35  33  21     1.095607772725   110.78330953   315.23146280
 C     30  27  24     1.553837034684   116.12726740   166.03221178
 H     37  35  33     1.094419931520   111.69122233   248.99408871
 H     37  35  33     1.096754143122   110.50708158   130.40016961
 H     40  30  27     1.102178379547   106.57697583   320.60715742
 C     40  30  27     1.548500652417   118.95942706    80.82908962
 C     30  27  24     1.535195951450   111.19055895   294.16220159
 H     45  30  27     1.094692399511   111.62808182   186.50999015
 H     45  30  27     1.094334563003   111.36906407    66.52084411
 H     45  30  27     1.095521090660   110.72050027   306.41001993
 H     44  40  30     1.102722891207   106.81658251    62.68793213
 C     44  40  30     1.527916383712   113.54026361   303.53476286
 C     44  40  30     1.511964495323   108.46558787   177.24556687
 C     51  44  40     1.334123649011   126.24541174   113.46105200
 H     51  44  40     1.089081833633   114.87836636   295.18645399
 H     52  51  44     1.089609591029   118.76443278     1.29879274
 C     52  51  44     1.506716722886   126.52171404   181.58651459
 C     55  52  51     1.528126036161   113.99155288     5.59743470
 C     55  52  51     1.555819639763   111.83847080   237.62192820
 H     55  52  51     1.103668301418   106.25375281   123.43510212
 H     57  55  52     1.100755636497   105.75984587   181.49939083
 C     57  55  52     1.529926445682   112.73362434    63.61841022
 C     57  55  52     1.531271516182   112.14005912   298.36460442
 H     56  55  52     1.095000936751   112.07811326   299.70756299
 H     56  55  52     1.095416338928   110.16727618   179.62801221
 H     56  55  52     1.095393684454   110.96026804    59.94612199
 H     60  57  55     1.094543226164   112.03510623    58.23781755
 H     60  57  55     1.096669583289   110.55774041   297.79215753
 H     60  57  55     1.095701032941   110.43353747   178.34330920
 H     61  57  55     1.096377994347   111.46249511   310.11388797
 H     61  57  55     1.095638956399   110.40020795   190.08611283
 H     61  57  55     1.096122506109   111.45377559    70.93763705
 H     50  44  40     1.091735398180   111.19149252    68.08086251
 H     50  44  40     1.096428298176   111.42853636   307.66679694
 H     50  44  40     1.095513838227   110.55002543   187.51538129

---------------------------
INTERNAL COORDINATES (A.U.)
---------------------------
 C      0   0   0     0.000000000000     0.00000000     0.00000000
 C      1   0   0     2.854505790048     0.00000000     0.00000000
 C      2   1   0     2.898417390364   110.48882851     0.00000000
 H      2   1   3     2.070964630717   110.71414430   237.84330391
 H      2   1   3     2.079065947209   109.83306285   118.74860256
 C      1   2   3     2.796346961805   114.00283215   306.28324330
 C      6   1   2     2.859055449921   114.51081757    49.41991385
 C      3   2   1     2.890116905759   110.14964842    56.83073064
 H      7   6   1     2.069597407468   110.21359270   189.04701887
 H      7   6   1     2.080067945629   108.25329495    72.40582654
 H      8   3   2     2.076026675366   108.26682858    64.38777813
 H      8   3   2     2.071481640011   109.51863055   181.34819485
 O      3   2   1     2.715874604680   110.72954836   292.75324477
 H      3   2   1     2.073090503951   109.45910792   177.22413843
 C      1   2   3     2.559445850077   121.10613751   123.18916802
 C      6   1   2     2.527780126204   123.07890524   231.32936705
 H     16   6   1     2.053745575151   121.36191886   359.04821348
 H     16   6   1     2.055141814957   120.96735809   178.45264539
 C     15   1   2     2.730707067462   126.24236352   185.24366307
 H     15   1   2     2.058563745054   116.21396442     3.07981268
 C     19  15   1     2.551623840720   126.34092299   185.78482387
 H     19  15   1     2.055353479514   115.79643613     6.62518466
 C     21  19  15     2.848410148565   125.62736851     2.39535882
 C     23  21  19     2.911524519220   111.45280914   124.83700558
 H     23  21  19     2.065884009926   112.35847553     1.28619126
 H     23  21  19     2.081791215649   107.91665104   243.42814561
 C     24  23  21     2.899635663565   112.66441377    51.31626853
 H     24  23  21     2.073722464839   109.02057834   289.17489056
 H     24  23  21     2.072882699046   109.13303339   173.21082066
 C     27  24  23     2.900951091714   111.88951042   306.11716586
 H     27  24  23     2.068750005834   108.87229354   182.56611998
 H     27  24  23     2.079713880550   109.16830490    66.10783316
 C     21  19  15     2.830756488239   122.91964224   180.61670418
 H     33  21  19     2.089216828843   106.31373760   126.87869047
 C     33  21  19     2.881850146753   121.09337026     4.35749259
 H     13   3   2     1.828694737393   107.69387218    42.55745376
 C     35  33  21     2.926804780768   103.57535136   196.80832914
 H     35  33  21     2.069203797864   112.12481842    74.89941323
 H     35  33  21     2.070398640645   110.78330953   315.23146280
 C     30  27  24     2.936326452297   116.12726740   166.03221178
 H     37  35  33     2.068153946077   111.69122233   248.99408871
 H     37  35  33     2.072564966744   110.50708158   130.40016961
 H     40  30  27     2.082815288073   106.57697583   320.60715742
 C     40  30  27     2.926242151266   118.95942706    80.82908962
 C     30  27  24     2.901099910145   111.19055895   294.16220159
 H     45  30  27     2.068668835960   111.62808182   186.50999015
 H     45  30  27     2.067992622961   111.36906407    66.52084411
 H     45  30  27     2.070234835282   110.72050027   306.41001993
 H     44  40  30     2.083844265987   106.81658251    62.68793213
 C     44  40  30     2.887343520748   113.54026361   303.53476286
 C     44  40  30     2.857198820373   108.46558787   177.24556687
 C     51  44  40     2.521128325419   126.24541174   113.46105200
 H     51  44  40     2.058066402996   114.87836636   295.18645399
 H     52  51  44     2.059063719938   118.76443278     1.29879274
 C     52  51  44     2.847281967653   126.52171404   181.58651459
 C     55  52  51     2.887739706460   113.99155288     5.59743470
 C     55  52  51     2.940073032928   111.83847080   237.62192820
 H     55  52  51     2.085630832370   106.25375281   123.43510212
 H     57  55  52     2.080126693350   105.75984587   181.49939083
 C     57  55  52     2.891141987382   112.73362434    63.61841022
 C     57  55  52     2.893683802259   112.14005912   298.36460442
 H     56  55  52     2.069251886847   112.07811326   299.70756299
 H     56  55  52     2.070036883197   110.16727618   179.62801221
 H     56  55  52     2.069994072444   110.96026804    59.94612199
 H     60  57  55     2.068386939188   112.03510623    58.23781755
 H     60  57  55     2.072405171818   110.55774041   297.79215753
 H     60  57  55     2.070574876913   110.43353747   178.34330920
 H     61  57  55     2.071854148574   111.46249511   310.11388797
 H     61  57  55     2.070457569249   110.40020795   190.08611283
 H     61  57  55     2.071371345773   111.45377559    70.93763705
 H     50  44  40     2.063080913267   111.19149252    68.08086251
 H     50  44  40     2.071949209034   111.42853636   307.66679694
 H     50  44  40     2.070221130169   110.55002543   187.51538129

---------------------
BASIS SET INFORMATION
---------------------
There are 3 groups of distinct atoms

 Group   1 Type C   : 8s5p1d contracted to 3s3p1d pattern {521/311/1}
 Group   2 Type H   : 4s2p contracted to 2s1p pattern {31/2}
 Group   3 Type O   : 8s5p1d contracted to 3s3p1d pattern {521/311/1}

Atom   0C    basis set group =>   1
Atom   1C    basis set group =>   1
Atom   2C    basis set group =>   1
Atom   3H    basis set group =>   2
Atom   4H    basis set group =>   2
Atom   5C    basis set group =>   1
Atom   6C    basis set group =>   1
Atom   7C    basis set group =>   1
Atom   8H    basis set group =>   2
Atom   9H    basis set group =>   2
Atom  10H    basis set group =>   2
Atom  11H    basis set group =>   2
Atom  12O    basis set group =>   3
Atom  13H    basis set group =>   2
Atom  14C    basis set group =>   1
Atom  15C    basis set group =>   1
Atom  16H    basis set group =>   2
Atom  17H    basis set group =>   2
Atom  18C    basis set group =>   1
Atom  19H    basis set group =>   2
Atom  20C    basis set group =>   1
Atom  21H    basis set group =>   2
Atom  22C    basis set group =>   1
Atom  23C    basis set group =>   1
Atom  24H    basis set group =>   2
Atom  25H    basis set group =>   2
Atom  26C    basis set group =>   1
Atom  27H    basis set group =>   2
Atom  28H    basis set group =>   2
Atom  29C    basis set group =>   1
Atom  30H    basis set group =>   2
Atom  31H    basis set group =>   2
Atom  32C    basis set group =>   1
Atom  33H    basis set group =>   2
Atom  34C    basis set group =>   1
Atom  35H    basis set group =>   2
Atom  36C    basis set group =>   1
Atom  37H    basis set group =>   2
Atom  38H    basis set group =>   2
Atom  39C    basis set group =>   1
Atom  40H    basis set group =>   2
Atom  41H    basis set group =>   2
Atom  42H    basis set group =>   2
Atom  43C    basis set group =>   1
Atom  44C    basis set group =>   1
Atom  45H    basis set group =>   2
Atom  46H    basis set group =>   2
Atom  47H    basis set group =>   2
Atom  48H    basis set group =>   2
Atom  49C    basis set group =>   1
Atom  50C    basis set group =>   1
Atom  51C    basis set group =>   1
Atom  52H    basis set group =>   2
Atom  53H    basis set group =>   2
Atom  54C    basis set group =>   1
Atom  55C    basis set group =>   1
Atom  56C    basis set group =>   1
Atom  57H    basis set group =>   2
Atom  58H    basis set group =>   2
Atom  59C    basis set group =>   1
Atom  60C    basis set group =>   1
Atom  61H    basis set group =>   2
Atom  62H    basis set group =>   2
Atom  63H    basis set group =>   2
Atom  64H    basis set group =>   2
Atom  65H    basis set group =>   2
Atom  66H    basis set group =>   2
Atom  67H    basis set group =>   2
Atom  68H    basis set group =>   2
Atom  69H    basis set group =>   2
Atom  70H    basis set group =>   2
Atom  71H    basis set group =>   2
Atom  72H    basis set group =>   2

-------------------------
BASIS SET IN INPUT FORMAT
-------------------------

 # Basis set for element : H 
 NewGTO H 
 S 3 
   1      12.2518000000      0.0372173893
   2       1.8687100000      0.2538082070
   3       0.4182080000      0.7973867639
 S 1 
   1       0.1061000000      1.0000000000
 P 2 
   1       9.0000000000      0.0402678705
   2       1.0000000000      0.9880231245
  end;

 # Basis set for element : C 
 NewGTO C 
 S 5 
   1    1243.2000000000      0.0056300977
   2     187.1450000000      0.0419506039
   3      42.5126000000      0.1846643605
   4      11.7393000000      0.4665574214
   5       3.5054800000      0.4482347783
 S 2 
   1       5.3908900000     -0.1481148174
   2       0.4933410000      1.0519817143
 S 1 
   1       0.1497410000      1.0000000000
 P 3 
   1      59.6736000000      0.0113906672
   2       9.1805600000      0.1672414929
   3       1.9365800000      0.9041087436
 P 1 
   1       0.5262960000      1.0000000000
 P 1 
   1       0.1363190000      1.0000000000
 D 1 
   1       0.8000000000      1.0000000000
  end;

 # Basis set for element : O 
 NewGTO O 
 S 5 
   1    2288.6400000000      0.0054511382
   2     344.4160000000      0.0407189228
   3      78.2538000000      0.1813694209
   4      21.7195000000      0.4655368202
   5       6.5590700000      0.4512113212
 S 2 
   1      10.4656000000     -0.1502112012
   2       0.9643510000      1.0528679834
 S 1 
   1       0.2851270000      1.0000000000
 P 3 
   1     110.8840000000      0.0113058003
   2      17.0590000000      0.1699226452
   3       3.6899900000      0.9008060328
 P 1 
   1       0.9929960000      1.0000000000
 P 1 
   1       0.2449240000      1.0000000000
 D 1 
   1       1.0000000000      1.0000000000
  end;

---------------------------------
AUXILIARY/J BASIS SET INFORMATION
---------------------------------
There are 3 groups of distinct atoms

 Group   1 Type C   : 12s5p4d2f1g contracted to 6s4p3d1f1g pattern {711111/2111/211/2/1}
 Group   2 Type H   : 5s2p1d contracted to 3s1p1d pattern {311/2/1}
 Group   3 Type O   : 12s5p4d2f1g contracted to 6s4p3d1f1g pattern {711111/2111/211/2/1}

Atom   0C    basis set group =>   1
Atom   1C    basis set group =>   1
Atom   2C    basis set group =>   1
Atom   3H    basis set group =>   2
Atom   4H    basis set group =>   2
Atom   5C    basis set group =>   1
Atom   6C    basis set group =>   1
Atom   7C    basis set group =>   1
Atom   8H    basis set group =>   2
Atom   9H    basis set group =>   2
Atom  10H    basis set group =>   2
Atom  11H    basis set group =>   2
Atom  12O    basis set group =>   3
Atom  13H    basis set group =>   2
Atom  14C    basis set group =>   1
Atom  15C    basis set group =>   1
Atom  16H    basis set group =>   2
Atom  17H    basis set group =>   2
Atom  18C    basis set group =>   1
Atom  19H    basis set group =>   2
Atom  20C    basis set group =>   1
Atom  21H    basis set group =>   2
Atom  22C    basis set group =>   1
Atom  23C    basis set group =>   1
Atom  24H    basis set group =>   2
Atom  25H    basis set group =>   2
Atom  26C    basis set group =>   1
Atom  27H    basis set group =>   2
Atom  28H    basis set group =>   2
Atom  29C    basis set group =>   1
Atom  30H    basis set group =>   2
Atom  31H    basis set group =>   2
Atom  32C    basis set group =>   1
Atom  33H    basis set group =>   2
Atom  34C    basis set group =>   1
Atom  35H    basis set group =>   2
Atom  36C    basis set group =>   1
Atom  37H    basis set group =>   2
Atom  38H    basis set group =>   2
Atom  39C    basis set group =>   1
Atom  40H    basis set group =>   2
Atom  41H    basis set group =>   2
Atom  42H    basis set group =>   2
Atom  43C    basis set group =>   1
Atom  44C    basis set group =>   1
Atom  45H    basis set group =>   2
Atom  46H    basis set group =>   2
Atom  47H    basis set group =>   2
Atom  48H    basis set group =>   2
Atom  49C    basis set group =>   1
Atom  50C    basis set group =>   1
Atom  51C    basis set group =>   1
Atom  52H    basis set group =>   2
Atom  53H    basis set group =>   2
Atom  54C    basis set group =>   1
Atom  55C    basis set group =>   1
Atom  56C    basis set group =>   1
Atom  57H    basis set group =>   2
Atom  58H    basis set group =>   2
Atom  59C    basis set group =>   1
Atom  60C    basis set group =>   1
Atom  61H    basis set group =>   2
Atom  62H    basis set group =>   2
Atom  63H    basis set group =>   2
Atom  64H    basis set group =>   2
Atom  65H    basis set group =>   2
Atom  66H    basis set group =>   2
Atom  67H    basis set group =>   2
Atom  68H    basis set group =>   2
Atom  69H    basis set group =>   2
Atom  70H    basis set group =>   2
Atom  71H    basis set group =>   2
Atom  72H    basis set group =>   2

-------------------------------------
AUXILIARY/J BASIS SET IN INPUT FORMAT
-------------------------------------

 # Auxiliary/J basis set for element : H 
 NewAuxJGTO H 
 S 3 
   1      15.6752927000      0.1007184237
   2       3.6063578000      0.3404257499
   3       1.2080016000      0.6491996172
 S 1 
   1       0.4726794000      1.0000000000
 S 1 
   1       0.2018100000      1.0000000000
 P 2 
   1       2.0281365000      0.5596620919
   2       0.5358730000      0.5596620919
 D 1 
   1       2.2165124000      1.0000000000
  end;

 # Auxiliary/J basis set for element : C 
 NewAuxJGTO C 
 S 7 
   1    1861.0916331000      0.0134602335
   2     642.9939764000      0.0299160374
   3     235.1105725000      0.1008649584
   4      90.7028894000      0.2370970548
   5      36.7794552000      0.3924037254
   6      15.6046273000      0.3195862154
   7       6.8907294000      0.0530104441
 S 1 
   1       3.1478850000     -1.0000000000
 S 1 
   1       1.4777287000      1.0000000000
 S 1 
   1       0.7076466000      1.0000000000
 S 1 
   1       0.3430122000      1.0000000000
 S 1 
   1       0.1669453000      1.0000000000
 P 2 
   1      13.5472892000     -0.6769313712
   2       5.4669419000     -0.3779500978
 P 1 
   1       2.1751721000      1.0000000000
 P 1 
   1       0.8582194000      1.0000000000
 P 1 
   1       0.3376720000      1.0000000000
 D 2 
   1       5.9287253000     -0.3533329857
   2       1.9809209000     -0.7456525731
 D 1 
   1       0.8055417000     -1.0000000000
 D 1 
   1       0.3531244000     -1.0000000000
 F 2 
   1       1.6755626000      0.6311076882
   2       0.5997536000      0.4968166032
 G 1 
   1       1.0024600000     -1.0000000000
  end;

 # Auxiliary/J basis set for element : O 
 NewAuxJGTO O 
 S 7 
   1    2876.8216605000      0.0168151159
   2    1004.7443032000      0.0340137548
   3     369.7579954000      0.1194951309
   4     142.9442404000      0.2664627624
   5      57.8366425000      0.4202764046
   6      24.3864983000      0.2765077335
   7      10.6622662000      0.0057008815
 S 1 
   1       4.8070437000     -1.0000000000
 S 1 
   1       2.2210770000      1.0000000000
 S 1 
   1       1.0447795000      1.0000000000
 S 1 
   1       0.4968425000      1.0000000000
 S 1 
   1       0.2371384000      1.0000000000
 P 2 
   1      64.2613382000     -0.2731534179
   2      16.3006076000     -0.8168011598
 P 1 
   1       4.3550542000      1.0000000000
 P 1 
   1       1.2019554000      1.0000000000
 P 1 
   1       0.3354196000      1.0000000000
 D 2 
   1       9.2146611000     -0.4661230638
   2       2.8435251000     -0.6600908911
 D 1 
   1       0.9955759000     -1.0000000000
 D 1 
   1       0.3649441000     -1.0000000000
 F 2 
   1       2.6420115000      0.5931563945
   2       0.7345613000      0.5931563945
 G 1 
   1       1.3931000000     -1.0000000000
  end;



           ************************************************************
           *        Program running with 4 parallel MPI-processes     *
           *              working on a common directory               *
           ************************************************************
------------------------------------------------------------------------------
                           ORCA GTO INTEGRAL CALCULATION
                           -- RI-GTO INTEGRALS CHOSEN --
------------------------------------------------------------------------------
------------------------------------------------------------------------------
                   ___                                                        
                  /   \      - P O W E R E D   B Y -                         
                 /     \                                                     
                 |  |  |   _    _      __       _____    __    __             
                 |  |  |  | |  | |    /  \     |  _  \  |  |  /  |          
                  \  \/   | |  | |   /    \    | | | |  |  | /  /          
                 / \  \   | |__| |  /  /\  \   | |_| |  |  |/  /          
                |  |  |   |  __  | /  /__\  \  |    /   |      \           
                |  |  |   | |  | | |   __   |  |    \   |  |\   \          
                \     /   | |  | | |  |  |  |  | |\  \  |  | \   \       
                 \___/    |_|  |_| |__|  |__|  |_| \__\ |__|  \__/        
                                                                              
                      - O R C A' S   B I G   F R I E N D -                    
                                      &                                       
                       - I N T E G R A L  F E E D E R -                       
                                                                              
 v1 FN, 2020, v2 2021                                                         
------------------------------------------------------------------------------


Reading SHARK input file inpS.SHARKINP.tmp ... ok
----------------------
SHARK INTEGRAL PACKAGE
----------------------

Number of atoms                             ...     73
Number of basis functions                   ...    713
Number of shells                            ...    335
Maximum angular momentum                    ...      2
Integral batch strategy                     ... SHARK/LIBINT Hybrid
RI-J (if used) integral strategy            ... SPLIT-RIJ (Revised 2003 algorithm where possible)
Printlevel                                  ...      1
Contraction scheme used                     ... SEGMENTED contraction
Coulomb Range Separation                    ... NOT USED
Exchange Range Separation                   ... NOT USED
Finite Nucleus Model                        ... NOT USED
Auxiliary Coulomb fitting basis             ... AVAILABLE
   # of basis functions in Aux-J            ...   1905
   # of shells in Aux-J                     ...    655
   Maximum angular momentum in Aux-J        ...      4
Auxiliary J/K fitting basis                 ... NOT available
Auxiliary Correlation fitting basis         ... NOT available
Auxiliary 'external' fitting basis          ... NOT available
Integral threshold                          ...     3.000000e-11
Primitive cut-off                           ...     1.000000e-12
Primitive pair pre-selection threshold      ...     1.000000e-12

Calculating pre-screening integrals         ... done (  0.0 sec) Dimension = 335
Organizing shell pair data                  ... done (  0.2 sec)
Shell pair information
Total number of shell pairs                 ...     56280
Shell pairs after pre-screening             ...     31510
Total number of primitive shell pairs       ...    225367
Primitive shell pairs kept                  ...     74167
          la=0 lb=0:   9612 shell pairs
          la=1 lb=0:  12959 shell pairs
          la=1 lb=1:   4231 shell pairs
          la=2 lb=0:   2750 shell pairs
          la=2 lb=1:   1765 shell pairs
          la=2 lb=2:    193 shell pairs

Calculating one electron integrals          ... done (  0.1 sec)
Calculating RI/J V-Matrix + Cholesky decomp.... done (  0.1 sec)
Calculating Nuclear repulsion               ... done (  0.0 sec) ENN=   2776.524158385734 Eh

SHARK setup successfully completed in   0.6 seconds

Maximum memory used throughout the entire GTOINT-calculation: 61.1 MB


           ************************************************************
           *        Program running with 4 parallel MPI-processes     *
           *              working on a common directory               *
           ************************************************************
-------------------------------------------------------------------------------
                                 ORCA SCF
-------------------------------------------------------------------------------

------------
SCF SETTINGS
------------
Hamiltonian:
 Density Functional     Method          .... DFT(GTOs)
 Exchange Functional    Exchange        .... revTPSS
 Correlation Functional Correlation     .... revTPSS
 LDA part of GGA corr.  LDAOpt          .... PW91-LDA
 Gradients option       PostSCFGGA      .... off
   Density functional embedding theory  .... OFF
 RI-approximation to the Coulomb term is turned on
   Number of AuxJ basis functions       .... 1905


General Settings:
 Integral files         IntName         .... inpS
 Hartree-Fock type      HFTyp           .... RHF
 Total Charge           Charge          ....    0
 Multiplicity           Mult            ....    1
 Number of Electrons    NEL             ....  220
 Basis Dimension        Dim             ....  713
 Nuclear Repulsion      ENuc            ....   2776.5241583857 Eh

Convergence Acceleration:
 DIIS                   CNVDIIS         .... on
   Start iteration      DIISMaxIt       ....    12
   Startup error        DIISStart       ....  0.200000
   # of expansion vecs  DIISMaxEq       ....     5
   Bias factor          DIISBfac        ....   1.050
   Max. coefficient     DIISMaxC        ....  10.000
 Trust-Rad. Augm. Hess. CNVTRAH         .... auto
   Auto Start mean grad. ratio tolernc. ....  1.125000
   Auto Start start iteration           ....    20
   Auto Start num. interpolation iter.  ....    10
   Max. Number of Micro iterations      ....    16
   Max. Number of Macro iterations      .... Maxiter - #DIIS iter
   Number of Davidson start vectors     ....     2
   Converg. threshold I  (grad. norm)   ....   1.000e-04
   Converg. threshold II (energy diff.) ....   1.000e-07
   Grad. Scal. Fac. for Micro threshold ....   0.100
   Minimum threshold for Micro iter.    ....   0.010
   NR start threshold (gradient norm)   ....   0.001
   Initial trust radius                 ....   0.400
   Minimum AH scaling param. (alpha)    ....   1.000
   Maximum AH scaling param. (alpha)    .... 1000.000
   Orbital update algorithm             .... Taylor
   White noise on init. David. guess    .... on
   Maximum white noise                  ....   0.010
   Quad. conv. algorithm                .... NR
 SOSCF                  CNVSOSCF        .... off
 Level Shifting         CNVShift        .... on
   Level shift para.    LevelShift      ....    0.2500
   Turn off err/grad.   ShiftErr        ....    0.0010
 Zerner damping         CNVZerner       .... off
 Static damping         CNVDamp         .... on
   Fraction old density DampFac         ....    0.7000
   Max. Damping (<1)    DampMax         ....    0.9800
   Min. Damping (>=0)   DampMin         ....    0.0000
   Turn off err/grad.   DampErr         ....    0.1000
 Fernandez-Rico         CNVRico         .... off

SCF Procedure:
 Maximum # iterations   MaxIter         ....   125
 SCF integral mode      SCFMode         .... Direct
   Integral package                     .... SHARK and LIBINT hybrid scheme
 Reset frequency        DirectResetFreq ....    20
 Integral Threshold     Thresh          ....  3.000e-11 Eh
 Primitive CutOff       TCut            ....  1.000e-12 Eh

Convergence Tolerance:
 Convergence Check Mode ConvCheckMode   .... Total+1el-Energy
 Convergence forced     ConvForced      .... 0
 Energy Change          TolE            ....  1.000e-07 Eh
 1-El. energy change                    ....  1.000e-04 Eh
 DIIS Error             TolErr          ....  1.000e-07


Diagonalization of the overlap matrix:
Smallest eigenvalue                        ... 5.170e-04
Time for diagonalization                   ...    0.106 sec
Threshold for overlap eigenvalues          ... 1.000e-08
Number of eigenvalues below threshold      ... 0
Time for construction of square roots      ...    0.096 sec
Total time needed                          ...    0.204 sec

Time for model grid setup =    0.917 sec

------------------------------
INITIAL GUESS: MODEL POTENTIAL
------------------------------
Loading Hartree-Fock densities                     ... done
Calculating cut-offs                               ... done
Initializing the effective Hamiltonian             ... done
Setting up the integral package (SHARK)            ... done
Starting the Coulomb interaction                   ... done (   0.9 sec)
Reading the grid                                   ... done
Mapping shells                                     ... done
Starting the XC term evaluation                    ... done (   0.3 sec)
  promolecular density results
     # of electrons  =    219.971166363
     EX              =   -164.432685182
     EC              =     -7.328699115
     EX+EC           =   -171.761384297
Transforming the Hamiltonian                       ... done (   0.0 sec)
Diagonalizing the Hamiltonian                      ... done (   0.1 sec)
Back transforming the eigenvectors                 ... done (   0.0 sec)
Now organizing SCF variables                       ... done
                      ------------------
                      INITIAL GUESS DONE (   2.3 sec)
                      ------------------
-------------------
DFT GRID GENERATION
-------------------

General Integration Accuracy     IntAcc      ... 4.388
Radial Grid Type                 RadialGrid  ... OptM3 with GC (2021)
Angular Grid (max. ang.)         AngularGrid ... 4 (Lebedev-302)
Angular grid pruning method      GridPruning ... 4 (adaptive)
Weight generation scheme         WeightScheme... Becke
Basis function cutoff            BFCut       ... 1.0000e-11
Integration weight cutoff        WCut        ... 1.0000e-14
Angular grids for H and He will be reduced by one unit
Partially contracted basis set               ... off
Rotationally invariant grid construction     ... off

Total number of grid points                  ...   309816
Total number of batches                      ...     4881
Average number of points per batch           ...       63
Average number of grid points per atom       ...     4244
Time for grid setup =    2.912 sec


--------------------
CPCM SOLVATION MODEL
--------------------
CPCM parameters:
  Epsilon                                         ...       4.9000
  Refrac                                          ...       1.4500
  Rsolv                                           ...       1.3000
  Surface type                                    ... GAUSSIAN VDW
  Epsilon function type                           ...         CPCM
Radii:
 Radius for C  used is    3.8550 Bohr (=   2.0400 Ang.)
 Radius for H  used is    2.4944 Bohr (=   1.3200 Ang.)
 Radius for O  used is    3.4469 Bohr (=   1.8240 Ang.)
Calculating surface                               ...        done! (  0.0s)
GEPOL surface points                              ...         3604
GEPOL Volume                                      ...    3587.7196
GEPOL Surface-area                                ...    1774.9288
Calculating surface distance matrix               ...        done! (  0.1s)
Performing Cholesky decomposition & store         ...        done! (  0.5s)
Overall time for CPCM initialization              ...                 0.6s
--------------
SCF ITERATIONS
--------------
ITER       Energy         Delta-E        Max-DP      RMS-DP      [F,P]     Damp
               ***  Starting incremental Fock matrix formation  ***

  HOMO= 109 E= -1.922 eV LUMO=  7.763 eV gap=   9.685 eV
  0  -1167.5220519698   0.000000000000 0.05563356  0.00083194  0.2644377 0.7000

  HOMO= 109 E= -3.438 eV LUMO=  6.662 eV gap=  10.100 eV
  1  -1167.8962384218  -0.374186451957 0.02893413  0.00061400  0.1021632 0.7000
                               ***Turning on DIIS***

  HOMO= 109 E= -4.413 eV LUMO=  5.778 eV gap=  10.191 eV
  2  -1168.0425488694  -0.146310447585 0.04993720  0.00101229  0.0313019 0.0000

  HOMO= 109 E= -5.033 eV LUMO=  5.196 eV gap=  10.229 eV
  3  -1168.2404532197  -0.197904350328 0.02322620  0.00047384  0.0549229 0.0000

  HOMO= 109 E= -5.058 eV LUMO=  5.171 eV gap=  10.229 eV
  4  -1168.3074136843  -0.066960464602 0.00752161  0.00015047  0.0102693 0.0000

  HOMO= 109 E= -5.012 eV LUMO=  5.224 eV gap=  10.236 eV
  5  -1168.3104427873  -0.003029102981 0.00345195  0.00005684  0.0103231 0.0000

  HOMO= 109 E= -4.992 eV LUMO=  5.241 eV gap=  10.233 eV
  6  -1168.3107114263  -0.000268639080 0.00125704  0.00001906  0.0030524 0.0000

  HOMO= 109 E= -4.994 eV LUMO= -1.564 eV gap=   3.430 eV
  7  -1168.3107314532  -0.000020026806 0.00071869  0.00001153  0.0004330 0.0000

  HOMO= 109 E= -4.992 eV LUMO= -1.562 eV gap=   3.430 eV
  8  -1168.3107342080  -0.000002754889 0.00025769  0.00000296  0.0003776 0.0000

  HOMO= 109 E= -4.990 eV LUMO= -1.560 eV gap=   3.430 eV
  9  -1168.3107349105  -0.000000702451 0.00015388  0.00000150  0.0002346 0.0000

  HOMO= 109 E= -4.991 eV LUMO= -1.561 eV gap=   3.430 eV
 10  -1168.3107351477  -0.000000237247 0.00006523  0.00000070  0.0000903 0.0000

  HOMO= 109 E= -4.991 eV LUMO= -1.561 eV gap=   3.430 eV
 11  -1168.3107351757  -0.000000027928 0.00002608  0.00000027  0.0000266 0.0000

  HOMO= 109 E= -4.991 eV LUMO= -1.561 eV gap=   3.430 eV
 12  -1168.3107351512   0.000000024428 0.00001267  0.00000012  0.0000184 0.0000

  HOMO= 109 E= -4.991 eV LUMO= -1.561 eV gap=   3.430 eV
 13  -1168.3107351767  -0.000000025481 0.00000608  0.00000005  0.0000076 0.0000
                 **** Energy Check signals convergence ****

               *****************************************************
               *                     SUCCESS                       *
               *           SCF CONVERGED AFTER  14 CYCLES          *
               *****************************************************


----------------
TOTAL SCF ENERGY
----------------

Total Energy       :        -1168.31073518 Eh          -31791.35135 eV

Components:
Nuclear Repulsion  :         2776.52415839 Eh           75553.06339 eV
Electronic Energy  :        -3944.83489357 Eh         -107344.41474 eV
One Electron Energy:        -7099.18975921 Eh         -193178.77437 eV
Two Electron Energy:         3154.35486564 Eh           85834.35963 eV
CPCM Dielectric    :           -0.00908149 Eh              -0.24712 eV

Virial components:
Potential Energy   :        -2330.40536753 Eh          -63413.55393 eV
Kinetic Energy     :         1162.09463235 Eh           31622.20259 eV
Virial Ratio       :            2.00534905


DFT components:
N(Alpha)           :      109.999982208551 electrons
N(Beta)            :      109.999982208551 electrons
N(Total)           :      219.999964417103 electrons
E(X)               :     -169.584382364499 Eh       
E(C)               :       -7.444917218678 Eh       
E(XC)              :     -177.029299583177 Eh       
DFET-embed. en.    :        0.000000000000 Eh       
CPCM Solvation Model Properties:
Surface-charge          :           -0.04532602
Charge-correction       :           -0.00006930 Eh              -0.00189 eV
Free-energy (cav+disp)  :  This term is not implemented in the current solvation scheme

---------------
SCF CONVERGENCE
---------------

  Last Energy change         ...   -6.3221e-09  Tolerance :   1.0000e-07
  Last MAX-Density change    ...    2.8676e-06  Tolerance :   1.0000e-05
  Last RMS-Density change    ...    2.8098e-08  Tolerance :   1.0000e-06
  Last DIIS Error            ...    3.4959e-06  Tolerance :   1.0000e-07

             **** THE GBW FILE WAS UPDATED (inpS.gbw) ****
             **** DENSITY inpS.scfp WAS UPDATED ****
             **** ENERGY FILE WAS UPDATED (inpS.en.tmp) ****
             **** THE GBW FILE WAS UPDATED (inpS.gbw) ****
             **** DENSITY inpS.scfp WAS UPDATED ****
----------------
ORBITAL ENERGIES
----------------

  NO   OCC          E(Eh)            E(eV) 
   0   2.0000     -18.903764      -514.3976 
   1   2.0000     -10.057198      -273.6703 
   2   2.0000     -10.016606      -272.5657 
   3   2.0000     -10.014765      -272.5156 
   4   2.0000     -10.012467      -272.4531 
   5   2.0000     -10.012312      -272.4489 
   6   2.0000     -10.011955      -272.4392 
   7   2.0000     -10.011866      -272.4367 
   8   2.0000     -10.010080      -272.3881 
   9   2.0000     -10.010078      -272.3881 
  10   2.0000     -10.009723      -272.3784 
  11   2.0000     -10.007937      -272.3298 
  12   2.0000     -10.007562      -272.3196 
  13   2.0000     -10.007328      -272.3132 
  14   2.0000     -10.006796      -272.2988 
  15   2.0000     -10.006311      -272.2856 
  16   2.0000     -10.005051      -272.2513 
  17   2.0000     -10.001111      -272.1441 
  18   2.0000     -10.000837      -272.1366 
  19   2.0000     -10.000762      -272.1346 
  20   2.0000     -10.000345      -272.1232 
  21   2.0000      -9.999842      -272.1095 
  22   2.0000      -9.996843      -272.0279 
  23   2.0000      -9.996357      -272.0147 
  24   2.0000      -9.996100      -272.0077 
  25   2.0000      -9.996007      -272.0052 
  26   2.0000      -9.995847      -272.0008 
  27   2.0000      -9.995752      -271.9982 
  28   2.0000      -9.993906      -271.9480 
  29   2.0000      -0.954446       -25.9718 
  30   2.0000      -0.808240       -21.9933 
  31   2.0000      -0.789504       -21.4835 
  32   2.0000      -0.770477       -20.9657 
  33   2.0000      -0.757118       -20.6022 
  34   2.0000      -0.734522       -19.9874 
  35   2.0000      -0.728398       -19.8207 
  36   2.0000      -0.708986       -19.2925 
  37   2.0000      -0.708960       -19.2918 
  38   2.0000      -0.693037       -18.8585 
  39   2.0000      -0.676497       -18.4084 
  40   2.0000      -0.659182       -17.9373 
  41   2.0000      -0.651171       -17.7193 
  42   2.0000      -0.636852       -17.3296 
  43   2.0000      -0.629184       -17.1210 
  44   2.0000      -0.625556       -17.0223 
  45   2.0000      -0.620029       -16.8718 
  46   2.0000      -0.593323       -16.1452 
  47   2.0000      -0.589996       -16.0546 
  48   2.0000      -0.562309       -15.3012 
  49   2.0000      -0.548047       -14.9131 
  50   2.0000      -0.542304       -14.7568 
  51   2.0000      -0.536855       -14.6086 
  52   2.0000      -0.527411       -14.3516 
  53   2.0000      -0.511347       -13.9145 
  54   2.0000      -0.487438       -13.2639 
  55   2.0000      -0.473862       -12.8944 
  56   2.0000      -0.467270       -12.7151 
  57   2.0000      -0.463507       -12.6127 
  58   2.0000      -0.451269       -12.2797 
  59   2.0000      -0.445811       -12.1311 
  60   2.0000      -0.436699       -11.8832 
  61   2.0000      -0.431388       -11.7387 
  62   2.0000      -0.421407       -11.4671 
  63   2.0000      -0.417112       -11.3502 
  64   2.0000      -0.412212       -11.2168 
  65   2.0000      -0.405874       -11.0444 
  66   2.0000      -0.404479       -11.0064 
  67   2.0000      -0.401121       -10.9150 
  68   2.0000      -0.397863       -10.8264 
  69   2.0000      -0.393523       -10.7083 
  70   2.0000      -0.389893       -10.6095 
  71   2.0000      -0.385006       -10.4765 
  72   2.0000      -0.379132       -10.3167 
  73   2.0000      -0.374369       -10.1871 
  74   2.0000      -0.371477       -10.1084 
  75   2.0000      -0.369664       -10.0591 
  76   2.0000      -0.361427        -9.8349 
  77   2.0000      -0.358825        -9.7641 
  78   2.0000      -0.356332        -9.6963 
  79   2.0000      -0.349255        -9.5037 
  80   2.0000      -0.345082        -9.3901 
  81   2.0000      -0.344882        -9.3847 
  82   2.0000      -0.341548        -9.2940 
  83   2.0000      -0.336849        -9.1661 
  84   2.0000      -0.326406        -8.8820 
  85   2.0000      -0.323812        -8.8114 
  86   2.0000      -0.322148        -8.7661 
  87   2.0000      -0.318229        -8.6595 
  88   2.0000      -0.317076        -8.6281 
  89   2.0000      -0.311320        -8.4714 
  90   2.0000      -0.308712        -8.4005 
  91   2.0000      -0.307300        -8.3621 
  92   2.0000      -0.301766        -8.2115 
  93   2.0000      -0.297626        -8.0988 
  94   2.0000      -0.291002        -7.9186 
  95   2.0000      -0.287991        -7.8366 
  96   2.0000      -0.286169        -7.7871 
  97   2.0000      -0.285525        -7.7695 
  98   2.0000      -0.282629        -7.6907 
  99   2.0000      -0.278355        -7.5744 
 100   2.0000      -0.275094        -7.4857 
 101   2.0000      -0.273811        -7.4508 
 102   2.0000      -0.271612        -7.3909 
 103   2.0000      -0.269453        -7.3322 
 104   2.0000      -0.260316        -7.0835 
 105   2.0000      -0.251259        -6.8371 
 106   2.0000      -0.230380        -6.2690 
 107   2.0000      -0.228691        -6.2230 
 108   2.0000      -0.212378        -5.7791 
 109   2.0000      -0.183414        -4.9910 
 110   0.0000      -0.057358        -1.5608 
 111   0.0000      -0.014178        -0.3858 
 112   0.0000      -0.004318        -0.1175 
 113   0.0000       0.029165         0.7936 
 114   0.0000       0.038051         1.0354 
 115   0.0000       0.042010         1.1432 
 116   0.0000       0.046448         1.2639 
 117   0.0000       0.049402         1.3443 
 118   0.0000       0.051659         1.4057 
 119   0.0000       0.055373         1.5068 
 120   0.0000       0.060219         1.6386 
 121   0.0000       0.062346         1.6965 
 122   0.0000       0.069292         1.8855 
 123   0.0000       0.074229         2.0199 
 124   0.0000       0.078514         2.1365 
 125   0.0000       0.079843         2.1726 
 126   0.0000       0.082418         2.2427 
 127   0.0000       0.087288         2.3752 
 128   0.0000       0.088820         2.4169 
 129   0.0000       0.091386         2.4867 
 130   0.0000       0.097542         2.6543 
 131   0.0000       0.099967         2.7202 
 132   0.0000       0.103369         2.8128 
 133   0.0000       0.106620         2.9013 
 134   0.0000       0.107408         2.9227 
 135   0.0000       0.108210         2.9446 
 136   0.0000       0.112174         3.0524 
 137   0.0000       0.115558         3.1445 
 138   0.0000       0.119961         3.2643 
 139   0.0000       0.125046         3.4027 
 140   0.0000       0.128050         3.4844 
 141   0.0000       0.129673         3.5286 
 142   0.0000       0.131941         3.5903 
 143   0.0000       0.136596         3.7170 
 144   0.0000       0.139825         3.8048 
 145   0.0000       0.141899         3.8613 
 146   0.0000       0.144946         3.9442 
 147   0.0000       0.147352         4.0096 
 148   0.0000       0.150513         4.0957 
 149   0.0000       0.153723         4.1830 
 150   0.0000       0.155896         4.2421 
 151   0.0000       0.158628         4.3165 
 152   0.0000       0.160691         4.3726 
 153   0.0000       0.163328         4.4444 
 154   0.0000       0.169811         4.6208 
 155   0.0000       0.172162         4.6848 
 156   0.0000       0.175988         4.7889 
 157   0.0000       0.177594         4.8326 
 158   0.0000       0.179436         4.8827 
 159   0.0000       0.184922         5.0320 
 160   0.0000       0.187075         5.0906 
 161   0.0000       0.188903         5.1403 
 162   0.0000       0.194779         5.3002 
 163   0.0000       0.195318         5.3149 
 164   0.0000       0.200508         5.4561 
 165   0.0000       0.205406         5.5894 
 166   0.0000       0.206481         5.6186 
 167   0.0000       0.211127         5.7451 
 168   0.0000       0.213698         5.8150 
 169   0.0000       0.215931         5.8758 
 170   0.0000       0.217659         5.9228 
 171   0.0000       0.219963         5.9855 
 172   0.0000       0.226501         6.1634 
 173   0.0000       0.230873         6.2824 
 174   0.0000       0.240373         6.5409 
 175   0.0000       0.245291         6.6747 
 176   0.0000       0.249007         6.7758 
 177   0.0000       0.258179         7.0254 
 178   0.0000       0.263173         7.1613 
 179   0.0000       0.266550         7.2532 
 180   0.0000       0.274351         7.4655 
 181   0.0000       0.285918         7.7802 
 182   0.0000       0.289782         7.8854 
 183   0.0000       0.295302         8.0356 
 184   0.0000       0.301860         8.2140 
 185   0.0000       0.327127         8.9016 
 186   0.0000       0.333620         9.0783 
 187   0.0000       0.336059         9.1446 
 188   0.0000       0.342650         9.3240 
 189   0.0000       0.353016         9.6061 
 190   0.0000       0.358764         9.7625 
 191   0.0000       0.362764         9.8713 
 192   0.0000       0.367026         9.9873 
 193   0.0000       0.371499        10.1090 
 194   0.0000       0.379216        10.3190 
 195   0.0000       0.380609        10.3569 
 196   0.0000       0.385455        10.4888 
 197   0.0000       0.388166        10.5625 
 198   0.0000       0.391332        10.6487 
 199   0.0000       0.396994        10.8028 
 200   0.0000       0.400820        10.9069 
 201   0.0000       0.402580        10.9548 
 202   0.0000       0.412777        11.2322 
 203   0.0000       0.416960        11.3461 
 204   0.0000       0.422958        11.5093 
 205   0.0000       0.430673        11.7192 
 206   0.0000       0.435614        11.8537 
 207   0.0000       0.447505        12.1772 
 208   0.0000       0.451349        12.2818 
 209   0.0000       0.458113        12.4659 
 210   0.0000       0.461742        12.5646 
 211   0.0000       0.465692        12.6721 
 212   0.0000       0.471887        12.8407 
 213   0.0000       0.474999        12.9254 
 214   0.0000       0.477707        12.9991 
 215   0.0000       0.483352        13.1527 
 216   0.0000       0.485342        13.2068 
 217   0.0000       0.487411        13.2631 
 218   0.0000       0.495889        13.4938 
 219   0.0000       0.499540        13.5932 
 220   0.0000       0.504475        13.7275 
 221   0.0000       0.510629        13.8949 
 222   0.0000       0.511397        13.9158 
 223   0.0000       0.518052        14.0969 
 224   0.0000       0.525245        14.2927 
 225   0.0000       0.528112        14.3707 
 226   0.0000       0.536286        14.5931 
 227   0.0000       0.538218        14.6457 
 228   0.0000       0.540627        14.7112 
 229   0.0000       0.546407        14.8685 
 230   0.0000       0.548599        14.9281 
 231   0.0000       0.554637        15.0925 
 232   0.0000       0.556770        15.1505 
 233   0.0000       0.560131        15.2419 
 234   0.0000       0.566015        15.4020 
 235   0.0000       0.567338        15.4380 
 236   0.0000       0.571683        15.5563 
 237   0.0000       0.572189        15.5701 
 238   0.0000       0.576913        15.6986 
 239   0.0000       0.578394        15.7389 
 240   0.0000       0.581755        15.8304 
 241   0.0000       0.584192        15.8967 
 242   0.0000       0.587800        15.9949 
 243   0.0000       0.591504        16.0956 
 244   0.0000       0.592191        16.1143 
 245   0.0000       0.595679        16.2093 
 246   0.0000       0.599469        16.3124 
 247   0.0000       0.601824        16.3765 
 248   0.0000       0.602247        16.3880 
 249   0.0000       0.603723        16.4281 
 250   0.0000       0.606066        16.4919 
 251   0.0000       0.607480        16.5304 
 252   0.0000       0.608351        16.5541 
 253   0.0000       0.613910        16.7053 
 254   0.0000       0.616432        16.7740 
 255   0.0000       0.618446        16.8288 
 256   0.0000       0.624132        16.9835 
 257   0.0000       0.626740        17.0545 
 258   0.0000       0.629327        17.1248 
 259   0.0000       0.630035        17.1441 
 260   0.0000       0.635205        17.2848 
 261   0.0000       0.639737        17.4081 
 262   0.0000       0.640802        17.4371 
 263   0.0000       0.641686        17.4612 
 264   0.0000       0.645560        17.5666 
 265   0.0000       0.649284        17.6679 
 266   0.0000       0.650844        17.7104 
 267   0.0000       0.653957        17.7951 
 268   0.0000       0.656809        17.8727 
 269   0.0000       0.660129        17.9630 
 270   0.0000       0.661505        18.0005 
 271   0.0000       0.667350        18.1595 
 272   0.0000       0.672230        18.2923 
 273   0.0000       0.675358        18.3774 
 274   0.0000       0.676643        18.4124 
 275   0.0000       0.677753        18.4426 
 276   0.0000       0.679986        18.5034 
 277   0.0000       0.684205        18.6182 
 278   0.0000       0.689828        18.7712 
 279   0.0000       0.692055        18.8318 
 280   0.0000       0.692925        18.8554 
 281   0.0000       0.696719        18.9587 
 282   0.0000       0.704716        19.1763 
 283   0.0000       0.705476        19.1970 
 284   0.0000       0.709832        19.3155 
 285   0.0000       0.713239        19.4082 
 286   0.0000       0.715303        19.4644 
 287   0.0000       0.725384        19.7387 
 288   0.0000       0.731585        19.9074 
 289   0.0000       0.735975        20.0269 
 290   0.0000       0.746311        20.3081 
 291   0.0000       0.746900        20.3242 
 292   0.0000       0.753546        20.5050 
 293   0.0000       0.759414        20.6647 
 294   0.0000       0.762632        20.7523 
 295   0.0000       0.766808        20.8659 
 296   0.0000       0.771363        20.9899 
 297   0.0000       0.783249        21.3133 
 298   0.0000       0.785274        21.3684 
 299   0.0000       0.793823        21.6010 
 300   0.0000       0.800968        21.7955 
 301   0.0000       0.803826        21.8732 
 302   0.0000       0.811563        22.0838 
 303   0.0000       0.820823        22.3357 
 304   0.0000       0.826963        22.5028 
 305   0.0000       0.858361        23.3572 
 306   0.0000       0.863046        23.4847 
 307   0.0000       0.882835        24.0232 
 308   0.0000       0.891516        24.2594 
 309   0.0000       0.899001        24.4631 
 310   0.0000       0.925574        25.1861 
 311   0.0000       0.934077        25.4175 
 312   0.0000       0.949594        25.8398 
 313   0.0000       0.961565        26.1655 
 314   0.0000       0.977844        26.6085 
 315   0.0000       0.989372        26.9222 
 316   0.0000       1.002764        27.2866 
 317   0.0000       1.019213        27.7342 
 318   0.0000       1.026417        27.9302 
 319   0.0000       1.039266        28.2799 
 320   0.0000       1.050846        28.5950 
 321   0.0000       1.056562        28.7505 
 322   0.0000       1.068008        29.0620 
 323   0.0000       1.090483        29.6736 
 324   0.0000       1.102654        30.0048 
 325   0.0000       1.112257        30.2661 
 326   0.0000       1.147754        31.2320 
 327   0.0000       1.153824        31.3971 
 328   0.0000       1.164452        31.6863 
 329   0.0000       1.175820        31.9957 
 330   0.0000       1.194259        32.4974 
 331   0.0000       1.214013        33.0350 
 332   0.0000       1.227448        33.4006 
 333   0.0000       1.242471        33.8094 
 334   0.0000       1.259241        34.2657 
 335   0.0000       1.265300        34.4306 
 336   0.0000       1.279840        34.8262 
 337   0.0000       1.292500        35.1707 
 338   0.0000       1.294726        35.2313 
 339   0.0000       1.308062        35.5942 
 340   0.0000       1.317415        35.8487 
 341   0.0000       1.337193        36.3869 
 342   0.0000       1.346380        36.6369 
 343   0.0000       1.350732        36.7553 
 344   0.0000       1.363331        37.0981 
 345   0.0000       1.370021        37.2802 
 346   0.0000       1.375086        37.4180 
 347   0.0000       1.393401        37.9164 
 348   0.0000       1.403368        38.1876 
 349   0.0000       1.415157        38.5084 
 350   0.0000       1.419839        38.6358 
 351   0.0000       1.430624        38.9293 
 352   0.0000       1.437449        39.1150 
 353   0.0000       1.453336        39.5473 
 354   0.0000       1.456653        39.6375 
 355   0.0000       1.472524        40.0694 
 356   0.0000       1.481032        40.3009 
 357   0.0000       1.489045        40.5190 
 358   0.0000       1.503064        40.9005 
 359   0.0000       1.508345        41.0442 
 360   0.0000       1.519468        41.3468 
 361   0.0000       1.522189        41.4209 
 362   0.0000       1.527327        41.5607 
 363   0.0000       1.549040        42.1515 
 364   0.0000       1.559232        42.4289 
 365   0.0000       1.569321        42.7034 
 366   0.0000       1.580421        43.0054 
 367   0.0000       1.588230        43.2179 
 368   0.0000       1.601736        43.5855 
 369   0.0000       1.612390        43.8754 
 370   0.0000       1.616800        43.9954 
 371   0.0000       1.621075        44.1117 
 372   0.0000       1.628646        44.3177 
 373   0.0000       1.637085        44.5473 
 374   0.0000       1.644261        44.7426 
 375   0.0000       1.659797        45.1654 
 376   0.0000       1.667401        45.3723 
 377   0.0000       1.671060        45.4718 
 378   0.0000       1.679616        45.7047 
 379   0.0000       1.682323        45.7783 
 380   0.0000       1.687458        45.9181 
 381   0.0000       1.691163        46.0189 
 382   0.0000       1.698192        46.2102 
 383   0.0000       1.706450        46.4349 
 384   0.0000       1.713468        46.6258 
 385   0.0000       1.718131        46.7527 
 386   0.0000       1.722465        46.8707 
 387   0.0000       1.728902        47.0458 
 388   0.0000       1.732633        47.1473 
 389   0.0000       1.740955        47.3738 
 390   0.0000       1.745096        47.4865 
 391   0.0000       1.748321        47.5742 
 392   0.0000       1.751954        47.6731 
 393   0.0000       1.760659        47.9100 
 394   0.0000       1.769597        48.1532 
 395   0.0000       1.771076        48.1934 
 396   0.0000       1.778923        48.4070 
 397   0.0000       1.784299        48.5533 
 398   0.0000       1.787807        48.6487 
 399   0.0000       1.793339        48.7992 
 400   0.0000       1.796907        48.8963 
 401   0.0000       1.810616        49.2694 
 402   0.0000       1.812285        49.3148 
 403   0.0000       1.817897        49.4675 
 404   0.0000       1.824882        49.6576 
 405   0.0000       1.826030        49.6888 
 406   0.0000       1.831728        49.8438 
 407   0.0000       1.836989        49.9870 
 408   0.0000       1.844648        50.1954 
 409   0.0000       1.859202        50.5914 
 410   0.0000       1.862526        50.6819 
 411   0.0000       1.872352        50.9493 
 412   0.0000       1.874735        51.0141 
 413   0.0000       1.884315        51.2748 
 414   0.0000       1.892524        51.4982 
 415   0.0000       1.895957        51.5916 
 416   0.0000       1.902132        51.7596 
 417   0.0000       1.911304        52.0092 
 418   0.0000       1.917634        52.1815 
 419   0.0000       1.924063        52.3564 
 420   0.0000       1.932003        52.5725 
 421   0.0000       1.934707        52.6460 
 422   0.0000       1.944412        52.9101 
 423   0.0000       1.951236        53.0958 
 424   0.0000       1.959321        53.3158 
 425   0.0000       1.965297        53.4785 
 426   0.0000       1.965657        53.4883 
 427   0.0000       1.969837        53.6020 
 428   0.0000       1.973733        53.7080 
 429   0.0000       1.978062        53.8258 
 430   0.0000       1.982283        53.9407 
 431   0.0000       1.988109        54.0992 
 432   0.0000       1.993514        54.2463 
 433   0.0000       1.997870        54.3648 
 434   0.0000       1.998360        54.3781 
 435   0.0000       2.001970        54.4764 
 436   0.0000       2.011546        54.7370 
 437   0.0000       2.012972        54.7757 
 438   0.0000       2.016226        54.8643 
 439   0.0000       2.021323        55.0030 
 440   0.0000       2.026654        55.1480 
 441   0.0000       2.028423        55.1962 
 442   0.0000       2.033487        55.3340 
 443   0.0000       2.043514        55.6068 
[...]

 --------------
 Nucleus  47H :
 --------------

Diamagnetic contribution to the shielding tensor (ppm) : 
            34.955         -2.621        -7.039
            -3.077         33.134         5.451
            -7.861          4.972        48.502

Paramagnetic contribution to the shielding tensor (ppm): 
            -2.837          0.874         4.395
             1.272         -6.169        -3.652
             4.474         -2.425       -13.789

Total shielding tensor (ppm): 
            32.118         -1.747        -2.644
            -1.805         26.965         1.799
            -3.387          2.547        34.713


 Diagonalized sT*s matrix:
 
 sDSO            31.336           32.369           52.887  iso=      38.864
 sPSO            -5.134           -2.216          -15.445  iso=      -7.598
        ---------------  ---------------  ---------------
 Total           26.202           30.153           37.442  iso=      31.265

 --------------
 Nucleus  48H :
 --------------

Diamagnetic contribution to the shielding tensor (ppm) : 
            37.119          1.396        -2.468
             1.581         31.799        -8.120
            -7.071         -7.344        49.365

Paramagnetic contribution to the shielding tensor (ppm): 
            -6.355         -0.298         2.633
            -1.156         -3.456         5.986
             8.531          4.900       -19.174

Total shielding tensor (ppm): 
            30.764          1.098         0.166
             0.425         28.343        -2.134
             1.460         -2.443        30.191


 Diagonalized sT*s matrix:
 
 sDSO            31.454           39.351           47.477  iso=      39.427
 sPSO            -4.934           -8.384          -15.667  iso=      -9.662
        ---------------  ---------------  ---------------
 Total           26.520           30.967           31.810  iso=      29.766

 --------------
 Nucleus  52H :
 --------------

Diamagnetic contribution to the shielding tensor (ppm) : 
            38.933         -2.832         2.017
             0.327         53.153        -2.364
             5.735          1.652        32.388

Paramagnetic contribution to the shielding tensor (ppm): 
            -5.542          5.000         1.648
             2.611        -31.147         3.827
            -2.380         -0.744        -9.700

Total shielding tensor (ppm): 
            33.391          2.169         3.665
             2.938         22.006         1.463
             3.355          0.909        22.689


 Diagonalized sT*s matrix:
 
 sDSO            45.383           38.543           40.549  iso=      41.492
 sPSO           -24.270          -16.605           -5.514  iso=     -15.463
        ---------------  ---------------  ---------------
 Total           21.113           21.938           35.035  iso=      26.029

 --------------
 Nucleus  53H :
 --------------

Diamagnetic contribution to the shielding tensor (ppm) : 
            39.531         -3.344         0.486
           -11.094         51.323         4.791
             1.274         -6.569        36.609

Paramagnetic contribution to the shielding tensor (ppm): 
            -7.011          4.896         3.597
            13.527        -28.504        -3.593
             2.429          7.121       -13.506

Total shielding tensor (ppm): 
            32.520          1.552         4.083
             2.433         22.819         1.198
             3.703          0.552        23.103


 Diagonalized sT*s matrix:
 
 sDSO            36.394           53.415           37.655  iso=      42.488
 sPSO           -14.721          -30.975           -3.326  iso=     -16.340
        ---------------  ---------------  ---------------
 Total           21.674           22.439           34.329  iso=      26.147

 --------------
 Nucleus  57H :
 --------------

Diamagnetic contribution to the shielding tensor (ppm) : 
            27.847          0.905         2.577
            -0.655         38.489        -5.454
            18.786         -5.427        38.887

Paramagnetic contribution to the shielding tensor (ppm): 
            -0.306         -1.135        -3.400
            -0.353        -10.303         3.071
           -17.812          2.444        -5.838

Total shielding tensor (ppm): 
            27.541         -0.230        -0.824
            -1.008         28.187        -2.384
             0.974         -2.983        33.049


 Diagonalized sT*s matrix:
 
 sDSO            36.549           24.594           44.079  iso=      35.074
 sPSO            -9.885            3.266           -9.827  iso=      -5.482
        ---------------  ---------------  ---------------
 Total           26.665           27.859           34.253  iso=      29.592

 --------------
 Nucleus  58H :
 --------------

Diamagnetic contribution to the shielding tensor (ppm) : 
            34.643          6.160         7.536
             8.931         20.274         2.393
            16.003          2.482        22.507

Paramagnetic contribution to the shielding tensor (ppm): 
            -2.344         -4.680        -3.620
            -7.533          8.907         0.794
           -12.830          0.195         7.030

Total shielding tensor (ppm): 
            32.299          1.480         3.916
             1.398         29.180         3.187
             3.173          2.677        29.536


 Diagonalized sT*s matrix:
 
 sDSO            17.939           16.118           43.367  iso=      25.808
 sPSO             8.039           12.953           -7.401  iso=       4.531
        ---------------  ---------------  ---------------
 Total           25.978           29.072           35.966  iso=      30.339

 --------------
 Nucleus  61H :
 --------------

Diamagnetic contribution to the shielding tensor (ppm) : 
            26.784         -1.000         1.758
             6.116         41.388       -10.167
             7.414         -5.590        34.606

Paramagnetic contribution to the shielding tensor (ppm): 
             2.620          0.393        -1.120
            -7.234         -8.587         7.718
            -6.876          3.159        -5.163

Total shielding tensor (ppm): 
            29.405         -0.607         0.639
            -1.118         32.802        -2.449
             0.538         -2.432        29.444


 Diagonalized sT*s matrix:
 
 sDSO            28.440           28.825           45.514  iso=      34.260
 sPSO            -0.293            0.373          -11.210  iso=      -3.710
        ---------------  ---------------  ---------------
 Total           28.147           29.198           34.304  iso=      30.550

 --------------
 Nucleus  62H :
 --------------

Diamagnetic contribution to the shielding tensor (ppm) : 
            26.038          6.640         6.493
            18.169         31.593         1.068
            18.144          5.766        28.753

Paramagnetic contribution to the shielding tensor (ppm): 
             4.455         -4.789        -3.492
           -15.786          0.070         4.099
           -15.320         -0.859         1.865

Total shielding tensor (ppm): 
            30.494          1.851         3.001
             2.383         31.663         5.166
             2.824          4.906        30.618


 Diagonalized sT*s matrix:
 
 sDSO            25.575           14.938           45.871  iso=      28.795
 sPSO             0.338           14.032           -7.980  iso=       2.130
        ---------------  ---------------  ---------------
 Total           25.913           28.970           37.892  iso=      30.925

 --------------
 Nucleus  63H :
 --------------

Diamagnetic contribution to the shielding tensor (ppm) : 
            32.436         -5.514        -7.299
             6.879         41.623         2.929
             7.808          9.760        35.194

Paramagnetic contribution to the shielding tensor (ppm): 
             1.775          4.278         4.142
            -8.654        -13.536         0.199
           -10.840         -6.008        -5.569

Total shielding tensor (ppm): 
            34.211         -1.236        -3.157
            -1.775         28.087         3.127
            -3.032          3.753        29.626


 Diagonalized sT*s matrix:
 
 sDSO            32.388           41.126           35.739  iso=      36.418
 sPSO            -7.135          -11.263            1.067  iso=      -5.777
        ---------------  ---------------  ---------------
 Total           25.254           29.864           36.807  iso=      30.641

 --------------
 Nucleus  64H :
 --------------

Diamagnetic contribution to the shielding tensor (ppm) : 
            30.068          1.510         0.047
             5.743         30.242       -11.785
            -8.769         -5.024        25.722

Paramagnetic contribution to the shielding tensor (ppm): 
            -1.458         -1.656        -2.320
            -6.525          5.349         9.664
             6.682          1.496         2.550

Total shielding tensor (ppm): 
            28.609         -0.146        -2.273
            -0.782         35.591        -2.121
            -2.087         -3.528        28.273


 Diagonalized sT*s matrix:
 
 sDSO            21.526           29.330           35.176  iso=      28.677
 sPSO             4.125            0.929            1.387  iso=       2.147
        ---------------  ---------------  ---------------
 Total           25.651           30.260           36.563  iso=      30.824

 --------------
 Nucleus  65H :
 --------------

Diamagnetic contribution to the shielding tensor (ppm) : 
            36.008          4.371         3.620
             8.198         22.473        -3.913
           -11.015         -4.659        36.813

Paramagnetic contribution to the shielding tensor (ppm): 
            -3.578         -2.099        -2.256
            -5.740          4.885         4.645
            12.358          5.895        -2.649

Total shielding tensor (ppm): 
            32.430          2.272         1.364
             2.458         27.357         0.733
             1.343          1.236        34.164


 Diagonalized sT*s matrix:
 
 sDSO            20.398           42.495           32.401  iso=      31.765
 sPSO             6.004          -10.389            3.043  iso=      -0.447
        ---------------  ---------------  ---------------
 Total           26.402           32.106           35.444  iso=      31.317

 --------------
 Nucleus  66H :
 --------------

Diamagnetic contribution to the shielding tensor (ppm) : 
            40.399          1.486        -5.917
             8.326         11.597         1.260
           -17.823          3.412        18.905

Paramagnetic contribution to the shielding tensor (ppm): 
            -4.778         -0.395         1.679
            -6.957         16.253        -3.222
            12.788         -5.018        11.073

Total shielding tensor (ppm): 
            35.621          1.091        -4.238
             1.369         27.850        -1.962
            -5.035         -1.606        29.978


 Diagonalized sT*s matrix:
 
 sDSO            16.659            8.902           45.339  iso=      23.633
 sPSO             9.835           19.471           -6.757  iso=       7.516
        ---------------  ---------------  ---------------
 Total           26.494           28.372           38.582  iso=      31.150

 --------------
 Nucleus  67H :
 --------------

Diamagnetic contribution to the shielding tensor (ppm) : 
            26.544         -1.353         1.664
           -13.699         28.351        -5.699
            10.254        -11.559        25.237

Paramagnetic contribution to the shielding tensor (ppm): 
             1.933         -0.839        -0.467
            12.184          3.753         0.198
            -9.420          7.434         6.212

Total shielding tensor (ppm): 
            28.477         -2.192         1.197
            -1.515         32.104        -5.501
             0.834         -4.126        31.449


 Diagonalized sT*s matrix:
 
 sDSO            18.395           22.466           39.271  iso=      26.711
 sPSO             8.349            5.732           -2.183  iso=       3.966
        ---------------  ---------------  ---------------
 Total           26.744           28.198           37.088  iso=      30.677

 --------------
 Nucleus  68H :
 --------------

Diamagnetic contribution to the shielding tensor (ppm) : 
            40.667         -5.873        -0.735
           -11.699          9.787         4.189
             0.183          4.771        12.015

Paramagnetic contribution to the shielding tensor (ppm): 
            -4.086          2.745        -0.227
             7.942         19.247        -4.048
            -1.843         -5.004        14.343

Total shielding tensor (ppm): 
            36.581         -3.128        -0.962
            -3.757         29.034         0.141
            -1.660         -0.233        26.358


 Diagonalized sT*s matrix:
 
 sDSO            14.088            5.686           42.695  iso=      20.823
 sPSO            11.984           22.175           -4.656  iso=       9.834
        ---------------  ---------------  ---------------
 Total           26.072           27.861           38.039  iso=      30.657

 --------------
 Nucleus  69H :
 --------------

Diamagnetic contribution to the shielding tensor (ppm) : 
            31.803          0.514         4.158
           -14.589         34.541         9.265
             2.866          3.617        22.101

Paramagnetic contribution to the shielding tensor (ppm): 
            -0.821         -0.770        -2.511
            15.181         -1.960        -5.460
            -1.440          0.216         6.387

Total shielding tensor (ppm): 
            30.982         -0.256         1.647
             0.592         32.581         3.805
             1.426          3.833        28.488


 Diagonalized sT*s matrix:
 
 sDSO            17.226           36.571           34.648  iso=      29.481
 sPSO             8.671           -5.506            0.441  iso=       1.202
        ---------------  ---------------  ---------------
 Total           25.897           31.065           35.089  iso=      30.684

 --------------
 Nucleus  70H :
 --------------

Diamagnetic contribution to the shielding tensor (ppm) : 
            32.289          1.174         3.024
            -5.284         35.937         9.933
            -3.020          7.001        42.502

Paramagnetic contribution to the shielding tensor (ppm): 
             0.623         -0.966        -1.880
             5.915         -6.903        -4.838
             4.402         -2.194       -13.542

Total shielding tensor (ppm): 
            32.912          0.208         1.145
             0.631         29.034         5.095
             1.383          4.807        28.960


 Diagonalized sT*s matrix:
 
 sDSO            30.626           38.305           41.797  iso=      36.909
 sPSO            -6.621           -6.140           -7.061  iso=      -6.607
        ---------------  ---------------  ---------------
 Total           24.005           32.165           34.736  iso=      30.302

 --------------
 Nucleus  71H :
 --------------

Diamagnetic contribution to the shielding tensor (ppm) : 
            29.816         -4.435        -1.961
            -9.084         41.286        -1.344
            -0.774         -9.681        41.294

Paramagnetic contribution to the shielding tensor (ppm): 
             1.738          3.630         3.448
             7.938         -8.130        -1.644
             1.778          6.712       -13.360

Total shielding tensor (ppm): 
            31.554         -0.804         1.487
            -1.145         33.156        -2.988
             1.004         -2.969        27.934


 Diagonalized sT*s matrix:
 
 sDSO            38.353           26.809           47.235  iso=      37.465
 sPSO           -11.879            4.287          -12.160  iso=      -6.584
        ---------------  ---------------  ---------------
 Total           26.474           31.096           35.074  iso=      30.881

 --------------
 Nucleus  72H :
 --------------

Diamagnetic contribution to the shielding tensor (ppm) : 
            40.959         -5.013        -8.286
            -7.108         24.277         4.077
           -16.049         -0.753        35.104

Paramagnetic contribution to the shielding tensor (ppm): 
            -4.735          4.129         5.322
             6.004          2.983        -1.716
            12.644          3.972        -6.512

Total shielding tensor (ppm): 
            36.225         -0.884        -2.964
            -1.104         27.259         2.361
            -3.405          3.219        28.591


 Diagonalized sT*s matrix:
 
 sDSO            26.855           23.440           50.045  iso=      33.447
 sPSO            -1.944            5.990          -12.310  iso=      -2.755
        ---------------  ---------------  ---------------
 Total           24.910           29.430           37.735  iso=      30.692



--------------------------------
CHEMICAL SHIELDING SUMMARY (ppm)
--------------------------------


  Nucleus  Element    Isotropic     Anisotropy
  -------  -------  ------------   ------------
      3       H           29.366          6.444 
      4       H           29.046          7.402 
      8       H           29.562          7.960 
      9       H           29.327          5.479 
     10       H           30.101          8.331 
     11       H           29.855         10.225 
     13       H           27.732          7.759 
     16       H           26.778          4.678 
     17       H           26.498          4.806 
     19       H           25.398         10.499 
     21       H           25.588         14.633 
     24       H           28.905         10.172 
     25       H           30.049          9.534 
     27       H           30.244          6.976 
     28       H           30.111         11.774 
     30       H           29.735          8.475 
     31       H           30.469          6.826 
     33       H           29.837          4.309 
     35       H           30.170         14.720 
     37       H           30.321         10.787 
     38       H           30.183          9.917 
     40       H           29.842          9.832 
     41       H           30.226          8.039 
     42       H           30.785          5.090 
     45       H           31.212          7.327 
     46       H           31.011          8.061 
     47       H           31.265          9.265 
     48       H           29.766          3.067 
     52       H           26.029         13.509 
     53       H           26.147         12.273 
     57       H           29.592          6.991 
     58       H           30.339          8.441 
     61       H           30.550          5.632 
     62       H           30.925         10.450 
     63       H           30.641          9.248 
     64       H           30.824          8.608 
     65       H           31.317          6.190 
     66       H           31.150         11.149 
     67       H           30.677          9.617 
     68       H           30.657         11.073 
     69       H           30.684          6.607 
     70       H           30.302          6.651 
     71       H           30.881          6.289 
     72       H           30.692         10.565 



Maximum memory used throughout the entire EPRNMR-calculation: 140.6 MB

Timings for individual modules:

Sum of individual times         ...      141.023 sec (=   2.350 min)
GTO integral calculation        ...        0.764 sec (=   0.013 min)   0.5 %
SCF iterations                  ...       94.220 sec (=   1.570 min)  66.8 %
EPR/NMR calculation             ...       46.039 sec (=   0.767 min)  32.6 %
                             ****ORCA TERMINATED NORMALLY****
TOTAL RUN TIME: 0 days 0 hours 2 minutes 21 seconds 566 msec
