
                                 *****************
                                 * O   R   C   A *
                                 *****************

                                            #,                                       
                                            ###                                      
                                            ####                                     
                                            #####                                    
                                            ######                                   
                                           ########,                                 
                                     ,,################,,,,,                         
                               ,,#################################,,                 
                          ,,##########################################,,             
                       ,#########################################, ''#####,          
                    ,#############################################,,   '####,        
                  ,##################################################,,,,####,       
                ,###########''''           ''''###############################       
              ,#####''   ,,,,##########,,,,          '''####'''          '####       
            ,##' ,,,,###########################,,,                        '##       
           ' ,,###''''                  '''############,,,                           
         ,,##''                                '''############,,,,        ,,,,,,###''
      ,#''                                            '''#######################'''  
     '                                                          ''''####''''         
             ,#######,   #######,   ,#######,      ##                                
            ,#'     '#,  ##    ##  ,#'     '#,    #''#        ######   ,####,        
            ##       ##  ##   ,#'  ##            #'  '#       #        #'  '#        
            ##       ##  #######   ##           ,######,      #####,   #    #        
            '#,     ,#'  ##    ##  '#,     ,#' ,#      #,         ##   #,  ,#        
             '#######'   ##     ##  '#######'  #'      '#     #####' # '####'        



                  #######################################################
                  #                        -***-                        #
                  #          Department of theory and spectroscopy      #
                  #    Directorship and core code : Frank Neese         #
                  #        Max Planck Institute fuer Kohlenforschung    #
                  #                Kaiser Wilhelm Platz 1               #
                  #                 D-45470 Muelheim/Ruhr               #
                  #                      Germany                        #
                  #                                                     #
                  #                  All rights reserved                #
                  #                        -***-                        #
                  #######################################################


                         Program Version 5.0.2 -  RELEASE  -


 With contributions from (in alphabetic order):
   Daniel Aravena         : Magnetic Suceptibility
   Michael Atanasov       : Ab Initio Ligand Field Theory (pilot matlab implementation)
   Alexander A. Auer      : GIAO ZORA, VPT2 properties, NMR spectrum
   Ute Becker             : Parallelization
   Giovanni Bistoni       : ED, misc. LED, open-shell LED, HFLD
   Martin Brehm           : Molecular dynamics
   Dmytro Bykov           : SCF Hessian
   Vijay G. Chilkuri      : MRCI spin determinant printing, contributions to CSF-ICE
   Dipayan Datta          : RHF DLPNO-CCSD density
   Achintya Kumar Dutta   : EOM-CC, STEOM-CC
   Dmitry Ganyushin       : Spin-Orbit,Spin-Spin,Magnetic field MRCI
   Miquel Garcia          : C-PCM and meta-GGA Hessian, CC/C-PCM, Gaussian charge scheme
   Yang Guo               : DLPNO-NEVPT2, F12-NEVPT2, CIM, IAO-localization
   Andreas Hansen         : Spin unrestricted coupled pair/coupled cluster methods
   Benjamin Helmich-Paris : MC-RPA, TRAH-SCF, COSX integrals
   Lee Huntington         : MR-EOM, pCC
   Robert Izsak           : Overlap fitted RIJCOSX, COSX-SCS-MP3, EOM
   Marcus Kettner         : VPT2
   Christian Kollmar      : KDIIS, OOCD, Brueckner-CCSD(T), CCSD density, CASPT2, CASPT2-K
   Simone Kossmann        : Meta GGA functionals, TD-DFT gradient, OOMP2, MP2 Hessian
   Martin Krupicka        : Initial AUTO-CI
   Lucas Lang             : DCDCAS
   Marvin Lechner         : AUTO-CI (C++ implementation), FIC-MRCC
   Dagmar Lenk            : GEPOL surface, SMD
   Dimitrios Liakos       : Extrapolation schemes; Compound Job, initial MDCI parallelization
   Dimitrios Manganas     : Further ROCIS development; embedding schemes
   Dimitrios Pantazis     : SARC Basis sets
   Anastasios Papadopoulos: AUTO-CI, single reference methods and gradients
   Taras Petrenko         : DFT Hessian,TD-DFT gradient, ASA, ECA, R-Raman, ABS, FL, XAS/XES, NRVS
   Peter Pinski           : DLPNO-MP2, DLPNO-MP2 Gradient
   Christoph Reimann      : Effective Core Potentials
   Marius Retegan         : Local ZFS, SOC
   Christoph Riplinger    : Optimizer, TS searches, QM/MM, DLPNO-CCSD(T), (RO)-DLPNO pert. Triples
   Tobias Risthaus        : Range-separated hybrids, TD-DFT gradient, RPA, STAB
   Michael Roemelt        : Original ROCIS implementation
   Masaaki Saitow         : Open-shell DLPNO-CCSD energy and density
   Barbara Sandhoefer     : DKH picture change effects
   Avijit Sen             : IP-ROCIS
   Kantharuban Sivalingam : CASSCF convergence, NEVPT2, FIC-MRCI
   Bernardo de Souza      : ESD, SOC TD-DFT
   Georgi Stoychev        : AutoAux, RI-MP2 NMR, DLPNO-MP2 response
   Willem Van den Heuvel  : Paramagnetic NMR
   Boris Wezisla          : Elementary symmetry handling
   Frank Wennmohs         : Technical directorship


 We gratefully acknowledge several colleagues who have allowed us to
 interface, adapt or use parts of their codes:
   Stefan Grimme, W. Hujo, H. Kruse, P. Pracht,  : VdW corrections, initial TS optimization,
                  C. Bannwarth, S. Ehlert          DFT functionals, gCP, sTDA/sTD-DF
   Ed Valeev, F. Pavosevic, A. Kumar             : LibInt (2-el integral package), F12 methods
   Garnet Chan, S. Sharma, J. Yang, R. Olivares  : DMRG
   Ulf Ekstrom                                   : XCFun DFT Library
   Mihaly Kallay                                 : mrcc  (arbitrary order and MRCC methods)
   Jiri Pittner, Ondrej Demel                    : Mk-CCSD
   Frank Weinhold                                : gennbo (NPA and NBO analysis)
   Christopher J. Cramer and Donald G. Truhlar   : smd solvation model
   Lars Goerigk                                  : TD-DFT with DH, B97 family of functionals
   V. Asgeirsson, H. Jonsson                     : NEB implementation
   FAccTs GmbH                                   : IRC, NEB, NEB-TS, DLPNO-Multilevel, CI-OPT
                                                   MM, QMMM, 2- and 3-layer-ONIOM, Crystal-QMMM,
                                                   LR-CPCM, SF, NACMEs, symmetry and pop. for TD-DFT,
                                                   nearIR, NL-DFT gradient (VV10), updates on ESD,
                                                   ML-optimized integration grids
   S Lehtola, MJT Oliveira, MAL Marques          : LibXC Library
   Liviu Ungur et al                             : ANISO software


 Your calculation uses the libint2 library for the computation of 2-el integrals
 For citations please refer to: http://libint.valeyev.net

 Your ORCA version has been built with support for libXC version: 5.1.0
 For citations please refer to: https://tddft.org/programs/libxc/

 This ORCA versions uses:
   CBLAS   interface :  Fast vector & matrix operations
   LAPACKE interface :  Fast linear algebra routines
   SCALAPACK package :  Parallel linear algebra routines
   Shared memory     :  Shared parallel matrices
   BLAS/LAPACK       :  OpenBLAS 0.3.15  USE64BITINT DYNAMIC_ARCH NO_AFFINITY Zen SINGLE_THREADED
        Core in use  :  Zen
   Copyright (c) 2011-2014, The OpenBLAS Project


Your calculation utilizes the atom-pairwise dispersion correction
based on tight binding partial charges (D4)
Cite in your paper:
E.Caldeweyher, C.Bannwarth, S.Grimme, J.Chem.Phys., (2017), 147, 034112.
E.Caldeweyher, S.Ehlert, A.Hansen, H.Neugebauer, S.Grimme, J.Chem.Phys., (2018), in progress.
   

================================================================================

----- Orbital basis set information -----
Your calculation utilizes the basis: pcSseg-1
   F. Jensen, J. Chem. Theory Comput. 11, 132 (2015).

----- AuxJ basis set information -----
Your calculation utilizes the auxiliary basis: def2/J
   F. Weigend, Phys. Chem. Chem. Phys. 8, 1057 (2006).

================================================================================
                                        WARNINGS
                       Please study these warnings very carefully!
================================================================================



WARNING: Found flag for RIJCOSX approximation but no HF exchange needed!
  ===> : RIJCOSX  will be disabled and Split-RI-J is turned on

INFO   : the flag for use of the SHARK integral package has been found!

================================================================================
                                       INPUT FILE
================================================================================
NAME = inpS
|  1> ! revTPSS
|  2> ! D4
|  3> ! pcSseg-1
|  4> ! def2/J RIJCOSX
|  5> ! DEFGRID2
|  6> ! scfconv7
|  7> ! smallprint printgap noloewdin
|  8> ! NOSOSCF
|  9> %MaxCore 4000
| 10> %output
| 11>        print[P_BondOrder_M] 1
| 12>        print[P_Mayer] 1
| 13>        print[P_basis] 2
| 14> end
| 15> %pal
| 16>     nprocs 4
| 17> end
| 18> ! CPCM(chloroform)
| 19> *xyz 0 1
| 20> C   -4.9997742600   0.2050671900  -0.3849669300
| 21> C   -6.4514193800  -0.1967748800  -0.4969859300
| 22> C   -7.3239711800   0.6902087300   0.4003577800
| 23> H   -6.5842919500  -1.2503180700  -0.2261763200
| 24> H   -6.7952576800  -0.0668815100  -1.5338565400
| 25> C   -4.7522252700   1.6403830300  -0.6458320600
| 26> C   -5.6541473800   2.5805996300   0.1229700200
| 27> C   -7.1288511000   2.1627904200   0.0351820700
| 28> H   -5.5231331500   3.6075158500  -0.2345163400
| 29> H   -5.3462880100   2.5671951900   1.1796433300
| 30> H   -7.4938031700   2.3156261000  -0.9896153600
| 31> H   -7.7370625300   2.7880812400   0.6990015000
| 32> O   -7.0406021700   0.4442871000   1.7876975900
| 33> H   -8.3785925100   0.4177004600   0.2701114700
| 34> C   -4.0521878900  -0.6860070400  -0.0074208600
| 35> C   -3.8362454600   2.0777111800  -1.5168943000
| 36> H   -3.2096672100   1.3854233800  -2.0728473700
| 37> H   -3.7008545800   3.1411542700  -1.6996033600
| 38> C   -2.6582900400  -0.3955466500   0.2376174400
| 39> H   -4.3902223200  -1.7086355800   0.1560422700
| 40> C   -1.6896506000  -1.2925530300   0.5194624900
| 41> H   -2.3803777100   0.6553854500   0.2007219800
| 42> C   -1.8677344800  -2.7877080000   0.5879410100
| 43> C   -0.8816885400  -3.5166284000  -0.3451370000
| 44> H   -2.8908236100  -3.0960146300   0.3565066800
| 45> H   -1.6597686600  -3.1062776200   1.6217664800
| 46> C    0.5709621200  -3.0667532700  -0.1382127700
| 47> H   -1.1801552000  -3.3418227100  -1.3865663700
| 48> H   -0.9586701000  -4.5976545300  -0.1759960900
| 49> C    0.7199173300  -1.5435123800  -0.2538636200
| 50> H    1.2086255900  -3.5863640200  -0.8605087200
| 51> H    0.9052614200  -3.3737300300   0.8642863100
| 52> C   -0.2664447300  -0.8991318400   0.7728413500
| 53> H    0.0125243900  -1.3487942100   1.7433880400
| 54> C    0.1492020100   0.5678897900   0.8192367800
| 55> H   -6.0800216800   0.3753542500   1.8832929400
| 56> C    1.6881690300   0.5160055700   0.6562994000
| 57> H   -0.1644273000   1.0552975100   1.7481823900
| 58> H   -0.3029217300   1.1270355500  -0.0074303100
| 59> C    2.0591727100  -0.9460231400   0.2615937000
| 60> H    2.2041220000   0.8103964000   1.5757136400
| 61> H    2.0143459900   1.2136566300  -0.1244229100
| 62> H    2.3185280200  -1.4995314100   1.1787686800
| 63> C    3.3048891200  -1.0044379100  -0.6566898100
| 64> C    0.4193365700  -1.0638785600  -1.6803628700
| 65> H    0.6349953200   0.0024491000  -1.8015669800
| 66> H   -0.6328465900  -1.2147064300  -1.9410390400
| 67> H    1.0279035600  -1.6104286600  -2.4091112600
| 68> H    3.0627356200  -0.4249980400  -1.5629138900
| 69> C    3.6797832500  -2.4235936100  -1.0809424200
| 70> C    4.4394034300  -0.2849539000   0.0325903600
| 71> C    5.5548824600  -0.8298185900   0.5198137400
| 72> H    4.2997960000   0.7891953100   0.1687514700
| 73> H    5.7330157800  -1.8997780700   0.4024598800
| 74> C    6.6238248100  -0.0651784600   1.2499824600
| 75> C    7.9992200500  -0.3318228600   0.6236564000
| 76> C    6.6177906600  -0.3558579100   2.7765725700
| 77> H    6.4035719000   1.0074371800   1.1418170200
| 78> H    7.4719944900   0.1999877000   3.1934661300
| 79> C    6.8079226600  -1.8364797200   3.1155833200
| 80> C    5.3433472600   0.1788662300   3.4322976200
| 81> H    8.2365773200  -1.4013672300   0.6199392300
| 82> H    8.7889638600   0.1891130100   1.1773861600
| 83> H    8.0220981200   0.0143387600  -0.4150567700
| 84> H    7.7178354000  -2.2505152900   2.6693487200
| 85> H    5.9554973100  -2.4306228700   2.7654909100
| 86> H    6.8792494600  -1.9701176600   4.2006674400
| 87> H    5.2020919600   1.2444515300   3.2171030600
| 88> H    5.3822924500   0.0524473600   4.5200885000
| 89> H    4.4619742500  -0.3573560400   3.0604951700
| 90> H    2.9308684700  -2.8441638900  -1.7549614700
| 91> H    3.7660111300  -3.0898953900  -0.2144310700
| 92> H    4.6401302500  -2.4267277500  -1.6076523400
| 93> *
| 94> %eprnmr
| 95>  Nuclei = all H { shift }
| 96>  origin giao
| 97>  giao_2el giao_2el_same_as_scf
| 98>  giao_1el giao_1el_analytic
| 99> end
|100> 
|101>                          ****END OF INPUT****
================================================================================

                       ****************************
                       * Single Point Calculation *
                       ****************************

---------------------------------
CARTESIAN COORDINATES (ANGSTROEM)
---------------------------------
  C     -4.999774    0.205067   -0.384967
  C     -6.451419   -0.196775   -0.496986
  C     -7.323971    0.690209    0.400358
  H     -6.584292   -1.250318   -0.226176
  H     -6.795258   -0.066882   -1.533857
  C     -4.752225    1.640383   -0.645832
  C     -5.654147    2.580600    0.122970
  C     -7.128851    2.162790    0.035182
  H     -5.523133    3.607516   -0.234516
  H     -5.346288    2.567195    1.179643
  H     -7.493803    2.315626   -0.989615
  H     -7.737063    2.788081    0.699002
  O     -7.040602    0.444287    1.787698
  H     -8.378593    0.417700    0.270111
  C     -4.052188   -0.686007   -0.007421
  C     -3.836245    2.077711   -1.516894
  H     -3.209667    1.385423   -2.072847
  H     -3.700855    3.141154   -1.699603
  C     -2.658290   -0.395547    0.237617
  H     -4.390222   -1.708636    0.156042
  C     -1.689651   -1.292553    0.519462
  H     -2.380378    0.655385    0.200722
  C     -1.867734   -2.787708    0.587941
  C     -0.881689   -3.516628   -0.345137
  H     -2.890824   -3.096015    0.356507
  H     -1.659769   -3.106278    1.621766
  C      0.570962   -3.066753   -0.138213
  H     -1.180155   -3.341823   -1.386566
  H     -0.958670   -4.597655   -0.175996
  C      0.719917   -1.543512   -0.253864
  H      1.208626   -3.586364   -0.860509
  H      0.905261   -3.373730    0.864286
  C     -0.266445   -0.899132    0.772841
  H      0.012524   -1.348794    1.743388
  C      0.149202    0.567890    0.819237
  H     -6.080022    0.375354    1.883293
  C      1.688169    0.516006    0.656299
  H     -0.164427    1.055298    1.748182
  H     -0.302922    1.127036   -0.007430
  C      2.059173   -0.946023    0.261594
  H      2.204122    0.810396    1.575714
  H      2.014346    1.213657   -0.124423
  H      2.318528   -1.499531    1.178769
  C      3.304889   -1.004438   -0.656690
  C      0.419337   -1.063879   -1.680363
  H      0.634995    0.002449   -1.801567
  H     -0.632847   -1.214706   -1.941039
  H      1.027904   -1.610429   -2.409111
  H      3.062736   -0.424998   -1.562914
  C      3.679783   -2.423594   -1.080942
  C      4.439403   -0.284954    0.032590
  C      5.554882   -0.829819    0.519814
  H      4.299796    0.789195    0.168751
  H      5.733016   -1.899778    0.402460
  C      6.623825   -0.065178    1.249982
  C      7.999220   -0.331823    0.623656
  C      6.617791   -0.355858    2.776573
  H      6.403572    1.007437    1.141817
  H      7.471994    0.199988    3.193466
  C      6.807923   -1.836480    3.115583
  C      5.343347    0.178866    3.432298
  H      8.236577   -1.401367    0.619939
  H      8.788964    0.189113    1.177386
  H      8.022098    0.014339   -0.415057
  H      7.717835   -2.250515    2.669349
  H      5.955497   -2.430623    2.765491
  H      6.879249   -1.970118    4.200667
  H      5.202092    1.244452    3.217103
  H      5.382292    0.052447    4.520088
  H      4.461974   -0.357356    3.060495
  H      2.930868   -2.844164   -1.754961
  H      3.766011   -3.089895   -0.214431
  H      4.640130   -2.426728   -1.607652

----------------------------
CARTESIAN COORDINATES (A.U.)
----------------------------
  NO LB      ZA    FRAG     MASS         X           Y           Z
   0 C     6.0000    0    12.011   -9.448204    0.387521   -0.727482
   1 C     6.0000    0    12.011  -12.191416   -0.371851   -0.939167
   2 C     6.0000    0    12.011  -13.840300    1.304305    0.756567
   3 H     1.0000    0     1.008  -12.442509   -2.362759   -0.427411
   4 H     1.0000    0     1.008  -12.841176   -0.126388   -2.898569
   5 C     6.0000    0    12.011   -8.980404    3.099875   -1.220446
   6 C     6.0000    0    12.011  -10.684790    4.876627    0.232380
   7 C     6.0000    0    12.011  -13.471576    4.087082    0.066484
   8 H     1.0000    0     1.008  -10.437209    6.817217   -0.443172
   9 H     1.0000    0     1.008  -10.103020    4.851296    2.229203
  10 H     1.0000    0     1.008  -14.161236    4.375899   -1.870102
  11 H     1.0000    0     1.008  -14.620929    5.268710    1.320921
  12 O     8.0000    0    15.999  -13.304810    0.839581    3.378259
  13 H     1.0000    0     1.008  -15.833245    0.789339    0.510437
  14 C     6.0000    0    12.011   -7.657525   -1.296365   -0.014023
  15 C     6.0000    0    12.011   -7.249453    3.926305   -2.866515
  16 H     1.0000    0     1.008   -6.065392    2.618071   -3.917114
  17 H     1.0000    0     1.008   -6.993602    5.935921   -3.211785
  18 C     6.0000    0    12.011   -5.023440   -0.747475    0.449032
  19 H     1.0000    0     1.008   -8.296318   -3.228853    0.294877
  20 C     6.0000    0    12.011   -3.192977   -2.442571    0.981642
  21 H     1.0000    0     1.008   -4.498262    1.238499    0.379310
  22 C     6.0000    0    12.011   -3.529507   -5.268005    1.111047
  23 C     6.0000    0    12.011   -1.666150   -6.645465   -0.652214
  24 H     1.0000    0     1.008   -5.462865   -5.850620    0.673700
  25 H     1.0000    0     1.008   -3.136508   -5.870014    3.064695
  26 C     6.0000    0    12.011    1.078962   -5.795324   -0.261184
  27 H     1.0000    0     1.008   -2.230170   -6.315130   -2.620231
  28 H     1.0000    0     1.008   -1.811624   -8.688308   -0.332584
  29 C     6.0000    0    12.011    1.360447   -2.916816   -0.479733
  30 H     1.0000    0     1.008    2.283971   -6.777246   -1.626126
  31 H     1.0000    0     1.008    1.710696   -6.375426    1.633264
  32 C     6.0000    0    12.011   -0.503508   -1.699113    1.460458
  33 H     1.0000    0     1.008    0.023668   -2.548852    3.294526
  34 C     6.0000    0    12.011    0.281951    1.073156    1.548133
  35 H     1.0000    0     1.008  -11.489576    0.709317    3.558908
  36 C     6.0000    0    12.011    3.190177    0.975109    1.240226
  37 H     1.0000    0     1.008   -0.310723    1.994223    3.303586
  38 H     1.0000    0     1.008   -0.572439    2.129789   -0.014041
  39 C     6.0000    0    12.011    3.891272   -1.787725    0.494340
  40 H     1.0000    0     1.008    4.165187    1.531427    2.977667
  41 H     1.0000    0     1.008    3.806562    2.293479   -0.235125
  42 H     1.0000    0     1.008    4.381383   -2.833704    2.227550
  43 C     6.0000    0    12.011    6.245335   -1.898113   -1.240964
  44 C     6.0000    0    12.011    0.792431   -2.010439   -3.175426
  45 H     1.0000    0     1.008    1.199967    0.004628   -3.404468
  46 H     1.0000    0     1.008   -1.195907   -2.295462   -3.668032
  47 H     1.0000    0     1.008    1.942456   -3.043269   -4.552561
  48 H     1.0000    0     1.008    5.787732   -0.803130   -2.953479
  49 C     6.0000    0    12.011    6.953783   -4.579928   -2.042685
  50 C     6.0000    0    12.011    8.389257   -0.538485    0.061587
  51 C     6.0000    0    12.011   10.497207   -1.568130    0.982306
  52 H     1.0000    0     1.008    8.125437    1.491363    0.318894
  53 H     1.0000    0     1.008   10.833830   -3.590060    0.760539
  54 C     6.0000    0    12.011   12.517215   -0.123169    2.362125
  55 C     6.0000    0    12.011   15.116335   -0.627054    1.178540
  56 C     6.0000    0    12.011   12.505812   -0.672474    5.246962
  57 H     1.0000    0     1.008   12.100997    1.903780    2.157721
  58 H     1.0000    0     1.008   14.120023    0.377922    6.034776
  59 C     6.0000    0    12.011   12.865109   -3.470444    5.887599
  60 C     6.0000    0    12.011   10.097463    0.338008    6.486103
  61 H     1.0000    0     1.008   15.564875   -2.648200    1.171515
  62 H     1.0000    0     1.008   16.608735    0.357372    2.224937
  63 H     1.0000    0     1.008   15.159568    0.027096   -0.784344
  64 H     1.0000    0     1.008   14.584595   -4.252858    5.044338
  65 H     1.0000    0     1.008   11.254259   -4.593212    5.226020
  66 H     1.0000    0     1.008   12.999897   -3.722983    7.938111
  67 H     1.0000    0     1.008    9.830529    2.351673    6.079444
  68 H     1.0000    0     1.008   10.171059    0.099111    8.541729
  69 H     1.0000    0     1.008    8.431909   -0.675305    5.783498
  70 H     1.0000    0     1.008    5.538539   -5.374691   -3.316397
  71 H     1.0000    0     1.008    7.116730   -5.839056   -0.405216
  72 H     1.0000    0     1.008    8.768575   -4.585851   -3.038023

--------------------------------
INTERNAL COORDINATES (ANGSTROEM)
--------------------------------
 C      0   0   0     0.000000000000     0.00000000     0.00000000
 C      1   0   0     1.510396921343     0.00000000     0.00000000
 C      2   1   0     1.534050945037   110.45378427     0.00000000
 H      2   1   3     1.095876917323   110.73076058   237.87034686
 H      2   1   3     1.100089871783   109.80902391   118.72873231
 C      1   2   3     1.479683303635   113.94058470   306.08551807
 C      6   1   2     1.512787951312   114.42731737    49.74122357
 C      3   2   1     1.529680351746   110.14630950    56.82220870
 H      7   6   1     1.095225159019   110.21539345   188.87351013
 H      7   6   1     1.100688672957   108.27364864    72.22502991
 H      8   3   2     1.098525616912   108.31630289    64.44097136
 H      8   3   2     1.096159654797   109.49957201   181.43198659
 O      3   2   1     1.437180292218   110.70637088   292.76431281
 H      3   2   1     1.097019146678   109.49522127   177.26156436
 C      1   2   3     1.354427645521   121.20132294   122.80895070
 C      6   1   2     1.337544148454   123.13008694   231.63099921
 H     16   6   1     1.086713631756   121.31432598   359.06834020
 H     16   6   1     1.087485400666   120.95801762   178.44998038
 C     15   1   2     1.444770647148   126.15686576   185.28515295
 H     15   1   2     1.089383587887   116.25185706     3.12512028
 C     19  15   1     1.349933125267   126.44861719   185.14517527
 H     19  15   1     1.087683233734   115.78581113     6.00589996
 C     21  19  15     1.507279522959   125.72143233     2.20610608
 C     23  21  19     1.540858889734   111.47755220   124.99931575
 H     23  21  19     1.093309743453   112.37513735     1.36504473
 H     23  21  19     1.101604052051   107.89012780   243.54388452
 C     24  23  21     1.534730989311   112.66818793    51.23998041
 H     24  23  21     1.097367080373   108.98259625   289.11073347
 H     24  23  21     1.096882993650   109.14335320   173.16014565
 C     27  24  23     1.534869891118   111.87647342   306.16743791
 H     27  24  23     1.094678707144   108.85993519   182.62210233
 H     27  24  23     1.100452251832   109.18340293    66.18317001
 C     21  19  15     1.498164219249   122.85135456   180.57877773
 H     33  21  19     1.105432446773   106.34406067   126.72379411
 C     33  21  19     1.525472782873   121.09924204     4.25744177
 H     13   3   2     0.967783594880   107.65247164    42.68991149
 C     35  33  21     1.548437938935   103.61404150   196.96944894
 H     35  33  21     1.094929027812   112.07689831    74.96370195
 H     35  33  21     1.095645168331   110.81775041   315.32703361
 C     30  27  24     1.554443506055   116.10960083   166.09950754
 H     37  35  33     1.094621383290   111.78188076   248.87492662
 H     37  35  33     1.096647498554   110.43889964   130.29513294
 H     40  30  27     1.102200764707   106.59720541   320.49336883
 C     40  30  27     1.548698248283   118.80917576    80.72814593
 C     30  27  24     1.534697854570   111.17317493   294.12380452
 H     45  30  27     1.094647802361   111.63996375   186.60691929
 H     45  30  27     1.094436162671   111.50704687    66.60084260
 H     45  30  27     1.095511300286   110.70735240   306.49707273
 H     44  40  30     1.102556558041   106.91003816    61.50629657
 C     44  40  30     1.527919757920   113.39287266   302.24025119
 C     44  40  30     1.509929505969   108.40460490   176.36584146
 C     51  44  40     1.333625741652   126.91011232   111.81756290
 H     51  44  40     1.091708114713   115.44780080   294.08072627
 H     52  51  44     1.091016359636   119.86394757     2.43935072
 C     52  51  44     1.503482170063   124.35523894   182.75180020
 C     55  52  51     1.534632084801   110.52589938   232.22006493
 C     55  52  51     1.554029702923   112.28331393   106.58730889
 H     55  52  51     1.100325141922   107.80111513   350.01880514
 H     57  55  52     1.101103430978   105.93181307   176.46120489
 C     57  55  52     1.530790452769   113.45241433    58.22852843
 C     57  55  52     1.529742209295   111.03471960   293.36205589
 H     56  55  52     1.095571745881   111.41863376   302.79009664
 H     56  55  52     1.096214446719   110.91292723   182.40125526
 H     56  55  52     1.095114753247   110.54293868    62.26917407
 H     60  57  55     1.094756578366   112.25737683    55.27502578
 H     60  57  55     1.096448701743   110.90664966   294.20010453
 H     60  57  55     1.095606753759   110.20615239   175.27607339
 H     61  57  55     1.096236192619   111.28350851   305.45169065
 H     61  57  55     1.095804479425   110.82902813   185.05526251
 H     61  57  55     1.096626539633   110.69105614    65.26899074
 H     50  44  40     1.091812432556   111.15515693    68.44606823
 H     50  44  40     1.096464878142   111.36366641   308.06917893
 H     50  44  40     1.095307958096   110.56753715   187.96655227

---------------------------
INTERNAL COORDINATES (A.U.)
---------------------------
 C      0   0   0     0.000000000000     0.00000000     0.00000000
 C      1   0   0     2.854236534856     0.00000000     0.00000000
 C      2   1   0     2.898936161603   110.45378427     0.00000000
 H      2   1   3     2.070907250227   110.73076058   237.87034686
 H      2   1   3     2.078868580370   109.80902391   118.72873231
 C      1   2   3     2.796196208805   113.94058470   306.08551807
 C      6   1   2     2.858754926675   114.42731737    49.74122357
 C      3   2   1     2.890676937239   110.14630950    56.82220870
 H      7   6   1     2.069675605526   110.21539345   188.87351013
 H      7   6   1     2.080000150597   108.27364864    72.22502991
 H      8   3   2     2.075912567061   108.31630289    64.44097136
 H      8   3   2     2.071441546620   109.49957201   181.43198659
 O      3   2   1     2.715877157362   110.70637088   292.76431281
 H      3   2   1     2.073065750889   109.49522127   177.26156436
 C      1   2   3     2.559497318247   121.20132294   122.80895070
 C      6   1   2     2.527592132607   123.13008694   231.63099921
 H     16   6   1     2.053591150018   121.31432598   359.06834020
 H     16   6   1     2.055049581897   120.95801762   178.44998038
 C     15   1   2     2.730220849438   126.15686576   185.28515295
 H     15   1   2     2.058636635895   116.25185706     3.12512028
 C     19  15   1     2.551003905863   126.44861719   185.14517527
 H     19  15   1     2.055423432214   115.78581113     6.00589996
 C     21  19  15     2.848345505661   125.72143233     2.20610608
 C     23  21  19     2.911801312615   111.47755220   124.99931575
 H     23  21  19     2.066055994673   112.37513735     1.36504473
 H     23  21  19     2.081729966395   107.89012780   243.54388452
 C     24  23  21     2.900221259040   112.66818793    51.23998041
 H     24  23  21     2.073723250286   108.98259625   289.11073347
 H     24  23  21     2.072808458954   109.14335320   173.16014565
 C     27  24  23     2.900483745414   111.87647342   306.16743791
 H     27  24  23     2.068642961137   108.85993519   182.62210233
 H     27  24  23     2.079553379419   109.18340293    66.18317001
 C     21  19  15     2.831120078021   122.85135456   180.57877773
 H     33  21  19     2.088964583951   106.34406067   126.72379411
 C     33  21  19     2.882725784380   121.09924204     4.25744177
 H     13   3   2     1.828845951226   107.65247164    42.68991149
 C     35  33  21     2.926123639961   103.61404150   196.96944894
 H     35  33  21     2.069115998645   112.07689831    74.96370195
 H     35  33  21     2.070469308099   110.81775041   315.32703361
 C     30  27  24     2.937472517096   116.10960083   166.09950754
 H     37  35  33     2.068534634751   111.78188076   248.87492662
 H     37  35  33     2.072363437718   110.43889964   130.29513294
 H     40  30  27     2.082857589896   106.59720541   320.49336883
 C     40  30  27     2.926615553339   118.80917576    80.72814593
 C     30  27  24     2.900158643453   111.17317493   294.12380452
 H     45  30  27     2.068584559561   111.63996375   186.60691929
 H     45  30  27     2.068184618508   111.50704687    66.60084260
 H     45  30  27     2.070216334157   110.70735240   306.49707273
 H     44  40  30     2.083529941857   106.91003816    61.50629657
 C     44  40  30     2.887349897076   113.39287266   302.24025119
 C     44  40  30     2.853353247808   108.40460490   176.36584146
 C     51  44  40     2.520187416870   126.91011232   111.81756290
 H     51  44  40     2.063029354988   115.44780080   294.08072627
 H     52  51  44     2.061722127339   119.86394757     2.43935072
 C     52  51  44     2.841169548652   124.35523894   182.75180020
 C     55  52  51     2.900034356603   110.52589938   232.22006493
 C     55  52  51     2.936690542504   112.28331393   106.58730889
 H     55  52  51     2.079313176501   107.80111513   350.01880514
 H     57  55  52     2.080783929670   105.93181307   176.46120489
 C     57  55  52     2.892774724154   113.45241433    58.22852843
 C     57  55  52     2.890793831068   111.03471960   293.36205589
 H     56  55  52     2.070330559778   111.41863376   302.79009664
 H     56  55  52     2.071545088347   110.91292723   182.40125526
 H     56  55  52     2.069466968854   110.54293868    62.26917407
 H     60  57  55     2.068790116421   112.25737683    55.27502578
 H     60  57  55     2.071987766188   110.90664966   294.20010453
 H     60  57  55     2.070396715079   110.20615239   175.27607339
 H     61  57  55     2.071586182142   111.28350851   305.45169065
 H     61  57  55     2.070770362437   110.82902813   185.05526251
 H     61  57  55     2.072323831095   110.69105614    65.26899074
 H     50  44  40     2.063226487142   111.15515693    68.44606823
 H     50  44  40     2.072018335152   111.36366641   308.06917893
 H     50  44  40     2.069832073106   110.56753715   187.96655227

---------------------
BASIS SET INFORMATION
---------------------
There are 3 groups of distinct atoms

 Group   1 Type C   : 8s5p1d contracted to 3s3p1d pattern {521/311/1}
 Group   2 Type H   : 4s2p contracted to 2s1p pattern {31/2}
 Group   3 Type O   : 8s5p1d contracted to 3s3p1d pattern {521/311/1}

Atom   0C    basis set group =>   1
Atom   1C    basis set group =>   1
Atom   2C    basis set group =>   1
Atom   3H    basis set group =>   2
Atom   4H    basis set group =>   2
Atom   5C    basis set group =>   1
Atom   6C    basis set group =>   1
Atom   7C    basis set group =>   1
Atom   8H    basis set group =>   2
Atom   9H    basis set group =>   2
Atom  10H    basis set group =>   2
Atom  11H    basis set group =>   2
Atom  12O    basis set group =>   3
Atom  13H    basis set group =>   2
Atom  14C    basis set group =>   1
Atom  15C    basis set group =>   1
Atom  16H    basis set group =>   2
Atom  17H    basis set group =>   2
Atom  18C    basis set group =>   1
Atom  19H    basis set group =>   2
Atom  20C    basis set group =>   1
Atom  21H    basis set group =>   2
Atom  22C    basis set group =>   1
Atom  23C    basis set group =>   1
Atom  24H    basis set group =>   2
Atom  25H    basis set group =>   2
Atom  26C    basis set group =>   1
Atom  27H    basis set group =>   2
Atom  28H    basis set group =>   2
Atom  29C    basis set group =>   1
Atom  30H    basis set group =>   2
Atom  31H    basis set group =>   2
Atom  32C    basis set group =>   1
Atom  33H    basis set group =>   2
Atom  34C    basis set group =>   1
Atom  35H    basis set group =>   2
Atom  36C    basis set group =>   1
Atom  37H    basis set group =>   2
Atom  38H    basis set group =>   2
Atom  39C    basis set group =>   1
Atom  40H    basis set group =>   2
Atom  41H    basis set group =>   2
Atom  42H    basis set group =>   2
Atom  43C    basis set group =>   1
Atom  44C    basis set group =>   1
Atom  45H    basis set group =>   2
Atom  46H    basis set group =>   2
Atom  47H    basis set group =>   2
Atom  48H    basis set group =>   2
Atom  49C    basis set group =>   1
Atom  50C    basis set group =>   1
Atom  51C    basis set group =>   1
Atom  52H    basis set group =>   2
Atom  53H    basis set group =>   2
Atom  54C    basis set group =>   1
Atom  55C    basis set group =>   1
Atom  56C    basis set group =>   1
Atom  57H    basis set group =>   2
Atom  58H    basis set group =>   2
Atom  59C    basis set group =>   1
Atom  60C    basis set group =>   1
Atom  61H    basis set group =>   2
Atom  62H    basis set group =>   2
Atom  63H    basis set group =>   2
Atom  64H    basis set group =>   2
Atom  65H    basis set group =>   2
Atom  66H    basis set group =>   2
Atom  67H    basis set group =>   2
Atom  68H    basis set group =>   2
Atom  69H    basis set group =>   2
Atom  70H    basis set group =>   2
Atom  71H    basis set group =>   2
Atom  72H    basis set group =>   2

-------------------------
BASIS SET IN INPUT FORMAT
-------------------------

 # Basis set for element : H 
 NewGTO H 
 S 3 
   1      12.2518000000      0.0372173893
   2       1.8687100000      0.2538082070
   3       0.4182080000      0.7973867639
 S 1 
   1       0.1061000000      1.0000000000
 P 2 
   1       9.0000000000      0.0402678705
   2       1.0000000000      0.9880231245
  end;

 # Basis set for element : C 
 NewGTO C 
 S 5 
   1    1243.2000000000      0.0056300977
   2     187.1450000000      0.0419506039
   3      42.5126000000      0.1846643605
   4      11.7393000000      0.4665574214
   5       3.5054800000      0.4482347783
 S 2 
   1       5.3908900000     -0.1481148174
   2       0.4933410000      1.0519817143
 S 1 
   1       0.1497410000      1.0000000000
 P 3 
   1      59.6736000000      0.0113906672
   2       9.1805600000      0.1672414929
   3       1.9365800000      0.9041087436
 P 1 
   1       0.5262960000      1.0000000000
 P 1 
   1       0.1363190000      1.0000000000
 D 1 
   1       0.8000000000      1.0000000000
  end;

 # Basis set for element : O 
 NewGTO O 
 S 5 
   1    2288.6400000000      0.0054511382
   2     344.4160000000      0.0407189228
   3      78.2538000000      0.1813694209
   4      21.7195000000      0.4655368202
   5       6.5590700000      0.4512113212
 S 2 
   1      10.4656000000     -0.1502112012
   2       0.9643510000      1.0528679834
 S 1 
   1       0.2851270000      1.0000000000
 P 3 
   1     110.8840000000      0.0113058003
   2      17.0590000000      0.1699226452
   3       3.6899900000      0.9008060328
 P 1 
   1       0.9929960000      1.0000000000
 P 1 
   1       0.2449240000      1.0000000000
 D 1 
   1       1.0000000000      1.0000000000
  end;

---------------------------------
AUXILIARY/J BASIS SET INFORMATION
---------------------------------
There are 3 groups of distinct atoms

 Group   1 Type C   : 12s5p4d2f1g contracted to 6s4p3d1f1g pattern {711111/2111/211/2/1}
 Group   2 Type H   : 5s2p1d contracted to 3s1p1d pattern {311/2/1}
 Group   3 Type O   : 12s5p4d2f1g contracted to 6s4p3d1f1g pattern {711111/2111/211/2/1}

Atom   0C    basis set group =>   1
Atom   1C    basis set group =>   1
Atom   2C    basis set group =>   1
Atom   3H    basis set group =>   2
Atom   4H    basis set group =>   2
Atom   5C    basis set group =>   1
Atom   6C    basis set group =>   1
Atom   7C    basis set group =>   1
Atom   8H    basis set group =>   2
Atom   9H    basis set group =>   2
Atom  10H    basis set group =>   2
Atom  11H    basis set group =>   2
Atom  12O    basis set group =>   3
Atom  13H    basis set group =>   2
Atom  14C    basis set group =>   1
Atom  15C    basis set group =>   1
Atom  16H    basis set group =>   2
Atom  17H    basis set group =>   2
Atom  18C    basis set group =>   1
Atom  19H    basis set group =>   2
Atom  20C    basis set group =>   1
Atom  21H    basis set group =>   2
Atom  22C    basis set group =>   1
Atom  23C    basis set group =>   1
Atom  24H    basis set group =>   2
Atom  25H    basis set group =>   2
Atom  26C    basis set group =>   1
Atom  27H    basis set group =>   2
Atom  28H    basis set group =>   2
Atom  29C    basis set group =>   1
Atom  30H    basis set group =>   2
Atom  31H    basis set group =>   2
Atom  32C    basis set group =>   1
Atom  33H    basis set group =>   2
Atom  34C    basis set group =>   1
Atom  35H    basis set group =>   2
Atom  36C    basis set group =>   1
Atom  37H    basis set group =>   2
Atom  38H    basis set group =>   2
Atom  39C    basis set group =>   1
Atom  40H    basis set group =>   2
Atom  41H    basis set group =>   2
Atom  42H    basis set group =>   2
Atom  43C    basis set group =>   1
Atom  44C    basis set group =>   1
Atom  45H    basis set group =>   2
Atom  46H    basis set group =>   2
Atom  47H    basis set group =>   2
Atom  48H    basis set group =>   2
Atom  49C    basis set group =>   1
Atom  50C    basis set group =>   1
Atom  51C    basis set group =>   1
Atom  52H    basis set group =>   2
Atom  53H    basis set group =>   2
Atom  54C    basis set group =>   1
Atom  55C    basis set group =>   1
Atom  56C    basis set group =>   1
Atom  57H    basis set group =>   2
Atom  58H    basis set group =>   2
Atom  59C    basis set group =>   1
Atom  60C    basis set group =>   1
Atom  61H    basis set group =>   2
Atom  62H    basis set group =>   2
Atom  63H    basis set group =>   2
Atom  64H    basis set group =>   2
Atom  65H    basis set group =>   2
Atom  66H    basis set group =>   2
Atom  67H    basis set group =>   2
Atom  68H    basis set group =>   2
Atom  69H    basis set group =>   2
Atom  70H    basis set group =>   2
Atom  71H    basis set group =>   2
Atom  72H    basis set group =>   2

-------------------------------------
AUXILIARY/J BASIS SET IN INPUT FORMAT
-------------------------------------

 # Auxiliary/J basis set for element : H 
 NewAuxJGTO H 
 S 3 
   1      15.6752927000      0.1007184237
   2       3.6063578000      0.3404257499
   3       1.2080016000      0.6491996172
 S 1 
   1       0.4726794000      1.0000000000
 S 1 
   1       0.2018100000      1.0000000000
 P 2 
   1       2.0281365000      0.5596620919
   2       0.5358730000      0.5596620919
 D 1 
   1       2.2165124000      1.0000000000
  end;

 # Auxiliary/J basis set for element : C 
 NewAuxJGTO C 
 S 7 
   1    1861.0916331000      0.0134602335
   2     642.9939764000      0.0299160374
   3     235.1105725000      0.1008649584
   4      90.7028894000      0.2370970548
   5      36.7794552000      0.3924037254
   6      15.6046273000      0.3195862154
   7       6.8907294000      0.0530104441
 S 1 
   1       3.1478850000     -1.0000000000
 S 1 
   1       1.4777287000      1.0000000000
 S 1 
   1       0.7076466000      1.0000000000
 S 1 
   1       0.3430122000      1.0000000000
 S 1 
   1       0.1669453000      1.0000000000
 P 2 
   1      13.5472892000     -0.6769313712
   2       5.4669419000     -0.3779500978
 P 1 
   1       2.1751721000      1.0000000000
 P 1 
   1       0.8582194000      1.0000000000
 P 1 
   1       0.3376720000      1.0000000000
 D 2 
   1       5.9287253000     -0.3533329857
   2       1.9809209000     -0.7456525731
 D 1 
   1       0.8055417000     -1.0000000000
 D 1 
   1       0.3531244000     -1.0000000000
 F 2 
   1       1.6755626000      0.6311076882
   2       0.5997536000      0.4968166032
 G 1 
   1       1.0024600000     -1.0000000000
  end;

 # Auxiliary/J basis set for element : O 
 NewAuxJGTO O 
 S 7 
   1    2876.8216605000      0.0168151159
   2    1004.7443032000      0.0340137548
   3     369.7579954000      0.1194951309
   4     142.9442404000      0.2664627624
   5      57.8366425000      0.4202764046
   6      24.3864983000      0.2765077335
   7      10.6622662000      0.0057008815
 S 1 
   1       4.8070437000     -1.0000000000
 S 1 
   1       2.2210770000      1.0000000000
 S 1 
   1       1.0447795000      1.0000000000
 S 1 
   1       0.4968425000      1.0000000000
 S 1 
   1       0.2371384000      1.0000000000
 P 2 
   1      64.2613382000     -0.2731534179
   2      16.3006076000     -0.8168011598
 P 1 
   1       4.3550542000      1.0000000000
 P 1 
   1       1.2019554000      1.0000000000
 P 1 
   1       0.3354196000      1.0000000000
 D 2 
   1       9.2146611000     -0.4661230638
   2       2.8435251000     -0.6600908911
 D 1 
   1       0.9955759000     -1.0000000000
 D 1 
   1       0.3649441000     -1.0000000000
 F 2 
   1       2.6420115000      0.5931563945
   2       0.7345613000      0.5931563945
 G 1 
   1       1.3931000000     -1.0000000000
  end;



           ************************************************************
           *        Program running with 4 parallel MPI-processes     *
           *              working on a common directory               *
           ************************************************************
------------------------------------------------------------------------------
                           ORCA GTO INTEGRAL CALCULATION
                           -- RI-GTO INTEGRALS CHOSEN --
------------------------------------------------------------------------------
------------------------------------------------------------------------------
                   ___                                                        
                  /   \      - P O W E R E D   B Y -                         
                 /     \                                                     
                 |  |  |   _    _      __       _____    __    __             
                 |  |  |  | |  | |    /  \     |  _  \  |  |  /  |          
                  \  \/   | |  | |   /    \    | | | |  |  | /  /          
                 / \  \   | |__| |  /  /\  \   | |_| |  |  |/  /          
                |  |  |   |  __  | /  /__\  \  |    /   |      \           
                |  |  |   | |  | | |   __   |  |    \   |  |\   \          
                \     /   | |  | | |  |  |  |  | |\  \  |  | \   \       
                 \___/    |_|  |_| |__|  |__|  |_| \__\ |__|  \__/        
                                                                              
                      - O R C A' S   B I G   F R I E N D -                    
                                      &                                       
                       - I N T E G R A L  F E E D E R -                       
                                                                              
 v1 FN, 2020, v2 2021                                                         
------------------------------------------------------------------------------


Reading SHARK input file inpS.SHARKINP.tmp ... ok
----------------------
SHARK INTEGRAL PACKAGE
----------------------

Number of atoms                             ...     73
Number of basis functions                   ...    713
Number of shells                            ...    335
Maximum angular momentum                    ...      2
Integral batch strategy                     ... SHARK/LIBINT Hybrid
RI-J (if used) integral strategy            ... SPLIT-RIJ (Revised 2003 algorithm where possible)
Printlevel                                  ...      1
Contraction scheme used                     ... SEGMENTED contraction
Coulomb Range Separation                    ... NOT USED
Exchange Range Separation                   ... NOT USED
Finite Nucleus Model                        ... NOT USED
Auxiliary Coulomb fitting basis             ... AVAILABLE
   # of basis functions in Aux-J            ...   1905
   # of shells in Aux-J                     ...    655
   Maximum angular momentum in Aux-J        ...      4
Auxiliary J/K fitting basis                 ... NOT available
Auxiliary Correlation fitting basis         ... NOT available
Auxiliary 'external' fitting basis          ... NOT available
Integral threshold                          ...     3.000000e-11
Primitive cut-off                           ...     1.000000e-12
Primitive pair pre-selection threshold      ...     1.000000e-12

Calculating pre-screening integrals         ... done (  0.0 sec) Dimension = 335
Organizing shell pair data                  ... done (  0.2 sec)
Shell pair information
Total number of shell pairs                 ...     56280
Shell pairs after pre-screening             ...     32059
Total number of primitive shell pairs       ...    225367
Primitive shell pairs kept                  ...     75316
          la=0 lb=0:   9794 shell pairs
          la=1 lb=0:  13197 shell pairs
          la=1 lb=1:   4292 shell pairs
          la=2 lb=0:   2805 shell pairs
          la=2 lb=1:   1776 shell pairs
          la=2 lb=2:    195 shell pairs

Calculating one electron integrals          ... done (  0.1 sec)
Calculating RI/J V-Matrix + Cholesky decomp.... done (  0.1 sec)
Calculating Nuclear repulsion               ... done (  0.0 sec) ENN=   2797.111549800635 Eh

SHARK setup successfully completed in   0.6 seconds

Maximum memory used throughout the entire GTOINT-calculation: 61.5 MB


           ************************************************************
           *        Program running with 4 parallel MPI-processes     *
           *              working on a common directory               *
           ************************************************************
-------------------------------------------------------------------------------
                                 ORCA SCF
-------------------------------------------------------------------------------

------------
SCF SETTINGS
------------
Hamiltonian:
 Density Functional     Method          .... DFT(GTOs)
 Exchange Functional    Exchange        .... revTPSS
 Correlation Functional Correlation     .... revTPSS
 LDA part of GGA corr.  LDAOpt          .... PW91-LDA
 Gradients option       PostSCFGGA      .... off
   Density functional embedding theory  .... OFF
 RI-approximation to the Coulomb term is turned on
   Number of AuxJ basis functions       .... 1905


General Settings:
 Integral files         IntName         .... inpS
 Hartree-Fock type      HFTyp           .... RHF
 Total Charge           Charge          ....    0
 Multiplicity           Mult            ....    1
 Number of Electrons    NEL             ....  220
 Basis Dimension        Dim             ....  713
 Nuclear Repulsion      ENuc            ....   2797.1115498006 Eh

Convergence Acceleration:
 DIIS                   CNVDIIS         .... on
   Start iteration      DIISMaxIt       ....    12
   Startup error        DIISStart       ....  0.200000
   # of expansion vecs  DIISMaxEq       ....     5
   Bias factor          DIISBfac        ....   1.050
   Max. coefficient     DIISMaxC        ....  10.000
 Trust-Rad. Augm. Hess. CNVTRAH         .... auto
   Auto Start mean grad. ratio tolernc. ....  1.125000
   Auto Start start iteration           ....    20
   Auto Start num. interpolation iter.  ....    10
   Max. Number of Micro iterations      ....    16
   Max. Number of Macro iterations      .... Maxiter - #DIIS iter
   Number of Davidson start vectors     ....     2
   Converg. threshold I  (grad. norm)   ....   1.000e-04
   Converg. threshold II (energy diff.) ....   1.000e-07
   Grad. Scal. Fac. for Micro threshold ....   0.100
   Minimum threshold for Micro iter.    ....   0.010
   NR start threshold (gradient norm)   ....   0.001
   Initial trust radius                 ....   0.400
   Minimum AH scaling param. (alpha)    ....   1.000
   Maximum AH scaling param. (alpha)    .... 1000.000
   Orbital update algorithm             .... Taylor
   White noise on init. David. guess    .... on
   Maximum white noise                  ....   0.010
   Quad. conv. algorithm                .... NR
 SOSCF                  CNVSOSCF        .... off
 Level Shifting         CNVShift        .... on
   Level shift para.    LevelShift      ....    0.2500
   Turn off err/grad.   ShiftErr        ....    0.0010
 Zerner damping         CNVZerner       .... off
 Static damping         CNVDamp         .... on
   Fraction old density DampFac         ....    0.7000
   Max. Damping (<1)    DampMax         ....    0.9800
   Min. Damping (>=0)   DampMin         ....    0.0000
   Turn off err/grad.   DampErr         ....    0.1000
 Fernandez-Rico         CNVRico         .... off

SCF Procedure:
 Maximum # iterations   MaxIter         ....   125
 SCF integral mode      SCFMode         .... Direct
   Integral package                     .... SHARK and LIBINT hybrid scheme
 Reset frequency        DirectResetFreq ....    20
 Integral Threshold     Thresh          ....  3.000e-11 Eh
 Primitive CutOff       TCut            ....  1.000e-12 Eh

Convergence Tolerance:
 Convergence Check Mode ConvCheckMode   .... Total+1el-Energy
 Convergence forced     ConvForced      .... 0
 Energy Change          TolE            ....  1.000e-07 Eh
 1-El. energy change                    ....  1.000e-04 Eh
 DIIS Error             TolErr          ....  1.000e-07


Diagonalization of the overlap matrix:
Smallest eigenvalue                        ... 5.155e-04
Time for diagonalization                   ...    0.060 sec
Threshold for overlap eigenvalues          ... 1.000e-08
Number of eigenvalues below threshold      ... 0
Time for construction of square roots      ...    0.053 sec
Total time needed                          ...    0.115 sec

Time for model grid setup =    0.787 sec

------------------------------
INITIAL GUESS: MODEL POTENTIAL
------------------------------
Loading Hartree-Fock densities                     ... done
Calculating cut-offs                               ... done
Initializing the effective Hamiltonian             ... done
Setting up the integral package (SHARK)            ... done
Starting the Coulomb interaction                   ... done (   0.7 sec)
Reading the grid                                   ... done
Mapping shells                                     ... done
Starting the XC term evaluation                    ... done (   0.3 sec)
  promolecular density results
     # of electrons  =    219.981278844
     EX              =   -164.431582716
     EC              =     -7.327398513
     EX+EC           =   -171.758981229
Transforming the Hamiltonian                       ... done (   0.0 sec)
Diagonalizing the Hamiltonian                      ... done (   0.1 sec)
Back transforming the eigenvectors                 ... done (   0.0 sec)
Now organizing SCF variables                       ... done
                      ------------------
                      INITIAL GUESS DONE (   1.9 sec)
                      ------------------
-------------------
DFT GRID GENERATION
-------------------

General Integration Accuracy     IntAcc      ... 4.388
Radial Grid Type                 RadialGrid  ... OptM3 with GC (2021)
Angular Grid (max. ang.)         AngularGrid ... 4 (Lebedev-302)
Angular grid pruning method      GridPruning ... 4 (adaptive)
Weight generation scheme         WeightScheme... Becke
Basis function cutoff            BFCut       ... 1.0000e-11
Integration weight cutoff        WCut        ... 1.0000e-14
Angular grids for H and He will be reduced by one unit
Partially contracted basis set               ... off
Rotationally invariant grid construction     ... off

Total number of grid points                  ...   309706
Total number of batches                      ...     4876
Average number of points per batch           ...       63
Average number of grid points per atom       ...     4243
Time for grid setup =    3.086 sec


--------------------
CPCM SOLVATION MODEL
--------------------
CPCM parameters:
  Epsilon                                         ...       4.9000
  Refrac                                          ...       1.4500
  Rsolv                                           ...       1.3000
  Surface type                                    ... GAUSSIAN VDW
  Epsilon function type                           ...         CPCM
Radii:
 Radius for C  used is    3.8550 Bohr (=   2.0400 Ang.)
 Radius for H  used is    2.4944 Bohr (=   1.3200 Ang.)
 Radius for O  used is    3.4469 Bohr (=   1.8240 Ang.)
Calculating surface                               ...        done! (  0.0s)
GEPOL surface points                              ...         3629
GEPOL Volume                                      ...    3596.1780
GEPOL Surface-area                                ...    1781.0501
Calculating surface distance matrix               ...        done! (  0.1s)
Performing Cholesky decomposition & store         ...        done! (  0.5s)
Overall time for CPCM initialization              ...                 0.6s
--------------
SCF ITERATIONS
--------------
ITER       Energy         Delta-E        Max-DP      RMS-DP      [F,P]     Damp
               ***  Starting incremental Fock matrix formation  ***

  HOMO= 109 E= -1.920 eV LUMO=  7.765 eV gap=   9.685 eV
  0  -1167.5236030767   0.000000000000 0.05504332  0.00083018  0.2620774 0.7000

  HOMO= 109 E= -3.442 eV LUMO=  6.663 eV gap=  10.105 eV
  1  -1167.8976720036  -0.374068926887 0.02883364  0.00061286  0.1010441 0.7000
                               ***Turning on DIIS***

  HOMO= 109 E= -4.417 eV LUMO=  5.779 eV gap=  10.196 eV
  2  -1168.0440340415  -0.146362037960 0.04882093  0.00101023  0.0316277 0.0000

  HOMO= 109 E= -5.037 eV LUMO=  5.197 eV gap=  10.234 eV
  3  -1168.2419092024  -0.197875160860 0.02319996  0.00047445  0.0540043 0.0000

  HOMO= 109 E= -5.060 eV LUMO=  5.174 eV gap=  10.234 eV
  4  -1168.3088371043  -0.066927901932 0.00749565  0.00015135  0.0103350 0.0000

  HOMO= 109 E= -5.016 eV LUMO=  5.225 eV gap=  10.241 eV
  5  -1168.3118956605  -0.003058556238 0.00340076  0.00005683  0.0102361 0.0000

  HOMO= 109 E= -4.996 eV LUMO=  5.242 eV gap=  10.238 eV
  6  -1168.3121694315  -0.000273770922 0.00123303  0.00001911  0.0029211 0.0000

  HOMO= 109 E= -4.998 eV LUMO= -1.562 eV gap=   3.435 eV
  7  -1168.3121890896  -0.000019658139 0.00069910  0.00001156  0.0004878 0.0000

  HOMO= 109 E= -4.996 eV LUMO= -1.561 eV gap=   3.435 eV
  8  -1168.3121919597  -0.000002870087 0.00024794  0.00000286  0.0004006 0.0000

  HOMO= 109 E= -4.994 eV LUMO= -1.559 eV gap=   3.435 eV
  9  -1168.3121926463  -0.000000686580 0.00013940  0.00000150  0.0002314 0.0000

  HOMO= 109 E= -4.994 eV LUMO= -1.559 eV gap=   3.435 eV
 10  -1168.3121928769  -0.000000230603 0.00007344  0.00000072  0.0000924 0.0000

  HOMO= 109 E= -4.994 eV LUMO= -1.559 eV gap=   3.435 eV
 11  -1168.3121929026  -0.000000025694 0.00003536  0.00000030  0.0000361 0.0000

  HOMO= 109 E= -4.994 eV LUMO= -1.559 eV gap=   3.435 eV
 12  -1168.3121928800   0.000000022583 0.00001637  0.00000014  0.0000199 0.0000

  HOMO= 109 E= -4.994 eV LUMO= -1.559 eV gap=   3.435 eV
 13  -1168.3121929183  -0.000000038287 0.00000656  0.00000006  0.0000070 0.0000
                 **** Energy Check signals convergence ****

               *****************************************************
               *                     SUCCESS                       *
               *           SCF CONVERGED AFTER  14 CYCLES          *
               *****************************************************


----------------
TOTAL SCF ENERGY
----------------

Total Energy       :        -1168.31219293 Eh          -31791.39101 eV

Components:
Nuclear Repulsion  :         2797.11154980 Eh           76113.27479 eV
Electronic Energy  :        -3965.42374273 Eh         -107904.66581 eV
One Electron Energy:        -7140.31029445 Eh         -194297.72102 eV
Two Electron Energy:         3174.88655172 Eh           86393.05521 eV
CPCM Dielectric    :           -0.00897501 Eh              -0.24422 eV

Virial components:
Potential Energy   :        -2330.41491384 Eh          -63413.81370 eV
Kinetic Energy     :         1162.10272091 Eh           31622.42269 eV
Virial Ratio       :            2.00534331


DFT components:
N(Alpha)           :      110.000336910309 electrons
N(Beta)            :      110.000336910309 electrons
N(Total)           :      220.000673820617 electrons
E(X)               :     -169.584268536210 Eh       
E(C)               :       -7.444037017628 Eh       
E(XC)              :     -177.028305553838 Eh       
DFET-embed. en.    :        0.000000000000 Eh       
CPCM Solvation Model Properties:
Surface-charge          :           -0.04505038
Charge-correction       :           -0.00006042 Eh              -0.00164 eV
Free-energy (cav+disp)  :  This term is not implemented in the current solvation scheme

---------------
SCF CONVERGENCE
---------------

  Last Energy change         ...   -1.0164e-08  Tolerance :   1.0000e-07
  Last MAX-Density change    ...    2.7279e-06  Tolerance :   1.0000e-05
  Last RMS-Density change    ...    2.8387e-08  Tolerance :   1.0000e-06
  Last DIIS Error            ...    3.6066e-06  Tolerance :   1.0000e-07

             **** THE GBW FILE WAS UPDATED (inpS.gbw) ****
             **** DENSITY inpS.scfp WAS UPDATED ****
             **** ENERGY FILE WAS UPDATED (inpS.en.tmp) ****
             **** THE GBW FILE WAS UPDATED (inpS.gbw) ****
             **** DENSITY inpS.scfp WAS UPDATED ****
----------------
ORBITAL ENERGIES
----------------

  NO   OCC          E(Eh)            E(eV) 
   0   2.0000     -18.903780      -514.3980 
   1   2.0000     -10.057283      -273.6726 
   2   2.0000     -10.016589      -272.5652 
   3   2.0000     -10.014837      -272.5176 
   4   2.0000     -10.012657      -272.4583 
   5   2.0000     -10.012361      -272.4502 
   6   2.0000     -10.012112      -272.4434 
   7   2.0000     -10.012032      -272.4412 
   8   2.0000     -10.010124      -272.3893 
   9   2.0000     -10.009828      -272.3813 
  10   2.0000     -10.008207      -272.3372 
  11   2.0000     -10.007843      -272.3273 
  12   2.0000     -10.007683      -272.3229 
  13   2.0000     -10.007071      -272.3062 
  14   2.0000     -10.006927      -272.3023 
  15   2.0000     -10.006370      -272.2872 
  16   2.0000     -10.005164      -272.2544 
  17   2.0000     -10.001125      -272.1444 
  18   2.0000     -10.000921      -272.1389 
  19   2.0000     -10.000905      -272.1385 
  20   2.0000     -10.000433      -272.1256 
  21   2.0000      -9.999784      -272.1080 
  22   2.0000      -9.997832      -272.0548 
  23   2.0000      -9.997097      -272.0348 
  24   2.0000      -9.996300      -272.0131 
  25   2.0000      -9.995933      -272.0032 
  26   2.0000      -9.995638      -271.9951 
  27   2.0000      -9.995062      -271.9795 
  28   2.0000      -9.993667      -271.9415 
  29   2.0000      -0.954455       -25.9720 
  30   2.0000      -0.808436       -21.9987 
  31   2.0000      -0.789646       -21.4874 
  32   2.0000      -0.770321       -20.9615 
  33   2.0000      -0.757073       -20.6010 
  34   2.0000      -0.734582       -19.9890 
  35   2.0000      -0.728490       -19.8232 
  36   2.0000      -0.708994       -19.2927 
  37   2.0000      -0.708946       -19.2914 
  38   2.0000      -0.692432       -18.8420 
  39   2.0000      -0.676756       -18.4155 
  40   2.0000      -0.660105       -17.9624 
  41   2.0000      -0.654178       -17.8011 
  42   2.0000      -0.637073       -17.3356 
  43   2.0000      -0.628219       -17.0947 
  44   2.0000      -0.625627       -17.0242 
  45   2.0000      -0.620048       -16.8724 
  46   2.0000      -0.591911       -16.1067 
  47   2.0000      -0.584564       -15.9068 
  48   2.0000      -0.561157       -15.2699 
  49   2.0000      -0.548087       -14.9142 
  50   2.0000      -0.542656       -14.7664 
  51   2.0000      -0.537308       -14.6209 
  52   2.0000      -0.527563       -14.3557 
  53   2.0000      -0.508212       -13.8291 
  54   2.0000      -0.490107       -13.3365 
  55   2.0000      -0.481385       -13.0991 
  56   2.0000      -0.472741       -12.8639 
  57   2.0000      -0.463661       -12.6168 
  58   2.0000      -0.451355       -12.2820 
  59   2.0000      -0.445079       -12.1112 
  60   2.0000      -0.434174       -11.8145 
  61   2.0000      -0.426302       -11.6003 
  62   2.0000      -0.421859       -11.4794 
  63   2.0000      -0.417132       -11.3507 
  64   2.0000      -0.411167       -11.1884 
  65   2.0000      -0.405378       -11.0309 
  66   2.0000      -0.402174       -10.9437 
  67   2.0000      -0.400198       -10.8899 
  68   2.0000      -0.398917       -10.8551 
  69   2.0000      -0.397318       -10.8116 
  70   2.0000      -0.389382       -10.5956 
  71   2.0000      -0.383590       -10.4380 
  72   2.0000      -0.377522       -10.2729 
  73   2.0000      -0.373822       -10.1722 
  74   2.0000      -0.371739       -10.1155 
  75   2.0000      -0.368759       -10.0345 
  76   2.0000      -0.361037        -9.8243 
  77   2.0000      -0.358260        -9.7488 
  78   2.0000      -0.356325        -9.6961 
  79   2.0000      -0.348913        -9.4944 
  80   2.0000      -0.345467        -9.4006 
  81   2.0000      -0.343058        -9.3351 
  82   2.0000      -0.342403        -9.3173 
  83   2.0000      -0.337002        -9.1703 
  84   2.0000      -0.326425        -8.8825 
  85   2.0000      -0.325705        -8.8629 
  86   2.0000      -0.323750        -8.8097 
  87   2.0000      -0.321657        -8.7527 
  88   2.0000      -0.315345        -8.5810 
  89   2.0000      -0.311309        -8.4712 
  90   2.0000      -0.309198        -8.4137 
  91   2.0000      -0.307330        -8.3629 
  92   2.0000      -0.301900        -8.2151 
  93   2.0000      -0.297890        -8.1060 
  94   2.0000      -0.291117        -7.9217 
  95   2.0000      -0.287799        -7.8314 
  96   2.0000      -0.286008        -7.7827 
  97   2.0000      -0.283294        -7.7088 
  98   2.0000      -0.282651        -7.6913 
  99   2.0000      -0.279909        -7.6167 
 100   2.0000      -0.275246        -7.4898 
 101   2.0000      -0.273073        -7.4307 
 102   2.0000      -0.271927        -7.3995 
 103   2.0000      -0.270088        -7.3495 
 104   2.0000      -0.260528        -7.0893 
 105   2.0000      -0.251110        -6.8331 
 106   2.0000      -0.230337        -6.2678 
 107   2.0000      -0.228694        -6.2231 
 108   2.0000      -0.212506        -5.7826 
 109   2.0000      -0.183540        -4.9944 
 110   0.0000      -0.057298        -1.5591 
 111   0.0000      -0.014366        -0.3909 
 112   0.0000      -0.005964        -0.1623 
 113   0.0000       0.027905         0.7593 
 114   0.0000       0.037001         1.0069 
 115   0.0000       0.041373         1.1258 
 116   0.0000       0.045861         1.2479 
 117   0.0000       0.048219         1.3121 
 118   0.0000       0.050886         1.3847 
 119   0.0000       0.055699         1.5157 
 120   0.0000       0.059938         1.6310 
 121   0.0000       0.066684         1.8146 
 122   0.0000       0.070666         1.9229 
 123   0.0000       0.072661         1.9772 
 124   0.0000       0.078063         2.1242 
 125   0.0000       0.081645         2.2217 
 126   0.0000       0.082160         2.2357 
 127   0.0000       0.086358         2.3499 
 128   0.0000       0.091238         2.4827 
 129   0.0000       0.091764         2.4970 
 130   0.0000       0.095266         2.5923 
 131   0.0000       0.100830         2.7437 
 132   0.0000       0.103138         2.8065 
 133   0.0000       0.106633         2.9016 
 134   0.0000       0.108011         2.9391 
 135   0.0000       0.111112         3.0235 
 136   0.0000       0.114941         3.1277 
 137   0.0000       0.116106         3.1594 
 138   0.0000       0.119972         3.2646 
 139   0.0000       0.123783         3.3683 
 140   0.0000       0.126937         3.4541 
 141   0.0000       0.130192         3.5427 
 142   0.0000       0.133328         3.6280 
 143   0.0000       0.134618         3.6631 
 144   0.0000       0.138182         3.7601 
 145   0.0000       0.139086         3.7847 
 146   0.0000       0.143245         3.8979 
 147   0.0000       0.144746         3.9387 
 148   0.0000       0.149505         4.0682 
 149   0.0000       0.151312         4.1174 
 150   0.0000       0.156129         4.2485 
 151   0.0000       0.157792         4.2937 
 152   0.0000       0.159644         4.3441 
 153   0.0000       0.164294         4.4707 
 154   0.0000       0.167570         4.5598 
 155   0.0000       0.170762         4.6467 
 156   0.0000       0.175319         4.7707 
 157   0.0000       0.177012         4.8167 
 158   0.0000       0.179461         4.8834 
 159   0.0000       0.183399         4.9906 
 160   0.0000       0.189037         5.1439 
 161   0.0000       0.190813         5.1923 
 162   0.0000       0.193971         5.2782 
 163   0.0000       0.196937         5.3589 
 164   0.0000       0.197587         5.3766 
 165   0.0000       0.204670         5.5694 
 166   0.0000       0.208998         5.6871 
 167   0.0000       0.213905         5.8207 
 168   0.0000       0.215823         5.8728 
 169   0.0000       0.218322         5.9408 
 170   0.0000       0.219086         5.9616 
 171   0.0000       0.225132         6.1262 
 172   0.0000       0.229552         6.2464 
 173   0.0000       0.231843         6.3088 
 174   0.0000       0.234791         6.3890 
 175   0.0000       0.243465         6.6250 
 176   0.0000       0.250181         6.8078 
 177   0.0000       0.258155         7.0248 
 178   0.0000       0.265909         7.2357 
 179   0.0000       0.268825         7.3151 
 180   0.0000       0.277007         7.5377 
 181   0.0000       0.284667         7.7462 
 182   0.0000       0.287306         7.8180 
 183   0.0000       0.295325         8.0362 
 184   0.0000       0.298875         8.1328 
 185   0.0000       0.324453         8.8288 
 186   0.0000       0.332029         9.0350 
 187   0.0000       0.335591         9.1319 
 188   0.0000       0.345701         9.4070 
 189   0.0000       0.355087         9.6624 
 190   0.0000       0.362161         9.8549 
 191   0.0000       0.363572         9.8933 
 192   0.0000       0.365045         9.9334 
 193   0.0000       0.371164        10.0999 
 194   0.0000       0.376636        10.2488 
 195   0.0000       0.379288        10.3209 
 196   0.0000       0.383263        10.4291 
 197   0.0000       0.385924        10.5015 
 198   0.0000       0.392317        10.6755 
 199   0.0000       0.398032        10.8310 
 200   0.0000       0.400703        10.9037 
 201   0.0000       0.406221        11.0538 
 202   0.0000       0.410184        11.1617 
 203   0.0000       0.416447        11.3321 
 204   0.0000       0.420710        11.4481 
 205   0.0000       0.424438        11.5495 
 206   0.0000       0.435039        11.8380 
 207   0.0000       0.439173        11.9505 
 208   0.0000       0.450964        12.2714 
 209   0.0000       0.453825        12.3492 
 210   0.0000       0.460538        12.5319 
 211   0.0000       0.465391        12.6639 
 212   0.0000       0.468063        12.7366 
 213   0.0000       0.471784        12.8379 
 214   0.0000       0.476668        12.9708 
 215   0.0000       0.478952        13.0330 
 216   0.0000       0.483272        13.1505 
 217   0.0000       0.494788        13.4639 
 218   0.0000       0.498777        13.5724 
 219   0.0000       0.501590        13.6490 
 220   0.0000       0.504263        13.7217 
 221   0.0000       0.509283        13.8583 
 222   0.0000       0.511540        13.9197 
 223   0.0000       0.515953        14.0398 
 224   0.0000       0.524741        14.2789 
 225   0.0000       0.527765        14.3612 
 226   0.0000       0.536530        14.5997 
 227   0.0000       0.538705        14.6589 
 228   0.0000       0.540829        14.7167 
 229   0.0000       0.545549        14.8451 
 230   0.0000       0.550610        14.9829 
 231   0.0000       0.554534        15.0896 
 232   0.0000       0.556357        15.1392 
 233   0.0000       0.560067        15.2402 
 234   0.0000       0.565063        15.3761 
 235   0.0000       0.569528        15.4976 
 236   0.0000       0.571685        15.5563 
 237   0.0000       0.574736        15.6394 
 238   0.0000       0.575878        15.6704 
 239   0.0000       0.579182        15.7603 
 240   0.0000       0.583167        15.8688 
 241   0.0000       0.584844        15.9144 
 242   0.0000       0.589410        16.0387 
 243   0.0000       0.591904        16.1065 
 244   0.0000       0.594506        16.1773 
 245   0.0000       0.595981        16.2175 
 246   0.0000       0.597565        16.2606 
 247   0.0000       0.599792        16.3212 
 248   0.0000       0.600860        16.3502 
 249   0.0000       0.602720        16.4009 
 250   0.0000       0.605418        16.4743 
 251   0.0000       0.606658        16.5080 
 252   0.0000       0.609382        16.5821 
 253   0.0000       0.609618        16.5886 
 254   0.0000       0.615665        16.7531 
 255   0.0000       0.616329        16.7712 
 256   0.0000       0.618776        16.8377 
 257   0.0000       0.623158        16.9570 
 258   0.0000       0.628993        17.1158 
 259   0.0000       0.631260        17.1775 
 260   0.0000       0.633018        17.2253 
 261   0.0000       0.634956        17.2780 
 262   0.0000       0.641901        17.4670 
 263   0.0000       0.643318        17.5056 
 264   0.0000       0.647125        17.6092 
 265   0.0000       0.649080        17.6624 
 266   0.0000       0.652320        17.7505 
 267   0.0000       0.655480        17.8365 
 268   0.0000       0.656703        17.8698 
 269   0.0000       0.660469        17.9723 
 270   0.0000       0.664688        18.0871 
 271   0.0000       0.669854        18.2277 
 272   0.0000       0.671839        18.2817 
 273   0.0000       0.674896        18.3649 
 274   0.0000       0.677008        18.4223 
 275   0.0000       0.681593        18.5471 
 276   0.0000       0.682491        18.5715 
 277   0.0000       0.685144        18.6437 
 278   0.0000       0.686569        18.6825 
 279   0.0000       0.693517        18.8715 
 280   0.0000       0.695262        18.9191 
 281   0.0000       0.696680        18.9576 
 282   0.0000       0.700140        19.0518 
 283   0.0000       0.705652        19.2018 
 284   0.0000       0.711463        19.3599 
 285   0.0000       0.714543        19.4437 
 286   0.0000       0.718579        19.5535 
 287   0.0000       0.727599        19.7990 
 288   0.0000       0.731933        19.9169 
 289   0.0000       0.735960        20.0265 
 290   0.0000       0.742044        20.1920 
 291   0.0000       0.746761        20.3204 
 292   0.0000       0.749190        20.3865 
 293   0.0000       0.755667        20.5627 
 294   0.0000       0.766211        20.8497 
 295   0.0000       0.767164        20.8756 
 296   0.0000       0.773941        21.0600 
 297   0.0000       0.782262        21.2864 
 298   0.0000       0.784816        21.3559 
 299   0.0000       0.796657        21.6781 
 300   0.0000       0.799604        21.7583 
 301   0.0000       0.806160        21.9367 
 302   0.0000       0.814910        22.1748 
 303   0.0000       0.821067        22.3424 
 304   0.0000       0.825685        22.4680 
 305   0.0000       0.852522        23.1983 
 306   0.0000       0.863677        23.5018 
 307   0.0000       0.872374        23.7385 
 308   0.0000       0.889573        24.2065 
 309   0.0000       0.897920        24.4337 
 310   0.0000       0.925459        25.1830 
 311   0.0000       0.933489        25.4015 
 312   0.0000       0.948546        25.8112 
 313   0.0000       0.956731        26.0340 
 314   0.0000       0.971690        26.4410 
 315   0.0000       0.988555        26.9000 
 316   0.0000       1.001236        27.2450 
 317   0.0000       1.017634        27.6912 
 318   0.0000       1.026159        27.9232 
 319   0.0000       1.037793        28.2398 
 320   0.0000       1.048481        28.5306 
 321   0.0000       1.057409        28.7736 
 322   0.0000       1.076767        29.3003 
 323   0.0000       1.091937        29.7131 
 324   0.0000       1.106802        30.1176 
 325   0.0000       1.115754        30.3612 
 326   0.0000       1.140224        31.0271 
 327   0.0000       1.154679        31.4204 
 328   0.0000       1.169002        31.8102 
 329   0.0000       1.176563        32.0159 
 330   0.0000       1.192590        32.4520 
 331   0.0000       1.202379        32.7184 
 332   0.0000       1.216749        33.1094 
 333   0.0000       1.242939        33.8221 
 334   0.0000       1.246832        33.9280 
 335   0.0000       1.264428        34.4068 
 336   0.0000       1.278872        34.7999 
 337   0.0000       1.291693        35.1488 
 338   0.0000       1.297657        35.3110 
 339   0.0000       1.310980        35.6736 
 340   0.0000       1.318155        35.8688 
 341   0.0000       1.335555        36.3423 
 342   0.0000       1.348310        36.6894 
 343   0.0000       1.362533        37.0764 
 344   0.0000       1.366447        37.1829 
 345   0.0000       1.368550        37.2401 
 346   0.0000       1.373029        37.3620 
 347   0.0000       1.397410        38.0254 
 348   0.0000       1.413597        38.4659 
 349   0.0000       1.418884        38.6098 
 350   0.0000       1.424513        38.7630 
 351   0.0000       1.428186        38.8629 
 352   0.0000       1.438784        39.1513 
 353   0.0000       1.450052        39.4579 
 354   0.0000       1.456841        39.6426 
 355   0.0000       1.470967        40.0270 
 356   0.0000       1.477031        40.1921 
 357   0.0000       1.485672        40.4272 
 358   0.0000       1.502116        40.8747 
 359   0.0000       1.506750        41.0008 
 360   0.0000       1.509791        41.0835 
 361   0.0000       1.521796        41.4102 
 362   0.0000       1.528268        41.5863 
 363   0.0000       1.549292        42.1584 
 364   0.0000       1.555182        42.3186 
 365   0.0000       1.564492        42.5720 
 366   0.0000       1.580120        42.9972 
 367   0.0000       1.587928        43.2097 
 368   0.0000       1.592840        43.3434 
 369   0.0000       1.601887        43.5896 
 370   0.0000       1.607567        43.7441 
 371   0.0000       1.619397        44.0660 
 372   0.0000       1.628745        44.3204 
 373   0.0000       1.642738        44.7012 
 374   0.0000       1.657955        45.1152 
 375   0.0000       1.661611        45.2147 
 376   0.0000       1.668389        45.3992 
 377   0.0000       1.672975        45.5240 
 378   0.0000       1.680099        45.7178 
 379   0.0000       1.683664        45.8148 
 380   0.0000       1.688817        45.9550 
 381   0.0000       1.690440        45.9992 
 382   0.0000       1.695651        46.1410 
 383   0.0000       1.705615        46.4121 
 384   0.0000       1.712445        46.5980 
 385   0.0000       1.714656        46.6582 
 386   0.0000       1.720876        46.8274 
 387   0.0000       1.732138        47.1339 
 388   0.0000       1.733306        47.1656 
 389   0.0000       1.738667        47.3115 
 390   0.0000       1.747126        47.5417 
 391   0.0000       1.748851        47.5886 
 392   0.0000       1.757403        47.8214 
 393   0.0000       1.766408        48.0664 
 394   0.0000       1.769244        48.1436 
 395   0.0000       1.771699        48.2104 
 396   0.0000       1.780192        48.4415 
 397   0.0000       1.785232        48.5786 
 398   0.0000       1.790365        48.7183 
 399   0.0000       1.797982        48.9256 
 400   0.0000       1.799062        48.9550 
 401   0.0000       1.809682        49.2439 
 402   0.0000       1.813962        49.3604 
 403   0.0000       1.817067        49.4449 
 404   0.0000       1.822895        49.6035 
 405   0.0000       1.832199        49.8567 
 406   0.0000       1.839704        50.0609 
 407   0.0000       1.844416        50.1891 
 408   0.0000       1.845706        50.2242 
 409   0.0000       1.854983        50.4767 
 410   0.0000       1.862817        50.6898 
 411   0.0000       1.869982        50.8848 
 412   0.0000       1.871405        50.9235 
 413   0.0000       1.885377        51.3037 
 414   0.0000       1.888289        51.3830 
 415   0.0000       1.893279        51.5187 
 416   0.0000       1.895166        51.5701 
 417   0.0000       1.903626        51.8003 
 418   0.0000       1.912619        52.0450 
 419   0.0000       1.924904        52.3793 
 420   0.0000       1.927792        52.4579 
 421   0.0000       1.934819        52.6491 
 422   0.0000       1.941781        52.8386 
 423   0.0000       1.950644        53.0797 
 424   0.0000       1.953527        53.1582 
 425   0.0000       1.964655        53.4610 
 426   0.0000       1.967908        53.5495 
 427   0.0000       1.969201        53.5847 
 428   0.0000       1.973694        53.7069 
 429   0.0000       1.975181        53.7474 
 430   0.0000       1.983340        53.9694 
 431   0.0000       1.985472        54.0274 
 432   0.0000       1.989796        54.1451 
 433   0.0000       1.993853        54.2555 
 434   0.0000       2.000759        54.4434 
 435   0.0000       2.001919        54.4750 
 436   0.0000       2.005849        54.5819 
 437   0.0000       2.012029        54.7501 
 438   0.0000       2.017594        54.9015 
 439   0.0000       2.018505        54.9263 
 440   0.0000       2.025895        55.1274 
 441   0.0000       2.027292        55.1654 
 442   0.0000       2.031691        55.2851 
 443   0.0000       2.043495        55.6063 
[...]

 --------------
 Nucleus  47H :
 --------------

Diamagnetic contribution to the shielding tensor (ppm) : 
            32.682         -2.189        -5.642
            -2.361         31.969         6.613
            -7.716          6.611        50.344

Paramagnetic contribution to the shielding tensor (ppm): 
            -1.534          0.456         3.548
             0.499         -4.756        -4.436
             4.934         -3.650       -14.828

Total shielding tensor (ppm): 
            31.148         -1.734        -2.095
            -1.862         27.214         2.177
            -2.782          2.961        35.515


 Diagonalized sT*s matrix:
 
 sDSO            29.832           30.778           54.384  iso=      38.332
 sPSO            -3.622           -0.639          -16.857  iso=      -7.039
        ---------------  ---------------  ---------------
 Total           26.210           30.139           37.528  iso=      31.292

 --------------
 Nucleus  48H :
 --------------

Diamagnetic contribution to the shielding tensor (ppm) : 
            36.031         -0.277        -2.898
             0.984         28.174        -6.832
            -9.208         -5.145        50.839

Paramagnetic contribution to the shielding tensor (ppm): 
            -5.439          0.768         3.042
            -1.031         -0.041         4.542
            10.430          2.412       -20.145

Total shielding tensor (ppm): 
            30.592          0.491         0.144
            -0.048         28.133        -2.290
             1.222         -2.732        30.694


 Diagonalized sT*s matrix:
 
 sDSO            30.157           38.464           46.423  iso=      38.348
 sPSO            -3.636           -7.925          -14.064  iso=      -8.542
        ---------------  ---------------  ---------------
 Total           26.521           30.539           32.359  iso=      29.806

 --------------
 Nucleus  52H :
 --------------

Diamagnetic contribution to the shielding tensor (ppm) : 
            41.007         -0.920        -1.945
             3.378         38.868        -3.306
            -2.488          2.447        36.161

Paramagnetic contribution to the shielding tensor (ppm): 
            -9.441          1.790         4.077
            -2.240        -16.598         2.783
             4.865         -3.040       -12.280

Total shielding tensor (ppm): 
            31.566          0.871         2.132
             1.138         22.269        -0.523
             2.377         -0.593        23.881


 Diagonalized sT*s matrix:
 
 sDSO            38.052           38.203           39.780  iso=      38.678
 sPSO           -16.278          -14.508           -7.534  iso=     -12.773
        ---------------  ---------------  ---------------
 Total           21.774           23.695           32.246  iso=      25.905

 --------------
 Nucleus  53H :
 --------------

Diamagnetic contribution to the shielding tensor (ppm) : 
            38.059         -7.449         0.102
             2.357         41.878         0.338
            -3.619          3.100        43.174

Paramagnetic contribution to the shielding tensor (ppm): 
            -7.381          7.794         3.795
            -0.564        -19.612         1.212
             7.509         -2.368       -16.204

Total shielding tensor (ppm): 
            30.679          0.345         3.897
             1.793         22.266         1.550
             3.890          0.731        26.970


 Diagonalized sT*s matrix:
 
 sDSO            41.345           44.052           37.714  iso=      41.037
 sPSO           -19.344          -19.480           -4.373  iso=     -14.399
        ---------------  ---------------  ---------------
 Total           22.001           24.572           33.341  iso=      26.638

 --------------
 Nucleus  57H :
 --------------

Diamagnetic contribution to the shielding tensor (ppm) : 
            35.482         -0.528         1.080
            -0.209         45.318        -3.142
             0.179          2.514        21.719

Paramagnetic contribution to the shielding tensor (ppm): 
            -5.776          0.699        -1.137
            -0.773        -13.014         1.410
            -0.243         -4.526         6.042

Total shielding tensor (ppm): 
            29.706          0.171        -0.058
            -0.982         32.304        -1.732
            -0.064         -2.011        27.761


 Diagonalized sT*s matrix:
 
 sDSO            24.373           35.210           42.936  iso=      34.173
 sPSO             2.702           -5.529           -9.921  iso=      -4.250
        ---------------  ---------------  ---------------
 Total           27.075           29.681           33.015  iso=      29.924

 --------------
 Nucleus  58H :
 --------------

Diamagnetic contribution to the shielding tensor (ppm) : 
            35.360          4.554         8.213
             9.982         31.749         2.493
            19.010          1.996        22.411

Paramagnetic contribution to the shielding tensor (ppm): 
            -3.000         -1.227        -5.960
            -6.722         -2.711        -0.230
           -16.045          0.491         7.360

Total shielding tensor (ppm): 
            32.360          3.327         2.253
             3.260         29.039         2.264
             2.965          2.487        29.771


 Diagonalized sT*s matrix:
 
 sDSO            28.576           13.657           47.288  iso=      29.840
 sPSO            -1.855           14.536          -11.033  iso=       0.550
        ---------------  ---------------  ---------------
 Total           26.721           28.194           36.255  iso=      30.390

 --------------
 Nucleus  61H :
 --------------

Diamagnetic contribution to the shielding tensor (ppm) : 
            33.861         -7.054         0.463
            -5.823         37.960         7.537
            -5.070          4.107        11.281

Paramagnetic contribution to the shielding tensor (ppm): 
            -2.752          3.608        -2.107
             3.302         -5.845        -7.158
             2.595         -3.312        16.920

Total shielding tensor (ppm): 
            31.109         -3.446        -1.644
            -2.521         32.116         0.379
            -2.475          0.795        28.200


 Diagonalized sT*s matrix:
 
 sDSO            18.068           21.659           43.375  iso=      27.701
 sPSO             8.862            7.727           -8.265  iso=       2.774
        ---------------  ---------------  ---------------
 Total           26.930           29.385           35.110  iso=      30.475

 --------------
 Nucleus  62H :
 --------------

Diamagnetic contribution to the shielding tensor (ppm) : 
            40.625          2.607         6.359
            10.632         25.226         0.261
             4.271          4.619         6.044

Paramagnetic contribution to the shielding tensor (ppm): 
            -4.081          1.637        -4.720
            -6.815          2.754         0.556
            -3.867         -3.598        21.859

Total shielding tensor (ppm): 
            36.544          4.244         1.639
             3.817         27.980         0.817
             0.405          1.021        27.903


 Diagonalized sT*s matrix:
 
 sDSO            20.941            7.011           43.942  iso=      23.965
 sPSO             5.291           20.882           -5.641  iso=       6.844
        ---------------  ---------------  ---------------
 Total           26.232           27.893           38.302  iso=      30.809

 --------------
 Nucleus  63H :
 --------------

Diamagnetic contribution to the shielding tensor (ppm) : 
            34.255         -1.001        -2.712
             5.292         23.230        -4.682
           -23.846         -2.858        23.233

Paramagnetic contribution to the shielding tensor (ppm): 
            -3.368          1.791        -0.505
            -4.225          3.379         2.724
            20.578         -0.022        11.436

Total shielding tensor (ppm): 
            30.887          0.791        -3.217
             1.066         26.609        -1.958
            -3.267         -2.879        34.670


 Diagonalized sT*s matrix:
 
 sDSO            21.276           21.029           38.413  iso=      26.906
 sPSO             4.664            8.043           -1.259  iso=       3.816
        ---------------  ---------------  ---------------
 Total           25.939           29.072           37.154  iso=      30.722

 --------------
 Nucleus  64H :
 --------------

Diamagnetic contribution to the shielding tensor (ppm) : 
            32.551        -10.326         1.393
            -7.924         29.342         4.464
            13.650          4.765        17.854

Paramagnetic contribution to the shielding tensor (ppm): 
            -0.072          5.913        -3.212
             2.330          1.591        -4.799
           -14.787         -6.272        10.465

Total shielding tensor (ppm): 
            32.479         -4.413        -1.819
            -5.594         30.932        -0.335
            -1.137         -1.507        28.319


 Diagonalized sT*s matrix:
 
 sDSO            28.236           11.840           39.670  iso=      26.582
 sPSO            -2.622           17.476           -2.870  iso=       3.995
        ---------------  ---------------  ---------------
 Total           25.614           29.316           36.801  iso=      30.577

 --------------
 Nucleus  65H :
 --------------

Diamagnetic contribution to the shielding tensor (ppm) : 
            31.096          3.686         3.262
             2.832         39.371        -5.634
            16.214          3.833        28.943

Paramagnetic contribution to the shielding tensor (ppm): 
            -0.020         -0.499        -0.618
             0.642         -6.026         5.545
           -13.287         -4.674         0.418

Total shielding tensor (ppm): 
            31.075          3.187         2.644
             3.473         33.345        -0.089
             2.927         -0.841        29.362


 Diagonalized sT*s matrix:
 
 sDSO            20.722           37.673           41.015  iso=      33.137
 sPSO             5.674           -6.283           -5.018  iso=      -1.876
        ---------------  ---------------  ---------------
 Total           26.396           31.390           35.997  iso=      31.261

 --------------
 Nucleus  66H :
 --------------

Diamagnetic contribution to the shielding tensor (ppm) : 
            21.000         -0.599         4.657
            -5.519         22.432        -6.424
            17.862        -10.240        34.009

Paramagnetic contribution to the shielding tensor (ppm): 
             6.615         -0.964        -2.659
             4.036          7.089         2.542
           -15.594          6.863         2.078

Total shielding tensor (ppm): 
            27.616         -1.564         1.999
            -1.483         29.521        -3.882
             2.268         -3.377        36.087


 Diagonalized sT*s matrix:
 
 sDSO            18.471           16.355           42.615  iso=      25.814
 sPSO             8.298           11.784           -4.299  iso=       5.261
        ---------------  ---------------  ---------------
 Total           26.769           28.139           38.316  iso=      31.075

 --------------
 Nucleus  67H :
 --------------

Diamagnetic contribution to the shielding tensor (ppm) : 
            29.148         -2.483        -4.284
             1.358         41.313         0.125
            10.310          2.191        37.363

Paramagnetic contribution to the shielding tensor (ppm): 
            -0.049         -1.079         4.565
            -3.909         -6.033         1.038
           -10.401         -0.092        -9.003

Total shielding tensor (ppm): 
            29.099         -3.562         0.281
            -2.551         35.279         1.163
            -0.091          2.100        28.360


 Diagonalized sT*s matrix:
 
 sDSO            30.715           37.071           40.037  iso=      35.941
 sPSO            -3.451           -8.390           -3.244  iso=      -5.028
        ---------------  ---------------  ---------------
 Total           27.264           28.682           36.793  iso=      30.913

 --------------
 Nucleus  68H :
 --------------

Diamagnetic contribution to the shielding tensor (ppm) : 
            23.955          2.875        -4.780
             6.575         27.660         1.034
            13.929         -4.249        48.947

Paramagnetic contribution to the shielding tensor (ppm): 
             4.288         -3.855         2.832
            -7.912         -0.690        -0.179
           -14.857          5.349       -11.664

Total shielding tensor (ppm): 
            28.243         -0.981        -1.948
            -1.337         26.970         0.855
            -0.928          1.100        37.283


 Diagonalized sT*s matrix:
 
 sDSO            30.799           23.585           46.178  iso=      33.521
 sPSO            -4.516            4.998           -8.548  iso=      -2.689
        ---------------  ---------------  ---------------
 Total           26.283           28.583           37.630  iso=      30.832

 --------------
 Nucleus  69H :
 --------------

Diamagnetic contribution to the shielding tensor (ppm) : 
            41.420          3.561        -4.083
             5.892         29.717         5.863
            11.897          6.925        46.610

Paramagnetic contribution to the shielding tensor (ppm): 
            -5.936         -1.904         6.169
            -4.386         -3.444        -4.794
           -10.051         -5.492       -15.747

Total shielding tensor (ppm): 
            35.484          1.657         2.086
             1.507         26.273         1.070
             1.846          1.433        30.864


 Diagonalized sT*s matrix:
 
 sDSO            27.163           43.889           46.695  iso=      39.249
 sPSO            -1.335          -13.663          -10.129  iso=      -8.376
        ---------------  ---------------  ---------------
 Total           25.828           30.227           36.566  iso=      30.874

 --------------
 Nucleus  70H :
 --------------

Diamagnetic contribution to the shielding tensor (ppm) : 
            31.042          1.475         4.438
            -3.978         34.317        10.621
            -3.790          8.290        42.839

Paramagnetic contribution to the shielding tensor (ppm): 
             1.873         -1.015        -3.455
             4.918         -5.132        -5.602
             5.029         -3.504       -13.978

Total shielding tensor (ppm): 
            32.915          0.460         0.983
             0.940         29.186         5.019
             1.239          4.786        28.861


 Diagonalized sT*s matrix:
 
 sDSO            29.216           36.964           42.018  iso=      36.066
 sPSO            -5.109           -4.906           -7.221  iso=      -5.745
        ---------------  ---------------  ---------------
 Total           24.107           32.058           34.797  iso=      30.321

 --------------
 Nucleus  71H :
 --------------

Diamagnetic contribution to the shielding tensor (ppm) : 
            28.268         -6.268        -0.614
            -6.432         37.655        -0.727
            -2.013         -6.569        43.392

Paramagnetic contribution to the shielding tensor (ppm): 
             2.929          5.102         1.986
             4.940         -4.753        -1.929
             3.048          4.046       -14.806

Total shielding tensor (ppm): 
            31.197         -1.166         1.372
            -1.492         32.902        -2.656
             1.035         -2.523        28.586


 Diagonalized sT*s matrix:
 
 sDSO            40.742           25.315           43.257  iso=      36.438
 sPSO           -13.449            5.163           -8.344  iso=      -5.544
        ---------------  ---------------  ---------------
 Total           27.293           30.478           34.913  iso=      30.895

 --------------
 Nucleus  72H :
 --------------

Diamagnetic contribution to the shielding tensor (ppm) : 
            36.396         -8.072        -8.882
            -6.877         21.767         5.778
           -20.371          3.559        38.437

Paramagnetic contribution to the shielding tensor (ppm): 
            -1.704          6.690         5.190
             5.090          5.664        -3.058
            16.363         -0.057        -8.360

Total shielding tensor (ppm): 
            34.692         -1.382        -3.692
            -1.787         27.431         2.720
            -4.008          3.502        30.078


 Diagonalized sT*s matrix:
 
 sDSO            22.982           20.855           52.763  iso=      32.200
 sPSO             2.300            8.336          -15.035  iso=      -1.467
        ---------------  ---------------  ---------------
 Total           25.282           29.191           37.728  iso=      30.733



--------------------------------
CHEMICAL SHIELDING SUMMARY (ppm)
--------------------------------


  Nucleus  Element    Isotropic     Anisotropy
  -------  -------  ------------   ------------
      3       H           29.367          6.458 
      4       H           29.049          7.426 
      8       H           29.563          7.959 
      9       H           29.334          5.454 
     10       H           30.102          8.356 
     11       H           29.856         10.225 
     13       H           27.733          7.773 
     16       H           26.784          4.658 
     17       H           26.500          4.779 
     19       H           25.405         10.474 
     21       H           25.581         14.788 
     24       H           28.908         10.187 
     25       H           30.048          9.410 
     27       H           30.245          7.112 
     28       H           30.112         11.762 
     30       H           29.728          8.327 
     31       H           30.458          6.715 
     33       H           29.838          4.007 
     35       H           30.165         14.780 
     37       H           30.326         10.589 
     38       H           30.183         10.156 
     40       H           29.834         10.407 
     41       H           30.231          7.746 
     42       H           30.718          6.304 
     45       H           31.231          7.508 
     46       H           31.013          8.084 
     47       H           31.292          9.353 
     48       H           29.806          3.829 
     52       H           25.905          9.512 
     53       H           26.638         10.054 
     57       H           29.924          4.637 
     58       H           30.390          8.797 
     61       H           30.475          6.953 
     62       H           30.809         11.239 
     63       H           30.722          9.648 
     64       H           30.577          9.336 
     65       H           31.261          7.104 
     66       H           31.075         10.862 
     67       H           30.913          8.821 
     68       H           30.832         10.197 
     69       H           30.874          8.539 
     70       H           30.321          6.715 
     71       H           30.895          6.027 
     72       H           30.733         10.491 



Maximum memory used throughout the entire EPRNMR-calculation: 141.3 MB

Timings for individual modules:

Sum of individual times         ...      147.639 sec (=   2.461 min)
GTO integral calculation        ...        0.789 sec (=   0.013 min)   0.5 %
SCF iterations                  ...       99.638 sec (=   1.661 min)  67.5 %
EPR/NMR calculation             ...       47.211 sec (=   0.787 min)  32.0 %
                             ****ORCA TERMINATED NORMALLY****
TOTAL RUN TIME: 0 days 0 hours 2 minutes 28 seconds 154 msec
