
                                 *****************
                                 * O   R   C   A *
                                 *****************

                                            #,                                       
                                            ###                                      
                                            ####                                     
                                            #####                                    
                                            ######                                   
                                           ########,                                 
                                     ,,################,,,,,                         
                               ,,#################################,,                 
                          ,,##########################################,,             
                       ,#########################################, ''#####,          
                    ,#############################################,,   '####,        
                  ,##################################################,,,,####,       
                ,###########''''           ''''###############################       
              ,#####''   ,,,,##########,,,,          '''####'''          '####       
            ,##' ,,,,###########################,,,                        '##       
           ' ,,###''''                  '''############,,,                           
         ,,##''                                '''############,,,,        ,,,,,,###''
      ,#''                                            '''#######################'''  
     '                                                          ''''####''''         
             ,#######,   #######,   ,#######,      ##                                
            ,#'     '#,  ##    ##  ,#'     '#,    #''#        ######   ,####,        
            ##       ##  ##   ,#'  ##            #'  '#       #        #'  '#        
            ##       ##  #######   ##           ,######,      #####,   #    #        
            '#,     ,#'  ##    ##  '#,     ,#' ,#      #,         ##   #,  ,#        
             '#######'   ##     ##  '#######'  #'      '#     #####' # '####'        



                  #######################################################
                  #                        -***-                        #
                  #          Department of theory and spectroscopy      #
                  #    Directorship and core code : Frank Neese         #
                  #        Max Planck Institute fuer Kohlenforschung    #
                  #                Kaiser Wilhelm Platz 1               #
                  #                 D-45470 Muelheim/Ruhr               #
                  #                      Germany                        #
                  #                                                     #
                  #                  All rights reserved                #
                  #                        -***-                        #
                  #######################################################


                         Program Version 5.0.2 -  RELEASE  -


 With contributions from (in alphabetic order):
   Daniel Aravena         : Magnetic Suceptibility
   Michael Atanasov       : Ab Initio Ligand Field Theory (pilot matlab implementation)
   Alexander A. Auer      : GIAO ZORA, VPT2 properties, NMR spectrum
   Ute Becker             : Parallelization
   Giovanni Bistoni       : ED, misc. LED, open-shell LED, HFLD
   Martin Brehm           : Molecular dynamics
   Dmytro Bykov           : SCF Hessian
   Vijay G. Chilkuri      : MRCI spin determinant printing, contributions to CSF-ICE
   Dipayan Datta          : RHF DLPNO-CCSD density
   Achintya Kumar Dutta   : EOM-CC, STEOM-CC
   Dmitry Ganyushin       : Spin-Orbit,Spin-Spin,Magnetic field MRCI
   Miquel Garcia          : C-PCM and meta-GGA Hessian, CC/C-PCM, Gaussian charge scheme
   Yang Guo               : DLPNO-NEVPT2, F12-NEVPT2, CIM, IAO-localization
   Andreas Hansen         : Spin unrestricted coupled pair/coupled cluster methods
   Benjamin Helmich-Paris : MC-RPA, TRAH-SCF, COSX integrals
   Lee Huntington         : MR-EOM, pCC
   Robert Izsak           : Overlap fitted RIJCOSX, COSX-SCS-MP3, EOM
   Marcus Kettner         : VPT2
   Christian Kollmar      : KDIIS, OOCD, Brueckner-CCSD(T), CCSD density, CASPT2, CASPT2-K
   Simone Kossmann        : Meta GGA functionals, TD-DFT gradient, OOMP2, MP2 Hessian
   Martin Krupicka        : Initial AUTO-CI
   Lucas Lang             : DCDCAS
   Marvin Lechner         : AUTO-CI (C++ implementation), FIC-MRCC
   Dagmar Lenk            : GEPOL surface, SMD
   Dimitrios Liakos       : Extrapolation schemes; Compound Job, initial MDCI parallelization
   Dimitrios Manganas     : Further ROCIS development; embedding schemes
   Dimitrios Pantazis     : SARC Basis sets
   Anastasios Papadopoulos: AUTO-CI, single reference methods and gradients
   Taras Petrenko         : DFT Hessian,TD-DFT gradient, ASA, ECA, R-Raman, ABS, FL, XAS/XES, NRVS
   Peter Pinski           : DLPNO-MP2, DLPNO-MP2 Gradient
   Christoph Reimann      : Effective Core Potentials
   Marius Retegan         : Local ZFS, SOC
   Christoph Riplinger    : Optimizer, TS searches, QM/MM, DLPNO-CCSD(T), (RO)-DLPNO pert. Triples
   Tobias Risthaus        : Range-separated hybrids, TD-DFT gradient, RPA, STAB
   Michael Roemelt        : Original ROCIS implementation
   Masaaki Saitow         : Open-shell DLPNO-CCSD energy and density
   Barbara Sandhoefer     : DKH picture change effects
   Avijit Sen             : IP-ROCIS
   Kantharuban Sivalingam : CASSCF convergence, NEVPT2, FIC-MRCI
   Bernardo de Souza      : ESD, SOC TD-DFT
   Georgi Stoychev        : AutoAux, RI-MP2 NMR, DLPNO-MP2 response
   Willem Van den Heuvel  : Paramagnetic NMR
   Boris Wezisla          : Elementary symmetry handling
   Frank Wennmohs         : Technical directorship


 We gratefully acknowledge several colleagues who have allowed us to
 interface, adapt or use parts of their codes:
   Stefan Grimme, W. Hujo, H. Kruse, P. Pracht,  : VdW corrections, initial TS optimization,
                  C. Bannwarth, S. Ehlert          DFT functionals, gCP, sTDA/sTD-DF
   Ed Valeev, F. Pavosevic, A. Kumar             : LibInt (2-el integral package), F12 methods
   Garnet Chan, S. Sharma, J. Yang, R. Olivares  : DMRG
   Ulf Ekstrom                                   : XCFun DFT Library
   Mihaly Kallay                                 : mrcc  (arbitrary order and MRCC methods)
   Jiri Pittner, Ondrej Demel                    : Mk-CCSD
   Frank Weinhold                                : gennbo (NPA and NBO analysis)
   Christopher J. Cramer and Donald G. Truhlar   : smd solvation model
   Lars Goerigk                                  : TD-DFT with DH, B97 family of functionals
   V. Asgeirsson, H. Jonsson                     : NEB implementation
   FAccTs GmbH                                   : IRC, NEB, NEB-TS, DLPNO-Multilevel, CI-OPT
                                                   MM, QMMM, 2- and 3-layer-ONIOM, Crystal-QMMM,
                                                   LR-CPCM, SF, NACMEs, symmetry and pop. for TD-DFT,
                                                   nearIR, NL-DFT gradient (VV10), updates on ESD,
                                                   ML-optimized integration grids
   S Lehtola, MJT Oliveira, MAL Marques          : LibXC Library
   Liviu Ungur et al                             : ANISO software


 Your calculation uses the libint2 library for the computation of 2-el integrals
 For citations please refer to: http://libint.valeyev.net

 Your ORCA version has been built with support for libXC version: 5.1.0
 For citations please refer to: https://tddft.org/programs/libxc/

 This ORCA versions uses:
   CBLAS   interface :  Fast vector & matrix operations
   LAPACKE interface :  Fast linear algebra routines
   SCALAPACK package :  Parallel linear algebra routines
   Shared memory     :  Shared parallel matrices
   BLAS/LAPACK       :  OpenBLAS 0.3.15  USE64BITINT DYNAMIC_ARCH NO_AFFINITY Zen SINGLE_THREADED
        Core in use  :  Zen
   Copyright (c) 2011-2014, The OpenBLAS Project


Your calculation utilizes the atom-pairwise dispersion correction
based on tight binding partial charges (D4)
Cite in your paper:
E.Caldeweyher, C.Bannwarth, S.Grimme, J.Chem.Phys., (2017), 147, 034112.
E.Caldeweyher, S.Ehlert, A.Hansen, H.Neugebauer, S.Grimme, J.Chem.Phys., (2018), in progress.
   

================================================================================

----- Orbital basis set information -----
Your calculation utilizes the basis: pcJ-0
   F. Jensen, Theor. Chem. Acc. 126, 371 (2010).

----- AuxJ basis set information -----
Your calculation utilizes the auxiliary basis: def2/J
   F. Weigend, Phys. Chem. Chem. Phys. 8, 1057 (2006).

================================================================================
                                        WARNINGS
                       Please study these warnings very carefully!
================================================================================


INFO   : the flag for use of the SHARK integral package has been found!

================================================================================
                                       INPUT FILE
================================================================================
NAME = inpJ
|  1> ! pbe0
|  2> ! D4
|  3> ! pcJ-0
|  4> ! def2/J RIJCOSX
|  5> ! DEFGRID2
|  6> ! scfconv7
|  7> ! smallprint printgap noloewdin
|  8> ! NOSOSCF
|  9> %MaxCore 4000
| 10> %output
| 11>        print[P_BondOrder_M] 1
| 12>        print[P_Mayer] 1
| 13>        print[P_basis] 2
| 14> end
| 15> %pal
| 16>     nprocs 4
| 17> end
| 18> ! CPCM(chloroform)
| 19> *xyz 0 1
| 20> C   -4.9997742600   0.2050671900  -0.3849669300
| 21> C   -6.4514193800  -0.1967748800  -0.4969859300
| 22> C   -7.3239711800   0.6902087300   0.4003577800
| 23> H   -6.5842919500  -1.2503180700  -0.2261763200
| 24> H   -6.7952576800  -0.0668815100  -1.5338565400
| 25> C   -4.7522252700   1.6403830300  -0.6458320600
| 26> C   -5.6541473800   2.5805996300   0.1229700200
| 27> C   -7.1288511000   2.1627904200   0.0351820700
| 28> H   -5.5231331500   3.6075158500  -0.2345163400
| 29> H   -5.3462880100   2.5671951900   1.1796433300
| 30> H   -7.4938031700   2.3156261000  -0.9896153600
| 31> H   -7.7370625300   2.7880812400   0.6990015000
| 32> O   -7.0406021700   0.4442871000   1.7876975900
| 33> H   -8.3785925100   0.4177004600   0.2701114700
| 34> C   -4.0521878900  -0.6860070400  -0.0074208600
| 35> C   -3.8362454600   2.0777111800  -1.5168943000
| 36> H   -3.2096672100   1.3854233800  -2.0728473700
| 37> H   -3.7008545800   3.1411542700  -1.6996033600
| 38> C   -2.6582900400  -0.3955466500   0.2376174400
| 39> H   -4.3902223200  -1.7086355800   0.1560422700
| 40> C   -1.6896506000  -1.2925530300   0.5194624900
| 41> H   -2.3803777100   0.6553854500   0.2007219800
| 42> C   -1.8677344800  -2.7877080000   0.5879410100
| 43> C   -0.8816885400  -3.5166284000  -0.3451370000
| 44> H   -2.8908236100  -3.0960146300   0.3565066800
| 45> H   -1.6597686600  -3.1062776200   1.6217664800
| 46> C    0.5709621200  -3.0667532700  -0.1382127700
| 47> H   -1.1801552000  -3.3418227100  -1.3865663700
| 48> H   -0.9586701000  -4.5976545300  -0.1759960900
| 49> C    0.7199173300  -1.5435123800  -0.2538636200
| 50> H    1.2086255900  -3.5863640200  -0.8605087200
| 51> H    0.9052614200  -3.3737300300   0.8642863100
| 52> C   -0.2664447300  -0.8991318400   0.7728413500
| 53> H    0.0125243900  -1.3487942100   1.7433880400
| 54> C    0.1492020100   0.5678897900   0.8192367800
| 55> H   -6.0800216800   0.3753542500   1.8832929400
| 56> C    1.6881690300   0.5160055700   0.6562994000
| 57> H   -0.1644273000   1.0552975100   1.7481823900
| 58> H   -0.3029217300   1.1270355500  -0.0074303100
| 59> C    2.0591727100  -0.9460231400   0.2615937000
| 60> H    2.2041220000   0.8103964000   1.5757136400
| 61> H    2.0143459900   1.2136566300  -0.1244229100
| 62> H    2.3185280200  -1.4995314100   1.1787686800
| 63> C    3.3048891200  -1.0044379100  -0.6566898100
| 64> C    0.4193365700  -1.0638785600  -1.6803628700
| 65> H    0.6349953200   0.0024491000  -1.8015669800
| 66> H   -0.6328465900  -1.2147064300  -1.9410390400
| 67> H    1.0279035600  -1.6104286600  -2.4091112600
| 68> H    3.0627356200  -0.4249980400  -1.5629138900
| 69> C    3.6797832500  -2.4235936100  -1.0809424200
| 70> C    4.4394034300  -0.2849539000   0.0325903600
| 71> C    5.5548824600  -0.8298185900   0.5198137400
| 72> H    4.2997960000   0.7891953100   0.1687514700
| 73> H    5.7330157800  -1.8997780700   0.4024598800
| 74> C    6.6238248100  -0.0651784600   1.2499824600
| 75> C    7.9992200500  -0.3318228600   0.6236564000
| 76> C    6.6177906600  -0.3558579100   2.7765725700
| 77> H    6.4035719000   1.0074371800   1.1418170200
| 78> H    7.4719944900   0.1999877000   3.1934661300
| 79> C    6.8079226600  -1.8364797200   3.1155833200
| 80> C    5.3433472600   0.1788662300   3.4322976200
| 81> H    8.2365773200  -1.4013672300   0.6199392300
| 82> H    8.7889638600   0.1891130100   1.1773861600
| 83> H    8.0220981200   0.0143387600  -0.4150567700
| 84> H    7.7178354000  -2.2505152900   2.6693487200
| 85> H    5.9554973100  -2.4306228700   2.7654909100
| 86> H    6.8792494600  -1.9701176600   4.2006674400
| 87> H    5.2020919600   1.2444515300   3.2171030600
| 88> H    5.3822924500   0.0524473600   4.5200885000
| 89> H    4.4619742500  -0.3573560400   3.0604951700
| 90> H    2.9308684700  -2.8441638900  -1.7549614700
| 91> H    3.7660111300  -3.0898953900  -0.2144310700
| 92> H    4.6401302500  -2.4267277500  -1.6076523400
| 93> *
| 94> %eprnmr
| 95>  Nuclei = all H { ssfc }
| 96>  SpinSpinRThresh 8.0
| 97> end
| 98> 
| 99>                          ****END OF INPUT****
================================================================================

                       ****************************
                       * Single Point Calculation *
                       ****************************

---------------------------------
CARTESIAN COORDINATES (ANGSTROEM)
---------------------------------
  C     -4.999774    0.205067   -0.384967
  C     -6.451419   -0.196775   -0.496986
  C     -7.323971    0.690209    0.400358
  H     -6.584292   -1.250318   -0.226176
  H     -6.795258   -0.066882   -1.533857
  C     -4.752225    1.640383   -0.645832
  C     -5.654147    2.580600    0.122970
  C     -7.128851    2.162790    0.035182
  H     -5.523133    3.607516   -0.234516
  H     -5.346288    2.567195    1.179643
  H     -7.493803    2.315626   -0.989615
  H     -7.737063    2.788081    0.699002
  O     -7.040602    0.444287    1.787698
  H     -8.378593    0.417700    0.270111
  C     -4.052188   -0.686007   -0.007421
  C     -3.836245    2.077711   -1.516894
  H     -3.209667    1.385423   -2.072847
  H     -3.700855    3.141154   -1.699603
  C     -2.658290   -0.395547    0.237617
  H     -4.390222   -1.708636    0.156042
  C     -1.689651   -1.292553    0.519462
  H     -2.380378    0.655385    0.200722
  C     -1.867734   -2.787708    0.587941
  C     -0.881689   -3.516628   -0.345137
  H     -2.890824   -3.096015    0.356507
  H     -1.659769   -3.106278    1.621766
  C      0.570962   -3.066753   -0.138213
  H     -1.180155   -3.341823   -1.386566
  H     -0.958670   -4.597655   -0.175996
  C      0.719917   -1.543512   -0.253864
  H      1.208626   -3.586364   -0.860509
  H      0.905261   -3.373730    0.864286
  C     -0.266445   -0.899132    0.772841
  H      0.012524   -1.348794    1.743388
  C      0.149202    0.567890    0.819237
  H     -6.080022    0.375354    1.883293
  C      1.688169    0.516006    0.656299
  H     -0.164427    1.055298    1.748182
  H     -0.302922    1.127036   -0.007430
  C      2.059173   -0.946023    0.261594
  H      2.204122    0.810396    1.575714
  H      2.014346    1.213657   -0.124423
  H      2.318528   -1.499531    1.178769
  C      3.304889   -1.004438   -0.656690
  C      0.419337   -1.063879   -1.680363
  H      0.634995    0.002449   -1.801567
  H     -0.632847   -1.214706   -1.941039
  H      1.027904   -1.610429   -2.409111
  H      3.062736   -0.424998   -1.562914
  C      3.679783   -2.423594   -1.080942
  C      4.439403   -0.284954    0.032590
  C      5.554882   -0.829819    0.519814
  H      4.299796    0.789195    0.168751
  H      5.733016   -1.899778    0.402460
  C      6.623825   -0.065178    1.249982
  C      7.999220   -0.331823    0.623656
  C      6.617791   -0.355858    2.776573
  H      6.403572    1.007437    1.141817
  H      7.471994    0.199988    3.193466
  C      6.807923   -1.836480    3.115583
  C      5.343347    0.178866    3.432298
  H      8.236577   -1.401367    0.619939
  H      8.788964    0.189113    1.177386
  H      8.022098    0.014339   -0.415057
  H      7.717835   -2.250515    2.669349
  H      5.955497   -2.430623    2.765491
  H      6.879249   -1.970118    4.200667
  H      5.202092    1.244452    3.217103
  H      5.382292    0.052447    4.520088
  H      4.461974   -0.357356    3.060495
  H      2.930868   -2.844164   -1.754961
  H      3.766011   -3.089895   -0.214431
  H      4.640130   -2.426728   -1.607652

----------------------------
CARTESIAN COORDINATES (A.U.)
----------------------------
  NO LB      ZA    FRAG     MASS         X           Y           Z
   0 C     6.0000    0    12.011   -9.448204    0.387521   -0.727482
   1 C     6.0000    0    12.011  -12.191416   -0.371851   -0.939167
   2 C     6.0000    0    12.011  -13.840300    1.304305    0.756567
   3 H     1.0000    0     1.008  -12.442509   -2.362759   -0.427411
   4 H     1.0000    0     1.008  -12.841176   -0.126388   -2.898569
   5 C     6.0000    0    12.011   -8.980404    3.099875   -1.220446
   6 C     6.0000    0    12.011  -10.684790    4.876627    0.232380
   7 C     6.0000    0    12.011  -13.471576    4.087082    0.066484
   8 H     1.0000    0     1.008  -10.437209    6.817217   -0.443172
   9 H     1.0000    0     1.008  -10.103020    4.851296    2.229203
  10 H     1.0000    0     1.008  -14.161236    4.375899   -1.870102
  11 H     1.0000    0     1.008  -14.620929    5.268710    1.320921
  12 O     8.0000    0    15.999  -13.304810    0.839581    3.378259
  13 H     1.0000    0     1.008  -15.833245    0.789339    0.510437
  14 C     6.0000    0    12.011   -7.657525   -1.296365   -0.014023
  15 C     6.0000    0    12.011   -7.249453    3.926305   -2.866515
  16 H     1.0000    0     1.008   -6.065392    2.618071   -3.917114
  17 H     1.0000    0     1.008   -6.993602    5.935921   -3.211785
  18 C     6.0000    0    12.011   -5.023440   -0.747475    0.449032
  19 H     1.0000    0     1.008   -8.296318   -3.228853    0.294877
  20 C     6.0000    0    12.011   -3.192977   -2.442571    0.981642
  21 H     1.0000    0     1.008   -4.498262    1.238499    0.379310
  22 C     6.0000    0    12.011   -3.529507   -5.268005    1.111047
  23 C     6.0000    0    12.011   -1.666150   -6.645465   -0.652214
  24 H     1.0000    0     1.008   -5.462865   -5.850620    0.673700
  25 H     1.0000    0     1.008   -3.136508   -5.870014    3.064695
  26 C     6.0000    0    12.011    1.078962   -5.795324   -0.261184
  27 H     1.0000    0     1.008   -2.230170   -6.315130   -2.620231
  28 H     1.0000    0     1.008   -1.811624   -8.688308   -0.332584
  29 C     6.0000    0    12.011    1.360447   -2.916816   -0.479733
  30 H     1.0000    0     1.008    2.283971   -6.777246   -1.626126
  31 H     1.0000    0     1.008    1.710696   -6.375426    1.633264
  32 C     6.0000    0    12.011   -0.503508   -1.699113    1.460458
  33 H     1.0000    0     1.008    0.023668   -2.548852    3.294526
  34 C     6.0000    0    12.011    0.281951    1.073156    1.548133
  35 H     1.0000    0     1.008  -11.489576    0.709317    3.558908
  36 C     6.0000    0    12.011    3.190177    0.975109    1.240226
  37 H     1.0000    0     1.008   -0.310723    1.994223    3.303586
  38 H     1.0000    0     1.008   -0.572439    2.129789   -0.014041
  39 C     6.0000    0    12.011    3.891272   -1.787725    0.494340
  40 H     1.0000    0     1.008    4.165187    1.531427    2.977667
  41 H     1.0000    0     1.008    3.806562    2.293479   -0.235125
  42 H     1.0000    0     1.008    4.381383   -2.833704    2.227550
  43 C     6.0000    0    12.011    6.245335   -1.898113   -1.240964
  44 C     6.0000    0    12.011    0.792431   -2.010439   -3.175426
  45 H     1.0000    0     1.008    1.199967    0.004628   -3.404468
  46 H     1.0000    0     1.008   -1.195907   -2.295462   -3.668032
  47 H     1.0000    0     1.008    1.942456   -3.043269   -4.552561
  48 H     1.0000    0     1.008    5.787732   -0.803130   -2.953479
  49 C     6.0000    0    12.011    6.953783   -4.579928   -2.042685
  50 C     6.0000    0    12.011    8.389257   -0.538485    0.061587
  51 C     6.0000    0    12.011   10.497207   -1.568130    0.982306
  52 H     1.0000    0     1.008    8.125437    1.491363    0.318894
  53 H     1.0000    0     1.008   10.833830   -3.590060    0.760539
  54 C     6.0000    0    12.011   12.517215   -0.123169    2.362125
  55 C     6.0000    0    12.011   15.116335   -0.627054    1.178540
  56 C     6.0000    0    12.011   12.505812   -0.672474    5.246962
  57 H     1.0000    0     1.008   12.100997    1.903780    2.157721
  58 H     1.0000    0     1.008   14.120023    0.377922    6.034776
  59 C     6.0000    0    12.011   12.865109   -3.470444    5.887599
  60 C     6.0000    0    12.011   10.097463    0.338008    6.486103
  61 H     1.0000    0     1.008   15.564875   -2.648200    1.171515
  62 H     1.0000    0     1.008   16.608735    0.357372    2.224937
  63 H     1.0000    0     1.008   15.159568    0.027096   -0.784344
  64 H     1.0000    0     1.008   14.584595   -4.252858    5.044338
  65 H     1.0000    0     1.008   11.254259   -4.593212    5.226020
  66 H     1.0000    0     1.008   12.999897   -3.722983    7.938111
  67 H     1.0000    0     1.008    9.830529    2.351673    6.079444
  68 H     1.0000    0     1.008   10.171059    0.099111    8.541729
  69 H     1.0000    0     1.008    8.431909   -0.675305    5.783498
  70 H     1.0000    0     1.008    5.538539   -5.374691   -3.316397
  71 H     1.0000    0     1.008    7.116730   -5.839056   -0.405216
  72 H     1.0000    0     1.008    8.768575   -4.585851   -3.038023

--------------------------------
INTERNAL COORDINATES (ANGSTROEM)
--------------------------------
 C      0   0   0     0.000000000000     0.00000000     0.00000000
 C      1   0   0     1.510396921343     0.00000000     0.00000000
 C      2   1   0     1.534050945037   110.45378427     0.00000000
 H      2   1   3     1.095876917323   110.73076058   237.87034686
 H      2   1   3     1.100089871783   109.80902391   118.72873231
 C      1   2   3     1.479683303635   113.94058470   306.08551807
 C      6   1   2     1.512787951312   114.42731737    49.74122357
 C      3   2   1     1.529680351746   110.14630950    56.82220870
 H      7   6   1     1.095225159019   110.21539345   188.87351013
 H      7   6   1     1.100688672957   108.27364864    72.22502991
 H      8   3   2     1.098525616912   108.31630289    64.44097136
 H      8   3   2     1.096159654797   109.49957201   181.43198659
 O      3   2   1     1.437180292218   110.70637088   292.76431281
 H      3   2   1     1.097019146678   109.49522127   177.26156436
 C      1   2   3     1.354427645521   121.20132294   122.80895070
 C      6   1   2     1.337544148454   123.13008694   231.63099921
 H     16   6   1     1.086713631756   121.31432598   359.06834020
 H     16   6   1     1.087485400666   120.95801762   178.44998038
 C     15   1   2     1.444770647148   126.15686576   185.28515295
 H     15   1   2     1.089383587887   116.25185706     3.12512028
 C     19  15   1     1.349933125267   126.44861719   185.14517527
 H     19  15   1     1.087683233734   115.78581113     6.00589996
 C     21  19  15     1.507279522959   125.72143233     2.20610608
 C     23  21  19     1.540858889734   111.47755220   124.99931575
 H     23  21  19     1.093309743453   112.37513735     1.36504473
 H     23  21  19     1.101604052051   107.89012780   243.54388452
 C     24  23  21     1.534730989311   112.66818793    51.23998041
 H     24  23  21     1.097367080373   108.98259625   289.11073347
 H     24  23  21     1.096882993650   109.14335320   173.16014565
 C     27  24  23     1.534869891118   111.87647342   306.16743791
 H     27  24  23     1.094678707144   108.85993519   182.62210233
 H     27  24  23     1.100452251832   109.18340293    66.18317001
 C     21  19  15     1.498164219249   122.85135456   180.57877773
 H     33  21  19     1.105432446773   106.34406067   126.72379411
 C     33  21  19     1.525472782873   121.09924204     4.25744177
 H     13   3   2     0.967783594880   107.65247164    42.68991149
 C     35  33  21     1.548437938935   103.61404150   196.96944894
 H     35  33  21     1.094929027812   112.07689831    74.96370195
 H     35  33  21     1.095645168331   110.81775041   315.32703361
 C     30  27  24     1.554443506055   116.10960083   166.09950754
 H     37  35  33     1.094621383290   111.78188076   248.87492662
 H     37  35  33     1.096647498554   110.43889964   130.29513294
 H     40  30  27     1.102200764707   106.59720541   320.49336883
 C     40  30  27     1.548698248283   118.80917576    80.72814593
 C     30  27  24     1.534697854570   111.17317493   294.12380452
 H     45  30  27     1.094647802361   111.63996375   186.60691929
 H     45  30  27     1.094436162671   111.50704687    66.60084260
 H     45  30  27     1.095511300286   110.70735240   306.49707273
 H     44  40  30     1.102556558041   106.91003816    61.50629657
 C     44  40  30     1.527919757920   113.39287266   302.24025119
 C     44  40  30     1.509929505969   108.40460490   176.36584146
 C     51  44  40     1.333625741652   126.91011232   111.81756290
 H     51  44  40     1.091708114713   115.44780080   294.08072627
 H     52  51  44     1.091016359636   119.86394757     2.43935072
 C     52  51  44     1.503482170063   124.35523894   182.75180020
 C     55  52  51     1.534632084801   110.52589938   232.22006493
 C     55  52  51     1.554029702923   112.28331393   106.58730889
 H     55  52  51     1.100325141922   107.80111513   350.01880514
 H     57  55  52     1.101103430978   105.93181307   176.46120489
 C     57  55  52     1.530790452769   113.45241433    58.22852843
 C     57  55  52     1.529742209295   111.03471960   293.36205589
 H     56  55  52     1.095571745881   111.41863376   302.79009664
 H     56  55  52     1.096214446719   110.91292723   182.40125526
 H     56  55  52     1.095114753247   110.54293868    62.26917407
 H     60  57  55     1.094756578366   112.25737683    55.27502578
 H     60  57  55     1.096448701743   110.90664966   294.20010453
 H     60  57  55     1.095606753759   110.20615239   175.27607339
 H     61  57  55     1.096236192619   111.28350851   305.45169065
 H     61  57  55     1.095804479425   110.82902813   185.05526251
 H     61  57  55     1.096626539633   110.69105614    65.26899074
 H     50  44  40     1.091812432556   111.15515693    68.44606823
 H     50  44  40     1.096464878142   111.36366641   308.06917893
 H     50  44  40     1.095307958096   110.56753715   187.96655227

---------------------------
INTERNAL COORDINATES (A.U.)
---------------------------
 C      0   0   0     0.000000000000     0.00000000     0.00000000
 C      1   0   0     2.854236534856     0.00000000     0.00000000
 C      2   1   0     2.898936161603   110.45378427     0.00000000
 H      2   1   3     2.070907250227   110.73076058   237.87034686
 H      2   1   3     2.078868580370   109.80902391   118.72873231
 C      1   2   3     2.796196208805   113.94058470   306.08551807
 C      6   1   2     2.858754926675   114.42731737    49.74122357
 C      3   2   1     2.890676937239   110.14630950    56.82220870
 H      7   6   1     2.069675605526   110.21539345   188.87351013
 H      7   6   1     2.080000150597   108.27364864    72.22502991
 H      8   3   2     2.075912567061   108.31630289    64.44097136
 H      8   3   2     2.071441546620   109.49957201   181.43198659
 O      3   2   1     2.715877157362   110.70637088   292.76431281
 H      3   2   1     2.073065750889   109.49522127   177.26156436
 C      1   2   3     2.559497318247   121.20132294   122.80895070
 C      6   1   2     2.527592132607   123.13008694   231.63099921
 H     16   6   1     2.053591150018   121.31432598   359.06834020
 H     16   6   1     2.055049581897   120.95801762   178.44998038
 C     15   1   2     2.730220849438   126.15686576   185.28515295
 H     15   1   2     2.058636635895   116.25185706     3.12512028
 C     19  15   1     2.551003905863   126.44861719   185.14517527
 H     19  15   1     2.055423432214   115.78581113     6.00589996
 C     21  19  15     2.848345505661   125.72143233     2.20610608
 C     23  21  19     2.911801312615   111.47755220   124.99931575
 H     23  21  19     2.066055994673   112.37513735     1.36504473
 H     23  21  19     2.081729966395   107.89012780   243.54388452
 C     24  23  21     2.900221259040   112.66818793    51.23998041
 H     24  23  21     2.073723250286   108.98259625   289.11073347
 H     24  23  21     2.072808458954   109.14335320   173.16014565
 C     27  24  23     2.900483745414   111.87647342   306.16743791
 H     27  24  23     2.068642961137   108.85993519   182.62210233
 H     27  24  23     2.079553379419   109.18340293    66.18317001
 C     21  19  15     2.831120078021   122.85135456   180.57877773
 H     33  21  19     2.088964583951   106.34406067   126.72379411
 C     33  21  19     2.882725784380   121.09924204     4.25744177
 H     13   3   2     1.828845951226   107.65247164    42.68991149
 C     35  33  21     2.926123639961   103.61404150   196.96944894
 H     35  33  21     2.069115998645   112.07689831    74.96370195
 H     35  33  21     2.070469308099   110.81775041   315.32703361
 C     30  27  24     2.937472517096   116.10960083   166.09950754
 H     37  35  33     2.068534634751   111.78188076   248.87492662
 H     37  35  33     2.072363437718   110.43889964   130.29513294
 H     40  30  27     2.082857589896   106.59720541   320.49336883
 C     40  30  27     2.926615553339   118.80917576    80.72814593
 C     30  27  24     2.900158643453   111.17317493   294.12380452
 H     45  30  27     2.068584559561   111.63996375   186.60691929
 H     45  30  27     2.068184618508   111.50704687    66.60084260
 H     45  30  27     2.070216334157   110.70735240   306.49707273
 H     44  40  30     2.083529941857   106.91003816    61.50629657
 C     44  40  30     2.887349897076   113.39287266   302.24025119
 C     44  40  30     2.853353247808   108.40460490   176.36584146
 C     51  44  40     2.520187416870   126.91011232   111.81756290
 H     51  44  40     2.063029354988   115.44780080   294.08072627
 H     52  51  44     2.061722127339   119.86394757     2.43935072
 C     52  51  44     2.841169548652   124.35523894   182.75180020
 C     55  52  51     2.900034356603   110.52589938   232.22006493
 C     55  52  51     2.936690542504   112.28331393   106.58730889
 H     55  52  51     2.079313176501   107.80111513   350.01880514
 H     57  55  52     2.080783929670   105.93181307   176.46120489
 C     57  55  52     2.892774724154   113.45241433    58.22852843
 C     57  55  52     2.890793831068   111.03471960   293.36205589
 H     56  55  52     2.070330559778   111.41863376   302.79009664
 H     56  55  52     2.071545088347   110.91292723   182.40125526
 H     56  55  52     2.069466968854   110.54293868    62.26917407
 H     60  57  55     2.068790116421   112.25737683    55.27502578
 H     60  57  55     2.071987766188   110.90664966   294.20010453
 H     60  57  55     2.070396715079   110.20615239   175.27607339
 H     61  57  55     2.071586182142   111.28350851   305.45169065
 H     61  57  55     2.070770362437   110.82902813   185.05526251
 H     61  57  55     2.072323831095   110.69105614    65.26899074
 H     50  44  40     2.063226487142   111.15515693    68.44606823
 H     50  44  40     2.072018335152   111.36366641   308.06917893
 H     50  44  40     2.069832073106   110.56753715   187.96655227

---------------------
BASIS SET INFORMATION
---------------------
There are 3 groups of distinct atoms

 Group   1 Type C   : 7s4p contracted to 4s3p pattern {4111/211}
 Group   2 Type H   : 5s contracted to 3s pattern {311}
 Group   3 Type O   : 7s4p contracted to 4s3p pattern {4111/211}

Atom   0C    basis set group =>   1
Atom   1C    basis set group =>   1
Atom   2C    basis set group =>   1
Atom   3H    basis set group =>   2
Atom   4H    basis set group =>   2
Atom   5C    basis set group =>   1
Atom   6C    basis set group =>   1
Atom   7C    basis set group =>   1
Atom   8H    basis set group =>   2
Atom   9H    basis set group =>   2
Atom  10H    basis set group =>   2
Atom  11H    basis set group =>   2
Atom  12O    basis set group =>   3
Atom  13H    basis set group =>   2
Atom  14C    basis set group =>   1
Atom  15C    basis set group =>   1
Atom  16H    basis set group =>   2
Atom  17H    basis set group =>   2
Atom  18C    basis set group =>   1
Atom  19H    basis set group =>   2
Atom  20C    basis set group =>   1
Atom  21H    basis set group =>   2
Atom  22C    basis set group =>   1
Atom  23C    basis set group =>   1
Atom  24H    basis set group =>   2
Atom  25H    basis set group =>   2
Atom  26C    basis set group =>   1
Atom  27H    basis set group =>   2
Atom  28H    basis set group =>   2
Atom  29C    basis set group =>   1
Atom  30H    basis set group =>   2
Atom  31H    basis set group =>   2
Atom  32C    basis set group =>   1
Atom  33H    basis set group =>   2
Atom  34C    basis set group =>   1
Atom  35H    basis set group =>   2
Atom  36C    basis set group =>   1
Atom  37H    basis set group =>   2
Atom  38H    basis set group =>   2
Atom  39C    basis set group =>   1
Atom  40H    basis set group =>   2
Atom  41H    basis set group =>   2
Atom  42H    basis set group =>   2
Atom  43C    basis set group =>   1
Atom  44C    basis set group =>   1
Atom  45H    basis set group =>   2
Atom  46H    basis set group =>   2
Atom  47H    basis set group =>   2
Atom  48H    basis set group =>   2
Atom  49C    basis set group =>   1
Atom  50C    basis set group =>   1
Atom  51C    basis set group =>   1
Atom  52H    basis set group =>   2
Atom  53H    basis set group =>   2
Atom  54C    basis set group =>   1
Atom  55C    basis set group =>   1
Atom  56C    basis set group =>   1
Atom  57H    basis set group =>   2
Atom  58H    basis set group =>   2
Atom  59C    basis set group =>   1
Atom  60C    basis set group =>   1
Atom  61H    basis set group =>   2
Atom  62H    basis set group =>   2
Atom  63H    basis set group =>   2
Atom  64H    basis set group =>   2
Atom  65H    basis set group =>   2
Atom  66H    basis set group =>   2
Atom  67H    basis set group =>   2
Atom  68H    basis set group =>   2
Atom  69H    basis set group =>   2
Atom  70H    basis set group =>   2
Atom  71H    basis set group =>   2
Atom  72H    basis set group =>   2

-------------------------
BASIS SET IN INPUT FORMAT
-------------------------

 # Basis set for element : H 
 NewGTO H 
 S 3 
   1    1357.7500000000      0.0012928364
   2      54.3100000000      0.0588280685
   3       4.3448000000      0.9761499708
 S 1 
   1       0.6604910000      1.0000000000
 S 1 
   1       0.1366870000      1.0000000000
  end;

 # Basis set for element : C 
 NewGTO C 
 S 4 
   1  139534.0000000000      0.0001655246
   2    5581.3600000000      0.0074486101
   3     446.5090000000      0.1285821065
   4      67.4620000000      0.9218029311
 S 1 
   1      15.0674000000      1.0000000000
 S 1 
   1       3.9387600000      1.0000000000
 S 1 
   1       0.2999150000      1.0000000000
 P 2 
   1      28.3900000000      0.0816325586
   2       4.3676900000      0.9660360576
 P 1 
   1       0.8698170000      1.0000000000
 P 1 
   1       0.1889340000      1.0000000000
  end;

 # Basis set for element : O 
 NewGTO O 
 S 4 
   1  253789.0000000000      0.0001641076
   2   10151.6000000000      0.0074010921
   3     812.1250000000      0.1277711901
   4     122.6930000000      0.9223372164
 S 1 
   1      27.5608000000      1.0000000000
 S 1 
   1       7.3172600000      1.0000000000
 S 1 
   1       0.5792400000      1.0000000000
 P 2 
   1      53.4157000000      0.0793786106
   2       8.2177900000      0.9670506337
 P 1 
   1       1.6754400000      1.0000000000
 P 1 
   1       0.3506720000      1.0000000000
  end;

---------------------------------
AUXILIARY/J BASIS SET INFORMATION
---------------------------------
There are 3 groups of distinct atoms

 Group   1 Type C   : 12s5p4d2f1g contracted to 6s4p3d1f1g pattern {711111/2111/211/2/1}
 Group   2 Type H   : 5s2p1d contracted to 3s1p1d pattern {311/2/1}
 Group   3 Type O   : 12s5p4d2f1g contracted to 6s4p3d1f1g pattern {711111/2111/211/2/1}

Atom   0C    basis set group =>   1
Atom   1C    basis set group =>   1
Atom   2C    basis set group =>   1
Atom   3H    basis set group =>   2
Atom   4H    basis set group =>   2
Atom   5C    basis set group =>   1
Atom   6C    basis set group =>   1
Atom   7C    basis set group =>   1
Atom   8H    basis set group =>   2
Atom   9H    basis set group =>   2
Atom  10H    basis set group =>   2
Atom  11H    basis set group =>   2
Atom  12O    basis set group =>   3
Atom  13H    basis set group =>   2
Atom  14C    basis set group =>   1
Atom  15C    basis set group =>   1
Atom  16H    basis set group =>   2
Atom  17H    basis set group =>   2
Atom  18C    basis set group =>   1
Atom  19H    basis set group =>   2
Atom  20C    basis set group =>   1
Atom  21H    basis set group =>   2
Atom  22C    basis set group =>   1
Atom  23C    basis set group =>   1
Atom  24H    basis set group =>   2
Atom  25H    basis set group =>   2
Atom  26C    basis set group =>   1
Atom  27H    basis set group =>   2
Atom  28H    basis set group =>   2
Atom  29C    basis set group =>   1
Atom  30H    basis set group =>   2
Atom  31H    basis set group =>   2
Atom  32C    basis set group =>   1
Atom  33H    basis set group =>   2
Atom  34C    basis set group =>   1
Atom  35H    basis set group =>   2
Atom  36C    basis set group =>   1
Atom  37H    basis set group =>   2
Atom  38H    basis set group =>   2
Atom  39C    basis set group =>   1
Atom  40H    basis set group =>   2
Atom  41H    basis set group =>   2
Atom  42H    basis set group =>   2
Atom  43C    basis set group =>   1
Atom  44C    basis set group =>   1
Atom  45H    basis set group =>   2
Atom  46H    basis set group =>   2
Atom  47H    basis set group =>   2
Atom  48H    basis set group =>   2
Atom  49C    basis set group =>   1
Atom  50C    basis set group =>   1
Atom  51C    basis set group =>   1
Atom  52H    basis set group =>   2
Atom  53H    basis set group =>   2
Atom  54C    basis set group =>   1
Atom  55C    basis set group =>   1
Atom  56C    basis set group =>   1
Atom  57H    basis set group =>   2
Atom  58H    basis set group =>   2
Atom  59C    basis set group =>   1
Atom  60C    basis set group =>   1
Atom  61H    basis set group =>   2
Atom  62H    basis set group =>   2
Atom  63H    basis set group =>   2
Atom  64H    basis set group =>   2
Atom  65H    basis set group =>   2
Atom  66H    basis set group =>   2
Atom  67H    basis set group =>   2
Atom  68H    basis set group =>   2
Atom  69H    basis set group =>   2
Atom  70H    basis set group =>   2
Atom  71H    basis set group =>   2
Atom  72H    basis set group =>   2

-------------------------------------
AUXILIARY/J BASIS SET IN INPUT FORMAT
-------------------------------------

 # Auxiliary/J basis set for element : H 
 NewAuxJGTO H 
 S 3 
   1      15.6752927000      0.1007184237
   2       3.6063578000      0.3404257499
   3       1.2080016000      0.6491996172
 S 1 
   1       0.4726794000      1.0000000000
 S 1 
   1       0.2018100000      1.0000000000
 P 2 
   1       2.0281365000      0.5596620919
   2       0.5358730000      0.5596620919
 D 1 
   1       2.2165124000      1.0000000000
  end;

 # Auxiliary/J basis set for element : C 
 NewAuxJGTO C 
 S 7 
   1    1861.0916331000      0.0134602335
   2     642.9939764000      0.0299160374
   3     235.1105725000      0.1008649584
   4      90.7028894000      0.2370970548
   5      36.7794552000      0.3924037254
   6      15.6046273000      0.3195862154
   7       6.8907294000      0.0530104441
 S 1 
   1       3.1478850000     -1.0000000000
 S 1 
   1       1.4777287000      1.0000000000
 S 1 
   1       0.7076466000      1.0000000000
 S 1 
   1       0.3430122000      1.0000000000
 S 1 
   1       0.1669453000      1.0000000000
 P 2 
   1      13.5472892000     -0.6769313712
   2       5.4669419000     -0.3779500978
 P 1 
   1       2.1751721000      1.0000000000
 P 1 
   1       0.8582194000      1.0000000000
 P 1 
   1       0.3376720000      1.0000000000
 D 2 
   1       5.9287253000     -0.3533329857
   2       1.9809209000     -0.7456525731
 D 1 
   1       0.8055417000     -1.0000000000
 D 1 
   1       0.3531244000     -1.0000000000
 F 2 
   1       1.6755626000      0.6311076882
   2       0.5997536000      0.4968166032
 G 1 
   1       1.0024600000     -1.0000000000
  end;

 # Auxiliary/J basis set for element : O 
 NewAuxJGTO O 
 S 7 
   1    2876.8216605000      0.0168151159
   2    1004.7443032000      0.0340137548
   3     369.7579954000      0.1194951309
   4     142.9442404000      0.2664627624
   5      57.8366425000      0.4202764046
   6      24.3864983000      0.2765077335
   7      10.6622662000      0.0057008815
 S 1 
   1       4.8070437000     -1.0000000000
 S 1 
   1       2.2210770000      1.0000000000
 S 1 
   1       1.0447795000      1.0000000000
 S 1 
   1       0.4968425000      1.0000000000
 S 1 
   1       0.2371384000      1.0000000000
 P 2 
   1      64.2613382000     -0.2731534179
   2      16.3006076000     -0.8168011598
 P 1 
   1       4.3550542000      1.0000000000
 P 1 
   1       1.2019554000      1.0000000000
 P 1 
   1       0.3354196000      1.0000000000
 D 2 
   1       9.2146611000     -0.4661230638
   2       2.8435251000     -0.6600908911
 D 1 
   1       0.9955759000     -1.0000000000
 D 1 
   1       0.3649441000     -1.0000000000
 F 2 
   1       2.6420115000      0.5931563945
   2       0.7345613000      0.5931563945
 G 1 
   1       1.3931000000     -1.0000000000
  end;



           ************************************************************
           *        Program running with 4 parallel MPI-processes     *
           *              working on a common directory               *
           ************************************************************
------------------------------------------------------------------------------
                           ORCA GTO INTEGRAL CALCULATION
                           -- RI-GTO INTEGRALS CHOSEN --
------------------------------------------------------------------------------
------------------------------------------------------------------------------
                   ___                                                        
                  /   \      - P O W E R E D   B Y -                         
                 /     \                                                     
                 |  |  |   _    _      __       _____    __    __             
                 |  |  |  | |  | |    /  \     |  _  \  |  |  /  |          
                  \  \/   | |  | |   /    \    | | | |  |  | /  /          
                 / \  \   | |__| |  /  /\  \   | |_| |  |  |/  /          
                |  |  |   |  __  | /  /__\  \  |    /   |      \           
                |  |  |   | |  | | |   __   |  |    \   |  |\   \          
                \     /   | |  | | |  |  |  |  | |\  \  |  | \   \       
                 \___/    |_|  |_| |__|  |__|  |_| \__\ |__|  \__/        
                                                                              
                      - O R C A' S   B I G   F R I E N D -                    
                                      &                                       
                       - I N T E G R A L  F E E D E R -                       
                                                                              
 v1 FN, 2020, v2 2021                                                         
------------------------------------------------------------------------------


Reading SHARK input file inpJ.SHARKINP.tmp ... ok
----------------------
SHARK INTEGRAL PACKAGE
----------------------

Number of atoms                             ...     73
Number of basis functions                   ...    509
Number of shells                            ...    335
Maximum angular momentum                    ...      1
Integral batch strategy                     ... SHARK/LIBINT Hybrid
RI-J (if used) integral strategy            ... SPLIT-RIJ (Revised 2003 algorithm where possible)
Printlevel                                  ...      1
Contraction scheme used                     ... SEGMENTED contraction
Coulomb Range Separation                    ... NOT USED
Exchange Range Separation                   ... NOT USED
Finite Nucleus Model                        ... NOT USED
Auxiliary Coulomb fitting basis             ... AVAILABLE
   # of basis functions in Aux-J            ...   1905
   # of shells in Aux-J                     ...    655
   Maximum angular momentum in Aux-J        ...      4
Auxiliary J/K fitting basis                 ... NOT available
Auxiliary Correlation fitting basis         ... NOT available
Auxiliary 'external' fitting basis          ... NOT available
Integral threshold                          ...     3.000000e-11
Primitive cut-off                           ...     1.000000e-12
Primitive pair pre-selection threshold      ...     1.000000e-12

Calculating pre-screening integrals         ... done (  0.0 sec) Dimension = 335
Organizing shell pair data                  ... done (  0.1 sec)
Shell pair information
Total number of shell pairs                 ...     56280
Shell pairs after pre-screening             ...     22085
Total number of primitive shell pairs       ...    145865
Primitive shell pairs kept                  ...     37962
          la=0 lb=0:  11110 shell pairs
          la=1 lb=0:   9090 shell pairs
          la=1 lb=1:   1885 shell pairs

Calculating one electron integrals          ... done (  0.0 sec)
Calculating RI/J V-Matrix + Cholesky decomp.... done (  0.2 sec)
Calculating Nuclear repulsion               ... done (  0.0 sec) ENN=   2797.111549800635 Eh

SHARK setup successfully completed in   0.4 seconds

Maximum memory used throughout the entire GTOINT-calculation: 46.5 MB


           ************************************************************
           *        Program running with 4 parallel MPI-processes     *
           *              working on a common directory               *
           ************************************************************
-------------------------------------------------------------------------------
                                 ORCA SCF
-------------------------------------------------------------------------------

------------
SCF SETTINGS
------------
Hamiltonian:
 Density Functional     Method          .... DFT(GTOs)
 Exchange Functional    Exchange        .... PBE
   PBE kappa parameter   XKappa         ....  0.804000
   PBE mue parameter    XMuePBE         ....  0.219520
 Correlation Functional Correlation     .... PBE
   PBE beta parameter  CBetaPBE         ....  0.066725
 LDA part of GGA corr.  LDAOpt          .... PW91-LDA
 Gradients option       PostSCFGGA      .... off
 Hybrid DFT is turned on
   Fraction HF Exchange ScalHFX         ....  0.250000
   Scaling of DF-GGA-X  ScalDFX         ....  0.750000
   Scaling of DF-GGA-C  ScalDFC         ....  1.000000
   Scaling of DF-LDA-C  ScalLDAC        ....  1.000000
   Perturbative correction              ....  0.000000
   Density functional embedding theory  .... OFF
   NL short-range parameter             ....  6.900000
 RI-approximation to the Coulomb term is turned on
   Number of AuxJ basis functions       .... 1905
   RIJ-COSX (HFX calculated with COS-X)).... on


General Settings:
 Integral files         IntName         .... inpJ
 Hartree-Fock type      HFTyp           .... RHF
 Total Charge           Charge          ....    0
 Multiplicity           Mult            ....    1
 Number of Electrons    NEL             ....  220
 Basis Dimension        Dim             ....  509
 Nuclear Repulsion      ENuc            ....   2797.1115498006 Eh

Convergence Acceleration:
 DIIS                   CNVDIIS         .... on
   Start iteration      DIISMaxIt       ....    12
   Startup error        DIISStart       ....  0.200000
   # of expansion vecs  DIISMaxEq       ....     5
   Bias factor          DIISBfac        ....   1.050
   Max. coefficient     DIISMaxC        ....  10.000
 Trust-Rad. Augm. Hess. CNVTRAH         .... auto
   Auto Start mean grad. ratio tolernc. ....  1.125000
   Auto Start start iteration           ....    20
   Auto Start num. interpolation iter.  ....    10
   Max. Number of Micro iterations      ....    16
   Max. Number of Macro iterations      .... Maxiter - #DIIS iter
   Number of Davidson start vectors     ....     2
   Converg. threshold I  (grad. norm)   ....   1.000e-04
   Converg. threshold II (energy diff.) ....   1.000e-07
   Grad. Scal. Fac. for Micro threshold ....   0.100
   Minimum threshold for Micro iter.    ....   0.010
   NR start threshold (gradient norm)   ....   0.001
   Initial trust radius                 ....   0.400
   Minimum AH scaling param. (alpha)    ....   1.000
   Maximum AH scaling param. (alpha)    .... 1000.000
   Orbital update algorithm             .... Taylor
   White noise on init. David. guess    .... on
   Maximum white noise                  ....   0.010
   Quad. conv. algorithm                .... NR
 SOSCF                  CNVSOSCF        .... off
 Level Shifting         CNVShift        .... on
   Level shift para.    LevelShift      ....    0.2500
   Turn off err/grad.   ShiftErr        ....    0.0010
 Zerner damping         CNVZerner       .... off
 Static damping         CNVDamp         .... on
   Fraction old density DampFac         ....    0.7000
   Max. Damping (<1)    DampMax         ....    0.9800
   Min. Damping (>=0)   DampMin         ....    0.0000
   Turn off err/grad.   DampErr         ....    0.1000
 Fernandez-Rico         CNVRico         .... off

SCF Procedure:
 Maximum # iterations   MaxIter         ....   125
 SCF integral mode      SCFMode         .... Direct
   Integral package                     .... SHARK and LIBINT hybrid scheme
 Reset frequency        DirectResetFreq ....    20
 Integral Threshold     Thresh          ....  3.000e-11 Eh
 Primitive CutOff       TCut            ....  1.000e-12 Eh

Convergence Tolerance:
 Convergence Check Mode ConvCheckMode   .... Total+1el-Energy
 Convergence forced     ConvForced      .... 0
 Energy Change          TolE            ....  1.000e-07 Eh
 1-El. energy change                    ....  1.000e-04 Eh
 DIIS Error             TolErr          ....  1.000e-07


Diagonalization of the overlap matrix:
Smallest eigenvalue                        ... 7.566e-03
Time for diagonalization                   ...    0.037 sec
Threshold for overlap eigenvalues          ... 1.000e-08
Number of eigenvalues below threshold      ... 0
Time for construction of square roots      ...    0.031 sec
Total time needed                          ...    0.069 sec

Time for model grid setup =    0.711 sec

------------------------------
INITIAL GUESS: MODEL POTENTIAL
------------------------------
Loading Hartree-Fock densities                     ... done
Calculating cut-offs                               ... done
Initializing the effective Hamiltonian             ... done
Setting up the integral package (SHARK)            ... done
Starting the Coulomb interaction                   ... done (   0.3 sec)
Reading the grid                                   ... done
Mapping shells                                     ... done
Starting the XC term evaluation                    ... done (   0.1 sec)
  promolecular density results
     # of electrons  =    219.981278844
     EX              =   -164.431582716
     EC              =     -7.327398513
     EX+EC           =   -171.758981229
Transforming the Hamiltonian                       ... done (   0.0 sec)
Diagonalizing the Hamiltonian                      ... done (   0.0 sec)
Back transforming the eigenvectors                 ... done (   0.0 sec)
Now organizing SCF variables                       ... done
                      ------------------
                      INITIAL GUESS DONE (   1.2 sec)
                      ------------------
-------------------
DFT GRID GENERATION
-------------------

General Integration Accuracy     IntAcc      ... 4.388
Radial Grid Type                 RadialGrid  ... OptM3 with GC (2021)
Angular Grid (max. ang.)         AngularGrid ... 4 (Lebedev-302)
Angular grid pruning method      GridPruning ... 4 (adaptive)
Weight generation scheme         WeightScheme... Becke
Basis function cutoff            BFCut       ... 1.0000e-11
Integration weight cutoff        WCut        ... 1.0000e-14
Angular grids for H and He will be reduced by one unit
Partially contracted basis set               ... off
Rotationally invariant grid construction     ... off

Total number of grid points                  ...   309706
Total number of batches                      ...     4876
Average number of points per batch           ...       63
Average number of grid points per atom       ...     4243
Time for grid setup =    2.904 sec

--------------------
COSX GRID GENERATION
--------------------

GRIDX 1
-------
General Integration Accuracy     IntAcc      ... 3.816
Radial Grid Type                 RadialGrid  ... OptM3 with GC (2021)
Angular Grid (max. ang.)         AngularGrid ... 1 (Lebedev-50)
Angular grid pruning method      GridPruning ... 4 (adaptive)
Weight generation scheme         WeightScheme... Becke
Basis function cutoff            BFCut       ... 1.0000e-11
Integration weight cutoff        WCut        ... 1.0000e-14
Angular grids for H and He will be reduced by one unit
Partially contracted basis set               ... on
Rotationally invariant grid construction     ... off

Total number of grid points                  ...    39380
Total number of batches                      ...      656
Average number of points per batch           ...       60
Average number of grid points per atom       ...      539
UseSFitting                                  ... on

GRIDX 2
-------
General Integration Accuracy     IntAcc      ... 4.020
Radial Grid Type                 RadialGrid  ... OptM3 with GC (2021)
Angular Grid (max. ang.)         AngularGrid ... 2 (Lebedev-110)
Angular grid pruning method      GridPruning ... 4 (adaptive)
Weight generation scheme         WeightScheme... Becke
Basis function cutoff            BFCut       ... 1.0000e-11
Integration weight cutoff        WCut        ... 1.0000e-14
Angular grids for H and He will be reduced by one unit
Partially contracted basis set               ... on
Rotationally invariant grid construction     ... off

Total number of grid points                  ...    81287
Total number of batches                      ...     1307
Average number of points per batch           ...       62
Average number of grid points per atom       ...     1114
UseSFitting                                  ... on

GRIDX 3
-------
General Integration Accuracy     IntAcc      ... 4.338
Radial Grid Type                 RadialGrid  ... OptM3 with GC (2021)
Angular Grid (max. ang.)         AngularGrid ... 3 (Lebedev-194)
Angular grid pruning method      GridPruning ... 4 (adaptive)
Weight generation scheme         WeightScheme... Becke
Basis function cutoff            BFCut       ... 1.0000e-11
Integration weight cutoff        WCut        ... 1.0000e-14
Angular grids for H and He will be reduced by one unit
Partially contracted basis set               ... on
Rotationally invariant grid construction     ... off

Total number of grid points                  ...   175995
Total number of batches                      ...     2788
Average number of points per batch           ...       63
Average number of grid points per atom       ...     2411
UseSFitting                                  ... on

Time for X-Grid setup             =    3.133 sec


--------------------
CPCM SOLVATION MODEL
--------------------
CPCM parameters:
  Epsilon                                         ...       4.9000
  Refrac                                          ...       1.4500
  Rsolv                                           ...       1.3000
  Surface type                                    ... GAUSSIAN VDW
  Epsilon function type                           ...         CPCM
Radii:
 Radius for C  used is    3.8550 Bohr (=   2.0400 Ang.)
 Radius for H  used is    2.4944 Bohr (=   1.3200 Ang.)
 Radius for O  used is    3.4469 Bohr (=   1.8240 Ang.)
Calculating surface                               ...        done! (  0.0s)
GEPOL surface points                              ...         3629
GEPOL Volume                                      ...    3596.1780
GEPOL Surface-area                                ...    1781.0501
Calculating surface distance matrix               ...        done! (  0.1s)
Performing Cholesky decomposition & store         ...        done! (  0.5s)
Overall time for CPCM initialization              ...                 0.6s
--------------
SCF ITERATIONS
--------------
ITER       Energy         Delta-E        Max-DP      RMS-DP      [F,P]     Damp
               ***  Starting incremental Fock matrix formation  ***

  HOMO= 109 E= -3.986 eV LUMO=  7.694 eV gap=  11.680 eV
  0  -1165.0103150355   0.000000000000 0.09736062  0.00106588  0.1960737 0.7000

  HOMO= 109 E= -4.852 eV LUMO=  7.011 eV gap=  11.862 eV
  1  -1165.2297753868  -0.219460351299 0.06532604  0.00078424  0.0956377 0.7000
                               ***Turning on DIIS***

  HOMO= 109 E= -5.449 eV LUMO=  6.463 eV gap=  11.912 eV
  2  -1165.3307914697  -0.101016082857 0.10346265  0.00138707  0.0375554 0.0000

  HOMO= 109 E= -6.006 eV LUMO=  5.934 eV gap=  11.940 eV
  3  -1165.4753560929  -0.144564623211 0.05141986  0.00057375  0.0460091 0.0000

  HOMO= 109 E= -6.075 eV LUMO=  5.864 eV gap=  11.939 eV
  4  -1165.5110179738  -0.035661880933 0.01230025  0.00013452  0.0061855 0.0000

  HOMO= 109 E= -6.025 eV LUMO=  5.921 eV gap=  11.946 eV
  5  -1165.5118731515  -0.000855177720 0.00288241  0.00003825  0.0050986 0.0000

  HOMO= 109 E= -6.011 eV LUMO=  5.936 eV gap=  11.946 eV
  6  -1165.5119545757  -0.000081424130 0.00118381  0.00001174  0.0010019 0.0000

  HOMO= 109 E= -6.012 eV LUMO= -0.869 eV gap=   5.144 eV
  7  -1165.5119596215  -0.000005045842 0.00050452  0.00000602  0.0002309 0.0000
               *** Restarting incremental Fock matrix formation ***
                                   *** Resetting DIIS ***

  HOMO= 109 E= -6.012 eV LUMO= -0.867 eV gap=   5.145 eV
  8  -1165.5120375305  -0.000077908975 0.00038474  0.00000297  0.0001300 0.0000

  HOMO= 109 E= -6.012 eV LUMO= -0.867 eV gap=   5.145 eV
  9  -1165.5120375659  -0.000000035446 0.00014735  0.00000135  0.0001735 0.0000

  HOMO= 109 E= -6.012 eV LUMO= -0.868 eV gap=   5.145 eV
 10  -1165.5120377068  -0.000000140816 0.00006949  0.00000043  0.0000368 0.0000

  HOMO= 109 E= -6.012 eV LUMO= -0.868 eV gap=   5.145 eV
 11  -1165.5120377462  -0.000000039424 0.00002817  0.00000019  0.0000215 0.0000

  HOMO= 109 E= -6.012 eV LUMO= -0.868 eV gap=   5.145 eV
 12  -1165.5120377361   0.000000010067 0.00000792  0.00000005  0.0000039 0.0000
                 **** Energy Check signals convergence ****

               *****************************************************
               *                     SUCCESS                       *
               *           SCF CONVERGED AFTER  13 CYCLES          *
               *****************************************************

Old exchange energy                            =    -42.067869674 Eh
New exchange energy                            =    -42.067873992 Eh
Exchange energy change after final integration =     -0.000004318 Eh
Total energy after final integration           =  -1165.512042061 Eh
Final COS-X integration done in                =    14.267 sec

----------------
TOTAL SCF ENERGY
----------------

Total Energy       :        -1165.51204206 Eh          -31715.19503 eV

Components:
Nuclear Repulsion  :         2797.11154980 Eh           76113.27479 eV
Electronic Energy  :        -3962.62359186 Eh         -107828.46983 eV
One Electron Energy:        -7135.89104617 Eh         -194177.46716 eV
Two Electron Energy:         3173.26745431 Eh           86348.99733 eV
Max COSX asymmetry :            0.00000197 Eh               0.00005 eV
CPCM Dielectric    :           -0.01339546 Eh              -0.36451 eV

Virial components:
Potential Energy   :        -2322.40987103 Eh          -63195.98541 eV
Kinetic Energy     :         1156.89782897 Eh           31480.79038 eV
Virial Ratio       :            2.00744596


DFT components:
N(Alpha)           :      110.000354010665 electrons
N(Beta)            :      110.000354010665 electrons
N(Total)           :      220.000708021331 electrons
E(X)               :     -125.746037319145 Eh       
E(C)               :       -7.328131918929 Eh       
E(XC)              :     -133.074169238074 Eh       
DFET-embed. en.    :        0.000000000000 Eh       
CPCM Solvation Model Properties:
Surface-charge          :           -0.03423776
Charge-correction       :           -0.00007417 Eh              -0.00202 eV
Free-energy (cav+disp)  :  This term is not implemented in the current solvation scheme

---------------
SCF CONVERGENCE
---------------

  Last Energy change         ...   -6.9501e-09  Tolerance :   1.0000e-07
  Last MAX-Density change    ...    0.0000e+00  Tolerance :   1.0000e-05
  Last RMS-Density change    ...    0.0000e+00  Tolerance :   1.0000e-06
  Last DIIS Error            ...    2.5210e-06  Tolerance :   1.0000e-07

             **** THE GBW FILE WAS UPDATED (inpJ.gbw) ****
             **** DENSITY inpJ.scfp WAS UPDATED ****
             **** ENERGY FILE WAS UPDATED (inpJ.en.tmp) ****
             **** THE GBW FILE WAS UPDATED (inpJ.gbw) ****
             **** DENSITY inpJ.scfp WAS UPDATED ****
----------------
ORBITAL ENERGIES
----------------

  NO   OCC          E(Eh)            E(eV) 
   0   2.0000     -19.212490      -522.7984 
   1   2.0000     -10.300493      -280.2907 
   2   2.0000     -10.270528      -279.4753 
   3   2.0000     -10.268382      -279.4169 
   4   2.0000     -10.263971      -279.2968 
   5   2.0000     -10.257611      -279.1238 
   6   2.0000     -10.257541      -279.1219 
   7   2.0000     -10.252331      -278.9801 
   8   2.0000     -10.248614      -278.8790 
   9   2.0000     -10.248220      -278.8682 
  10   2.0000     -10.248039      -278.8633 
  11   2.0000     -10.247614      -278.8518 
  12   2.0000     -10.247375      -278.8453 
  13   2.0000     -10.246773      -278.8289 
  14   2.0000     -10.244798      -278.7751 
  15   2.0000     -10.243818      -278.7485 
  16   2.0000     -10.242957      -278.7250 
  17   2.0000     -10.241808      -278.6938 
  18   2.0000     -10.241491      -278.6851 
  19   2.0000     -10.241089      -278.6742 
  20   2.0000     -10.240191      -278.6498 
  21   2.0000     -10.235848      -278.5316 
  22   2.0000     -10.235463      -278.5211 
  23   2.0000     -10.234295      -278.4893 
  24   2.0000     -10.226135      -278.2673 
  25   2.0000     -10.224531      -278.2236 
  26   2.0000     -10.223533      -278.1965 
  27   2.0000     -10.222181      -278.1597 
  28   2.0000     -10.221462      -278.1401 
  29   2.0000      -1.043253       -28.3884 
  30   2.0000      -0.902176       -24.5495 
  31   2.0000      -0.882264       -24.0076 
  32   2.0000      -0.859851       -23.3977 
  33   2.0000      -0.846263       -23.0280 
  34   2.0000      -0.822521       -22.3819 
  35   2.0000      -0.814817       -22.1723 
  36   2.0000      -0.796011       -21.6606 
  37   2.0000      -0.795143       -21.6369 
  38   2.0000      -0.775361       -21.0986 
  39   2.0000      -0.759049       -20.6548 
  40   2.0000      -0.742449       -20.2031 
  41   2.0000      -0.734562       -19.9884 
  42   2.0000      -0.715861       -19.4796 
  43   2.0000      -0.703070       -19.1315 
  44   2.0000      -0.701666       -19.0933 
  45   2.0000      -0.696459       -18.9516 
  46   2.0000      -0.671121       -18.2621 
  47   2.0000      -0.658869       -17.9287 
  48   2.0000      -0.634436       -17.2639 
  49   2.0000      -0.622558       -16.9407 
  50   2.0000      -0.614040       -16.7089 
  51   2.0000      -0.607713       -16.5367 
  52   2.0000      -0.597863       -16.2687 
  53   2.0000      -0.579549       -15.7703 
  54   2.0000      -0.558176       -15.1887 
  55   2.0000      -0.546242       -14.8640 
  56   2.0000      -0.540862       -14.7176 
  57   2.0000      -0.529607       -14.4113 
  58   2.0000      -0.515331       -14.0229 
  59   2.0000      -0.509560       -13.8658 
  60   2.0000      -0.499323       -13.5873 
  61   2.0000      -0.488152       -13.2833 
  62   2.0000      -0.484038       -13.1713 
  63   2.0000      -0.481185       -13.0937 
  64   2.0000      -0.474452       -12.9105 
  65   2.0000      -0.466258       -12.6875 
  66   2.0000      -0.462752       -12.5921 
  67   2.0000      -0.461412       -12.5557 
  68   2.0000      -0.459571       -12.5056 
  69   2.0000      -0.458131       -12.4664 
  70   2.0000      -0.450666       -12.2633 
  71   2.0000      -0.442780       -12.0486 
  72   2.0000      -0.435531       -11.8514 
  73   2.0000      -0.432596       -11.7715 
  74   2.0000      -0.431337       -11.7373 
  75   2.0000      -0.426535       -11.6066 
  76   2.0000      -0.419808       -11.4236 
  77   2.0000      -0.413545       -11.2531 
  78   2.0000      -0.413072       -11.2403 
  79   2.0000      -0.402697       -10.9579 
  80   2.0000      -0.399331       -10.8664 
  81   2.0000      -0.398011       -10.8304 
  82   2.0000      -0.394640       -10.7387 
  83   2.0000      -0.388937       -10.5835 
  84   2.0000      -0.381366       -10.3775 
  85   2.0000      -0.379436       -10.3250 
  86   2.0000      -0.376918       -10.2565 
  87   2.0000      -0.374334       -10.1861 
  88   2.0000      -0.368167       -10.0183 
  89   2.0000      -0.363625        -9.8948 
  90   2.0000      -0.361671        -9.8416 
  91   2.0000      -0.358361        -9.7515 
  92   2.0000      -0.353073        -9.6076 
  93   2.0000      -0.346019        -9.4157 
  94   2.0000      -0.341833        -9.3018 
  95   2.0000      -0.339359        -9.2344 
  96   2.0000      -0.338090        -9.1999 
  97   2.0000      -0.334579        -9.1044 
  98   2.0000      -0.331769        -9.0279 
  99   2.0000      -0.329693        -8.9714 
 100   2.0000      -0.325780        -8.8649 
 101   2.0000      -0.322689        -8.7808 
 102   2.0000      -0.320208        -8.7133 
 103   2.0000      -0.319333        -8.6895 
 104   2.0000      -0.311465        -8.4754 
 105   2.0000      -0.301658        -8.2085 
 106   2.0000      -0.276768        -7.5312 
 107   2.0000      -0.275178        -7.4880 
 108   2.0000      -0.255996        -6.9660 
 109   2.0000      -0.220947        -6.0123 
 110   0.0000      -0.031881        -0.8675 
 111   0.0000       0.019248         0.5238 
 112   0.0000       0.027740         0.7548 
 113   0.0000       0.080259         2.1840 
 114   0.0000       0.088863         2.4181 
 115   0.0000       0.095374         2.5952 
 116   0.0000       0.102068         2.7774 
 117   0.0000       0.105053         2.8587 
 118   0.0000       0.108757         2.9594 
 119   0.0000       0.115225         3.1354 
 120   0.0000       0.117391         3.1944 
 121   0.0000       0.120102         3.2681 
 122   0.0000       0.122939         3.3453 
 123   0.0000       0.131090         3.5671 
 124   0.0000       0.132769         3.6128 
 125   0.0000       0.138535         3.7697 
 126   0.0000       0.140074         3.8116 
 127   0.0000       0.141731         3.8567 
 128   0.0000       0.147809         4.0221 
 129   0.0000       0.149929         4.0798 
 130   0.0000       0.153369         4.1734 
 131   0.0000       0.156406         4.2560 
 132   0.0000       0.160478         4.3668 
 133   0.0000       0.164183         4.4676 
 134   0.0000       0.167284         4.5520 
 135   0.0000       0.169512         4.6127 
 136   0.0000       0.172911         4.7052 
 137   0.0000       0.174429         4.7465 
 138   0.0000       0.177466         4.8291 
 139   0.0000       0.179999         4.8980 
 140   0.0000       0.182540         4.9672 
 141   0.0000       0.184372         5.0170 
 142   0.0000       0.187942         5.1142 
 143   0.0000       0.191466         5.2101 
 144   0.0000       0.195458         5.3187 
 145   0.0000       0.200324         5.4511 
 146   0.0000       0.202184         5.5017 
 147   0.0000       0.204657         5.5690 
 148   0.0000       0.206547         5.6204 
 149   0.0000       0.210501         5.7280 
 150   0.0000       0.217739         5.9250 
 151   0.0000       0.219362         5.9691 
 152   0.0000       0.225454         6.1349 
 153   0.0000       0.227236         6.1834 
 154   0.0000       0.231927         6.3111 
 155   0.0000       0.235206         6.4003 
 156   0.0000       0.240772         6.5517 
 157   0.0000       0.246298         6.7021 
 158   0.0000       0.248534         6.7629 
 159   0.0000       0.250165         6.8073 
 160   0.0000       0.251718         6.8496 
 161   0.0000       0.260050         7.0763 
 162   0.0000       0.261972         7.1286 
 163   0.0000       0.263163         7.1610 
 164   0.0000       0.269125         7.3233 
 165   0.0000       0.272933         7.4269 
 166   0.0000       0.276692         7.5292 
 167   0.0000       0.280363         7.6291 
 168   0.0000       0.283620         7.7177 
 169   0.0000       0.288471         7.8497 
 170   0.0000       0.297009         8.0820 
 171   0.0000       0.298863         8.1325 
 172   0.0000       0.304572         8.2878 
 173   0.0000       0.306991         8.3537 
 174   0.0000       0.309114         8.4114 
 175   0.0000       0.318956         8.6792 
 176   0.0000       0.320622         8.7246 
 177   0.0000       0.335813         9.1379 
 178   0.0000       0.349069         9.4987 
 179   0.0000       0.357931         9.7398 
 180   0.0000       0.363967         9.9040 
 181   0.0000       0.379201        10.3186 
 182   0.0000       0.381315        10.3761 
 183   0.0000       0.411240        11.1904 
 184   0.0000       0.421491        11.4693 
 185   0.0000       0.460377        12.5275 
 186   0.0000       0.465151        12.6574 
 187   0.0000       0.487615        13.2687 
 188   0.0000       0.505073        13.7437 
 189   0.0000       0.516369        14.0511 
 190   0.0000       0.520304        14.1582 
 191   0.0000       0.531993        14.4763 
 192   0.0000       0.548195        14.9171 
 193   0.0000       0.559633        15.2284 
 194   0.0000       0.568925        15.4812 
 195   0.0000       0.571277        15.5452 
 196   0.0000       0.578684        15.7468 
 197   0.0000       0.579799        15.7771 
 198   0.0000       0.585719        15.9382 
 199   0.0000       0.598292        16.2804 
 200   0.0000       0.608353        16.5541 
 201   0.0000       0.618360        16.8264 
 202   0.0000       0.628429        17.1004 
 203   0.0000       0.629994        17.1430 
 204   0.0000       0.643376        17.5071 
 205   0.0000       0.648204        17.6385 
 206   0.0000       0.659647        17.9499 
 207   0.0000       0.661856        18.0100 
 208   0.0000       0.668607        18.1937 
 209   0.0000       0.670973        18.2581 
 210   0.0000       0.678665        18.4674 
 211   0.0000       0.687530        18.7087 
 212   0.0000       0.689702        18.7677 
 213   0.0000       0.700572        19.0635 
 214   0.0000       0.706989        19.2381 
 215   0.0000       0.711042        19.3484 
 216   0.0000       0.711559        19.3625 
 217   0.0000       0.714899        19.4534 
 218   0.0000       0.720523        19.6064 
 219   0.0000       0.726819        19.7777 
 220   0.0000       0.729226        19.8432 
 221   0.0000       0.732725        19.9385 
 222   0.0000       0.738710        20.1013 
 223   0.0000       0.742667        20.2090 
 224   0.0000       0.749057        20.3829 
 225   0.0000       0.751739        20.4559 
 226   0.0000       0.757643        20.6165 
 227   0.0000       0.762487        20.7483 
 228   0.0000       0.762935        20.7605 
 229   0.0000       0.769242        20.9321 
 230   0.0000       0.775358        21.0986 
 231   0.0000       0.776478        21.1290 
 232   0.0000       0.780070        21.2268 
 233   0.0000       0.786433        21.3999 
 234   0.0000       0.790954        21.5229 
 235   0.0000       0.794383        21.6162 
 236   0.0000       0.797436        21.6993 
 237   0.0000       0.808372        21.9969 
 238   0.0000       0.809774        22.0351 
 239   0.0000       0.819196        22.2914 
 240   0.0000       0.823418        22.4064 
 241   0.0000       0.824304        22.4305 
 242   0.0000       0.834570        22.7098 
 243   0.0000       0.847896        23.0724 
 244   0.0000       0.852421        23.1956 
 245   0.0000       0.855849        23.2888 
 246   0.0000       0.859660        23.3925 
 247   0.0000       0.862380        23.4665 
 248   0.0000       0.866456        23.5775 
 249   0.0000       0.868376        23.6297 
 250   0.0000       0.871599        23.7174 
 251   0.0000       0.875072        23.8119 
 252   0.0000       0.875644        23.8275 
 253   0.0000       0.877668        23.8826 
 254   0.0000       0.881125        23.9766 
 255   0.0000       0.881480        23.9863 
 256   0.0000       0.885143        24.0860 
 257   0.0000       0.888727        24.1835 
 258   0.0000       0.890552        24.2332 
 259   0.0000       0.896477        24.3944 
 260   0.0000       0.901045        24.5187 
 261   0.0000       0.901148        24.5215 
 262   0.0000       0.904662        24.6171 
 263   0.0000       0.909593        24.7513 
 264   0.0000       0.912036        24.8178 
 265   0.0000       0.917612        24.9695 
 266   0.0000       0.920314        25.0430 
 267   0.0000       0.928766        25.2730 
 268   0.0000       0.932932        25.3864 
 269   0.0000       0.934120        25.4187 
 270   0.0000       0.939664        25.5696 
 271   0.0000       0.945259        25.7218 
 272   0.0000       0.946657        25.7599 
 273   0.0000       0.951743        25.8982 
 274   0.0000       0.960395        26.1337 
 275   0.0000       0.964978        26.2584 
 276   0.0000       0.966351        26.2957 
 277   0.0000       0.970885        26.4191 
 278   0.0000       0.979545        26.6548 
 279   0.0000       0.984948        26.8018 
 280   0.0000       0.989456        26.9245 
 281   0.0000       1.002686        27.2845 
 282   0.0000       1.004363        27.3301 
 283   0.0000       1.012961        27.5641 
 284   0.0000       1.019916        27.7533 
 285   0.0000       1.025508        27.9055 
 286   0.0000       1.034218        28.1425 
 287   0.0000       1.051857        28.6225 
 288   0.0000       1.058265        28.7969 
 289   0.0000       1.067315        29.0431 
 290   0.0000       1.071522        29.1576 
 291   0.0000       1.074431        29.2368 
 292   0.0000       1.084358        29.5069 
 293   0.0000       1.094562        29.7846 
 294   0.0000       1.101104        29.9626 
 295   0.0000       1.117919        30.4201 
 296   0.0000       1.124957        30.6116 
 297   0.0000       1.129709        30.7409 
 298   0.0000       1.139145        30.9977 
 299   0.0000       1.147957        31.2375 
 300   0.0000       1.158727        31.5306 
 301   0.0000       1.161760        31.6131 
 302   0.0000       1.174636        31.9635 
 303   0.0000       1.204482        32.7756 
 304   0.0000       1.232988        33.5513 
 305   0.0000       1.240782        33.7634 
 306   0.0000       1.247319        33.9413 
 307   0.0000       1.257178        34.2095 
 308   0.0000       1.283940        34.9378 
 309   0.0000       1.306168        35.5426 
 310   0.0000       1.331129        36.2219 
 311   0.0000       1.338969        36.4352 
 312   0.0000       1.357394        36.9366 
 313   0.0000       1.369998        37.2795 
 314   0.0000       1.410659        38.3860 
 315   0.0000       1.525556        41.5125 
 316   0.0000       1.528382        41.5894 
 317   0.0000       1.561986        42.5038 
 318   0.0000       1.591475        43.3062 
 319   0.0000       1.675223        45.5851 
 320   0.0000       6.202077       168.7671 
 321   0.0000       6.232077       169.5834 
 322   0.0000       6.258566       170.3042 
 323   0.0000       6.270792       170.6369 
 324   0.0000       6.283629       170.9862 
 325   0.0000       6.288778       171.1263 
 326   0.0000       6.299773       171.4255 
 327   0.0000       6.304162       171.5450 
 328   0.0000       6.316939       171.8926 
 329   0.0000       6.338040       172.4668 
 330   0.0000       6.342913       172.5994 
 331   0.0000       6.350597       172.8085 
 332   0.0000       6.362466       173.1315 
 333   0.0000       6.370724       173.3562 
 334   0.0000       6.387293       173.8071 
 335   0.0000       6.394885       174.0137 
 336   0.0000       6.407020       174.3439 
 337   0.0000       6.413951       174.5325 
 338   0.0000       6.417392       174.6261 
 339   0.0000       6.422252       174.7584 
 340   0.0000       6.431687       175.0151 
 341   0.0000       6.443116       175.3261 
 342   0.0000       6.450709       175.5327 
 343   0.0000       6.455988       175.6764 
 344   0.0000       6.468183       176.0082 
 345   0.0000       6.482497       176.3977 
 346   0.0000       6.485820       176.4881 
 347   0.0000       6.504574       176.9985 
 348   0.0000       6.508190       177.0968 
 349   0.0000       6.513712       177.2471 
 350   0.0000       6.523234       177.5062 
 351   0.0000       6.526321       177.5902 
 352   0.0000       6.537067       177.8826 
 353   0.0000       6.541300       177.9978 
 354   0.0000       6.545831       178.1211 
 355   0.0000       6.550072       178.2365 
 356   0.0000       6.560320       178.5154 
 357   0.0000       6.566934       178.6954 
 358   0.0000       6.572606       178.8497 
 359   0.0000       6.575155       178.9191 
 360   0.0000       6.580652       179.0686 
 361   0.0000       6.585570       179.2025 
 362   0.0000       6.589641       179.3132 
 363   0.0000       6.594789       179.4533 
 364   0.0000       6.602812       179.6716 
 365   0.0000       6.608742       179.8330 
 366   0.0000       6.610300       179.8754 
 367   0.0000       6.614984       180.0029 
 368   0.0000       6.616580       180.0463 
 369   0.0000       6.623298       180.2291 
 370   0.0000       6.627275       180.3373 
 371   0.0000       6.629034       180.3852 
 372   0.0000       6.633031       180.4939 
 373   0.0000       6.634692       180.5391 
 374   0.0000       6.637512       180.6159 
[...]
     69 H        0.000      0.000      0.000      0.000     -0.000      0.000
     70 H        0.000      0.000      0.000     -0.000      0.001      0.020
     71 H        0.000      0.000      0.000      0.000      0.001      0.011
     72 H        0.000      0.000      0.000      0.000      0.002      0.035
                 25 H       27 H       28 H       30 H       31 H       33 H  
      3 H        0.074     -0.003      0.002      0.000      0.000      0.089
      4 H        2.306     -0.109      0.068      0.000      0.000      2.575
      8 H        0.120      0.000      0.000      0.000      0.000      0.111
      9 H       -0.260      0.014      0.000      0.000      0.000     -0.309
     10 H        0.000      0.000      0.000      0.000      0.000      0.000
     11 H        0.000      0.000      0.000      0.000      0.000      0.000
     13 H       -0.038      0.000      0.000      0.000      0.000      0.000
     16 H       -0.262      0.014     -0.005     -0.031     -0.002     -0.306
     17 H       -0.243      0.013      0.000      0.000      0.000     -0.301
     19 H        0.920     -0.045      0.075      0.063      0.005      0.977
     21 H       -2.839      0.191      0.670     -0.227     -0.027     -2.409
     24 H      -13.422      4.305      2.363      0.655     -0.495     -0.136
     25 H        0.000     12.991      5.188     -0.629     -0.356     -2.165
     27 H       12.991      0.000    -13.577      3.989     13.001      0.063
     28 H        5.188    -13.577      0.000      2.646      4.112      0.287
     30 H       -0.629      3.989      2.646      0.000    -13.007      0.034
     31 H       -0.356     13.001      4.112    -13.007      0.000     -0.322
     33 H       -2.165      0.063      0.287      0.034     -0.322      0.000
     35 H       -0.026      0.001     -0.001      0.000     -0.000     -0.034
     37 H        0.277      0.004     -0.036      0.512     -0.036      6.529
     38 H        0.168      0.001     -0.028     -0.013      0.127     12.202
     40 H       -0.013      0.018      0.150     -0.002     -0.032     -0.248
     41 H        0.009      0.023     -0.025      0.014      0.078     -0.438
     42 H       -0.018      0.015     -0.018     -0.257     -0.369     -0.215
     45 H       -0.060     -0.123     -0.146     -0.155      1.825     -0.474
     46 H       -0.016     -0.219      0.007     -0.208     -0.484     -0.203
     47 H        0.013      0.048      0.066     -0.341      0.023      0.890
     48 H       -0.017      0.028      0.024      0.038      0.006     -0.020
     52 H        0.001      0.000      0.003     -0.014     -0.001      0.003
     53 H       -0.001      0.000     -0.000     -0.002     -0.003     -0.007
     57 H        0.000      0.000      0.000      0.001      0.000      0.001
     58 H        0.000      0.000      0.000      0.000      0.002      0.001
     61 H        0.000      0.000      0.000     -0.000     -0.000      0.000
     62 H        0.000      0.000      0.000      0.000      0.000      0.000
     63 H        0.000      0.000      0.000     -0.000     -0.000      0.000
     64 H        0.000      0.000      0.000      0.000      0.000      0.000
     65 H       -0.000      0.000     -0.000     -0.000      0.000     -0.000
     66 H        0.000      0.000      0.000     -0.000      0.000      0.000
     67 H        0.000      0.000      0.000      0.000      0.000     -0.000
     68 H        0.000      0.000      0.000      0.000      0.000     -0.000
     69 H       -0.000     -0.000     -0.000      0.000      0.000     -0.000
     70 H        0.004     -0.008     -0.008     -0.461     -0.091      0.004
     71 H        0.000     -0.003     -0.004      0.065      0.007     -0.001
     72 H        0.000     -0.010     -0.011      0.083     -0.048      0.004
                 35 H       37 H       38 H       40 H       41 H       42 H  
      3 H       -0.268     -0.001     -0.001      0.000      0.000      0.000
      4 H       -0.645     -0.045     -0.016      0.000      0.000      0.000
      8 H       -0.029     -0.002     -0.002      0.000     -0.000      0.000
      9 H       -0.149      0.005      0.002      0.000      0.001      0.000
     10 H       -0.400     -0.000     -0.000      0.000      0.000      0.000
     11 H       -0.143     -0.002     -0.000      0.000      0.000      0.000
     13 H       12.494      0.000      0.000      0.000      0.000      0.000
     16 H       -0.003      0.004      0.004      0.000      0.001     -0.001
     17 H       -0.002      0.005      0.004     -0.000      0.001      0.000
     19 H        0.044     -0.018      0.081      0.012     -0.004      0.003
     21 H       -0.015      0.060     -0.573     -0.010      0.060     -0.023
     24 H       -0.001     -0.056     -0.080     -0.020      0.066     -0.024
     25 H       -0.026      0.277      0.168     -0.013      0.009     -0.018
     27 H        0.001      0.004      0.001      0.018      0.023      0.015
     28 H       -0.001     -0.036     -0.028      0.150     -0.025     -0.018
     30 H        0.000      0.512     -0.013     -0.002      0.014     -0.257
     31 H       -0.000     -0.036      0.127     -0.032      0.078     -0.369
     33 H       -0.034      6.529     12.202     -0.248     -0.438     -0.215
     35 H        0.000      0.000     -0.000      0.000      0.000      0.000
     37 H        0.000      0.000    -12.260      9.540      2.646     -0.261
     38 H       -0.000    -12.260      0.000      6.553     11.588     -0.482
     40 H        0.000      9.540      6.553      0.000    -13.366      9.309
     41 H        0.000      2.646     11.588    -13.366      0.000      8.875
     42 H        0.000     -0.261     -0.482      9.309      8.875      0.000
     45 H       -0.000      0.069     -0.058     -0.113     -0.071     -0.079
     46 H        0.000      0.059      0.034     -0.082      0.005      1.129
     47 H        0.000     -0.176      0.013      0.055      0.041     -0.412
     48 H        0.000      0.109     -0.006     -0.196     -0.415     10.431
     52 H        0.000     -0.017     -0.015      0.240     -0.181     -0.173
     53 H        0.000     -0.004     -0.006     -0.027      0.100      0.115
     57 H        0.000     -0.000      0.000      0.005     -0.003     -0.012
     58 H        0.000      0.001      0.000      0.004      0.001      0.004
     61 H        0.000      0.000      0.000     -0.002      0.000      0.002
     62 H        0.000      0.000      0.000      0.007     -0.001     -0.013
     63 H        0.000      0.000      0.000     -0.001     -0.000      0.003
     64 H        0.000      0.000      0.000     -0.000      0.000     -0.002
     65 H        0.000      0.000     -0.000     -0.001      0.000     -0.000
     66 H        0.000      0.000      0.000     -0.001      0.000      0.001
     67 H        0.000      0.000      0.001     -0.003     -0.002     -0.003
     68 H        0.000      0.001      0.003     -0.006     -0.005     -0.003
     69 H        0.000      0.002      0.004     -0.039     -0.013     -0.030
     70 H        0.000     -0.007      0.000      0.084      0.031     -0.203
     71 H        0.000     -0.021      0.038      0.020     -0.046     -0.359
     72 H        0.000      0.065      0.015     -0.050      0.003     -0.442
                 45 H       46 H       47 H       48 H       52 H       53 H  
      3 H        0.001     -0.000     -0.001      0.000      0.000      0.000
      4 H        0.026     -0.018      0.000      0.000      0.000      0.000
      8 H        0.001     -0.001      0.000      0.000      0.000      0.000
      9 H       -0.003      0.002      0.000      0.000      0.000      0.000
     10 H        0.000     -0.000      0.000      0.000      0.000      0.000
     11 H        0.000      0.000      0.000      0.000      0.000      0.000
     13 H        0.000      0.000      0.000      0.000      0.000      0.000
     16 H       -0.003      0.001      0.002     -0.002      0.000      0.000
     17 H       -0.004      0.000      0.001     -0.002      0.000      0.000
     19 H        0.010     -0.010     -0.008      0.006      0.000      0.000
     21 H       -0.019      0.040      0.010     -0.017      0.001      0.000
     24 H       -0.023     -0.023     -0.016      0.005      0.000      0.000
     25 H       -0.060     -0.016      0.013     -0.017      0.001     -0.001
     27 H       -0.123     -0.219      0.048      0.028      0.000      0.000
     28 H       -0.146      0.007      0.066      0.024      0.003     -0.000
     30 H       -0.155     -0.208     -0.341      0.038     -0.014     -0.002
     31 H        1.825     -0.484      0.023      0.006     -0.001     -0.003
     33 H       -0.474     -0.203      0.890     -0.020      0.003     -0.007
     35 H       -0.000      0.000      0.000      0.000      0.000      0.000
     37 H        0.069      0.059     -0.176      0.109     -0.017     -0.004
     38 H       -0.058      0.034      0.013     -0.006     -0.015     -0.006
     40 H       -0.113     -0.082      0.055     -0.196      0.240     -0.027
     41 H       -0.071      0.005      0.041     -0.415     -0.181      0.100
     42 H       -0.079      1.129     -0.412     10.431     -0.173      0.115
     45 H        0.000    -13.657    -13.050     -0.209      0.006     -0.015
     46 H      -13.657      0.000    -13.052     -0.178      0.024     -0.040
     47 H      -13.050    -13.052      0.000     -0.114      0.005     -0.010
     48 H       -0.209     -0.178     -0.114      0.000      4.967     -2.286
     52 H        0.006      0.024      0.005      4.967      0.000     16.673
     53 H       -0.015     -0.040     -0.010     -2.286     16.673      0.000
     57 H        0.001      0.004      0.001      0.147     -0.775      9.955
     58 H        0.000      0.000      0.000     -0.059      0.174     -0.312
     61 H        0.000      0.000     -0.000     -0.043      0.049     -0.338
     62 H        0.000      0.000      0.000      0.577     -0.276     -0.041
     63 H       -0.001      0.000     -0.000     -0.074      0.126     -0.168
     64 H        0.000      0.000      0.000      0.015     -0.002     -0.014
     65 H       -0.000      0.000     -0.000     -0.012      0.077      0.029
     66 H        0.000      0.000      0.000     -0.016      0.110      0.049
     67 H        0.000      0.000      0.000      0.015      0.023     -0.004
     68 H       -0.000      0.000      0.000     -0.043      0.103     -0.059
     69 H        0.000      0.000     -0.000     -0.043      0.096     -0.009
     70 H       -0.017     -0.058     -0.227      5.195      0.854     -0.186
     71 H        0.031     -0.031     -0.040     12.517     -0.527     -0.165
     72 H       -0.011     -0.031     -0.022      1.912     -0.362     -0.241
                 57 H       58 H       61 H       62 H       63 H       64 H  
      3 H        0.000      0.000      0.000      0.000      0.000      0.000
      4 H        0.000      0.000      0.000      0.000      0.000      0.000
      8 H        0.000      0.000      0.000      0.000      0.000      0.000
      9 H        0.000      0.000      0.000      0.000      0.000      0.000
     10 H        0.000      0.000      0.000      0.000      0.000      0.000
     11 H        0.000      0.000      0.000      0.000      0.000      0.000
     13 H        0.000      0.000      0.000      0.000      0.000      0.000
     16 H        0.000      0.000      0.000      0.000      0.000      0.000
     17 H        0.000      0.000      0.000      0.000      0.000      0.000
     19 H        0.000      0.000      0.000      0.000      0.000      0.000
     21 H        0.000      0.000      0.000      0.000      0.000      0.000
     24 H        0.000      0.000      0.000      0.000      0.000      0.000
     25 H        0.000      0.000      0.000      0.000      0.000      0.000
     27 H        0.000      0.000      0.000      0.000      0.000      0.000
     28 H        0.000      0.000      0.000      0.000      0.000      0.000
     30 H        0.001      0.000     -0.000      0.000     -0.000      0.000
     31 H        0.000      0.002     -0.000      0.000     -0.000      0.000
     33 H        0.001      0.001      0.000      0.000      0.000      0.000
     35 H        0.000      0.000      0.000      0.000      0.000      0.000
     37 H       -0.000      0.001      0.000      0.000      0.000      0.000
     38 H        0.000      0.000      0.000      0.000      0.000      0.000
     40 H        0.005      0.004     -0.002      0.007     -0.001     -0.000
     41 H       -0.003      0.001      0.000     -0.001     -0.000      0.000
     42 H       -0.012      0.004      0.002     -0.013      0.003     -0.002
     45 H        0.001      0.000      0.000      0.000     -0.001      0.000
     46 H        0.004      0.000      0.000      0.000      0.000      0.000
     47 H        0.001      0.000     -0.000      0.000     -0.000      0.000
     48 H        0.147     -0.059     -0.043      0.577     -0.074      0.015
     52 H       -0.775      0.174      0.049     -0.276      0.126     -0.002
     53 H        9.955     -0.312     -0.338     -0.041     -0.168     -0.014
     57 H        0.000      2.626     12.993      2.450      4.615     -0.428
     58 H        2.626      0.000     -0.276     -0.351     -0.218      2.961
     61 H       12.993     -0.276      0.000    -12.350    -13.044     -0.284
     62 H        2.450     -0.351    -12.350      0.000    -12.544      0.014
     63 H        4.615     -0.218    -13.044    -12.544      0.000     -0.113
     64 H       -0.428      2.961     -0.284      0.014     -0.113      0.000
     65 H       -0.506     13.320      0.043      0.023      0.059    -12.004
     66 H        0.577      3.911     -0.095      0.050     -0.067    -13.094
     67 H       -0.323      3.110      0.038      0.055      0.010      2.877
     68 H        0.036      3.647     -0.060      0.035      0.573     -0.042
     69 H       -0.264     13.002      0.025      0.018     -0.053     -0.293
     70 H        0.238     -0.006     -0.000     -0.011     -0.001     -0.001
     71 H        0.073     -0.001     -0.003     -0.007     -0.001     -0.001
     72 H        0.094     -0.007      0.002     -0.009      0.000     -0.001
                 65 H       66 H       67 H       68 H       69 H       70 H  
      3 H        0.000      0.000      0.000      0.000      0.000      0.000
      4 H        0.000      0.000      0.000      0.000      0.000      0.000
      8 H        0.000      0.000      0.000      0.000      0.000      0.000
      9 H        0.000      0.000      0.000      0.000      0.000      0.000
     10 H        0.000      0.000      0.000      0.000      0.000      0.000
     11 H        0.000      0.000      0.000      0.000      0.000      0.000
     13 H        0.000      0.000      0.000      0.000      0.000      0.000
     16 H        0.000      0.000      0.000      0.000      0.000      0.000
     17 H        0.000      0.000      0.000      0.000      0.000      0.000
     19 H        0.000      0.000      0.000      0.000      0.000     -0.000
     21 H        0.000      0.000      0.000      0.000     -0.000      0.001
     24 H        0.000      0.000      0.000      0.000      0.000      0.020
     25 H       -0.000      0.000      0.000      0.000     -0.000      0.004
     27 H        0.000      0.000      0.000      0.000     -0.000     -0.008
     28 H       -0.000      0.000      0.000      0.000     -0.000     -0.008
     30 H       -0.000     -0.000      0.000      0.000      0.000     -0.461
     31 H        0.000      0.000      0.000      0.000      0.000     -0.091
     33 H       -0.000      0.000     -0.000     -0.000     -0.000      0.004
     35 H        0.000      0.000      0.000      0.000      0.000      0.000
     37 H        0.000      0.000      0.000      0.001      0.002     -0.007
     38 H       -0.000      0.000      0.001      0.003      0.004      0.000
     40 H       -0.001     -0.001     -0.003     -0.006     -0.039      0.084
     41 H        0.000      0.000     -0.002     -0.005     -0.013      0.031
     42 H       -0.000      0.001     -0.003     -0.003     -0.030     -0.203
     45 H       -0.000      0.000      0.000     -0.000      0.000     -0.017
     46 H        0.000      0.000      0.000      0.000      0.000     -0.058
     47 H       -0.000      0.000      0.000      0.000     -0.000     -0.227
     48 H       -0.012     -0.016      0.015     -0.043     -0.043      5.195
     52 H        0.077      0.110      0.023      0.103      0.096      0.854
     53 H        0.029      0.049     -0.004     -0.059     -0.009     -0.186
     57 H       -0.506      0.577     -0.323      0.036     -0.264      0.238
     58 H       13.320      3.911      3.110      3.647     13.002     -0.006
     61 H        0.043     -0.095      0.038     -0.060      0.025     -0.000
     62 H        0.023      0.050      0.055      0.035      0.018     -0.011
     63 H        0.059     -0.067      0.010      0.573     -0.053     -0.001
     64 H      -12.004    -13.094      2.877     -0.042     -0.293     -0.001
     65 H        0.000    -12.951     -0.226     -0.185     -0.328     -0.001
     66 H      -12.951      0.000     -0.032     -0.209     -0.221     -0.001
     67 H       -0.226     -0.032      0.000    -12.512    -12.347      0.000
     68 H       -0.185     -0.209    -12.512      0.000    -12.677      0.002
     69 H       -0.328     -0.221    -12.347    -12.677      0.000      0.004
     70 H       -0.001     -0.001      0.000      0.002      0.004      0.000
     71 H       -0.001     -0.001     -0.000     -0.000      0.000    -12.712
     72 H       -0.002     -0.001      0.000      0.003      0.003    -13.651
                 71 H       72 H  
      3 H        0.000      0.000
      4 H        0.000      0.000
      8 H        0.000      0.000
      9 H        0.000      0.000
     10 H        0.000      0.000
     11 H        0.000      0.000
     13 H        0.000      0.000
     16 H        0.000      0.000
     17 H        0.000      0.000
     19 H        0.000      0.000
     21 H        0.001      0.002
     24 H        0.011      0.035
     25 H        0.000      0.000
     27 H       -0.003     -0.010
     28 H       -0.004     -0.011
     30 H        0.065      0.083
     31 H        0.007     -0.048
     33 H       -0.001      0.004
     35 H        0.000      0.000
     37 H       -0.021      0.065
     38 H        0.038      0.015
     40 H        0.020     -0.050
     41 H       -0.046      0.003
     42 H       -0.359     -0.442
     45 H        0.031     -0.011
     46 H       -0.031     -0.031
     47 H       -0.040     -0.022
     48 H       12.517      1.912
     52 H       -0.527     -0.362
     53 H       -0.165     -0.241
     57 H        0.073      0.094
     58 H       -0.001     -0.007
     61 H       -0.003      0.002
     62 H       -0.007     -0.009
     63 H       -0.001      0.000
     64 H       -0.001     -0.001
     65 H       -0.001     -0.002
     66 H       -0.001     -0.001
     67 H       -0.000      0.000
     68 H       -0.000      0.003
     69 H        0.000      0.003
     70 H      -12.712    -13.651
     71 H        0.000    -12.411
     72 H      -12.411      0.000

Maximum memory used throughout the entire EPRNMR-calculation: 987.8 MB

Timings for individual modules:

Sum of individual times         ...      390.816 sec (=   6.514 min)
GTO integral calculation        ...        0.616 sec (=   0.010 min)   0.2 %
SCF iterations                  ...      105.110 sec (=   1.752 min)  26.9 %
EPR/NMR calculation             ...      285.090 sec (=   4.752 min)  72.9 %
                             ****ORCA TERMINATED NORMALLY****
TOTAL RUN TIME: 0 days 0 hours 6 minutes 31 seconds 296 msec
