
                                 *****************
                                 * O   R   C   A *
                                 *****************

                                            #,                                       
                                            ###                                      
                                            ####                                     
                                            #####                                    
                                            ######                                   
                                           ########,                                 
                                     ,,################,,,,,                         
                               ,,#################################,,                 
                          ,,##########################################,,             
                       ,#########################################, ''#####,          
                    ,#############################################,,   '####,        
                  ,##################################################,,,,####,       
                ,###########''''           ''''###############################       
              ,#####''   ,,,,##########,,,,          '''####'''          '####       
            ,##' ,,,,###########################,,,                        '##       
           ' ,,###''''                  '''############,,,                           
         ,,##''                                '''############,,,,        ,,,,,,###''
      ,#''                                            '''#######################'''  
     '                                                          ''''####''''         
             ,#######,   #######,   ,#######,      ##                                
            ,#'     '#,  ##    ##  ,#'     '#,    #''#        ######   ,####,        
            ##       ##  ##   ,#'  ##            #'  '#       #        #'  '#        
            ##       ##  #######   ##           ,######,      #####,   #    #        
            '#,     ,#'  ##    ##  '#,     ,#' ,#      #,         ##   #,  ,#        
             '#######'   ##     ##  '#######'  #'      '#     #####' # '####'        



                  #######################################################
                  #                        -***-                        #
                  #          Department of theory and spectroscopy      #
                  #    Directorship and core code : Frank Neese         #
                  #        Max Planck Institute fuer Kohlenforschung    #
                  #                Kaiser Wilhelm Platz 1               #
                  #                 D-45470 Muelheim/Ruhr               #
                  #                      Germany                        #
                  #                                                     #
                  #                  All rights reserved                #
                  #                        -***-                        #
                  #######################################################


                         Program Version 5.0.2 -  RELEASE  -


 With contributions from (in alphabetic order):
   Daniel Aravena         : Magnetic Suceptibility
   Michael Atanasov       : Ab Initio Ligand Field Theory (pilot matlab implementation)
   Alexander A. Auer      : GIAO ZORA, VPT2 properties, NMR spectrum
   Ute Becker             : Parallelization
   Giovanni Bistoni       : ED, misc. LED, open-shell LED, HFLD
   Martin Brehm           : Molecular dynamics
   Dmytro Bykov           : SCF Hessian
   Vijay G. Chilkuri      : MRCI spin determinant printing, contributions to CSF-ICE
   Dipayan Datta          : RHF DLPNO-CCSD density
   Achintya Kumar Dutta   : EOM-CC, STEOM-CC
   Dmitry Ganyushin       : Spin-Orbit,Spin-Spin,Magnetic field MRCI
   Miquel Garcia          : C-PCM and meta-GGA Hessian, CC/C-PCM, Gaussian charge scheme
   Yang Guo               : DLPNO-NEVPT2, F12-NEVPT2, CIM, IAO-localization
   Andreas Hansen         : Spin unrestricted coupled pair/coupled cluster methods
   Benjamin Helmich-Paris : MC-RPA, TRAH-SCF, COSX integrals
   Lee Huntington         : MR-EOM, pCC
   Robert Izsak           : Overlap fitted RIJCOSX, COSX-SCS-MP3, EOM
   Marcus Kettner         : VPT2
   Christian Kollmar      : KDIIS, OOCD, Brueckner-CCSD(T), CCSD density, CASPT2, CASPT2-K
   Simone Kossmann        : Meta GGA functionals, TD-DFT gradient, OOMP2, MP2 Hessian
   Martin Krupicka        : Initial AUTO-CI
   Lucas Lang             : DCDCAS
   Marvin Lechner         : AUTO-CI (C++ implementation), FIC-MRCC
   Dagmar Lenk            : GEPOL surface, SMD
   Dimitrios Liakos       : Extrapolation schemes; Compound Job, initial MDCI parallelization
   Dimitrios Manganas     : Further ROCIS development; embedding schemes
   Dimitrios Pantazis     : SARC Basis sets
   Anastasios Papadopoulos: AUTO-CI, single reference methods and gradients
   Taras Petrenko         : DFT Hessian,TD-DFT gradient, ASA, ECA, R-Raman, ABS, FL, XAS/XES, NRVS
   Peter Pinski           : DLPNO-MP2, DLPNO-MP2 Gradient
   Christoph Reimann      : Effective Core Potentials
   Marius Retegan         : Local ZFS, SOC
   Christoph Riplinger    : Optimizer, TS searches, QM/MM, DLPNO-CCSD(T), (RO)-DLPNO pert. Triples
   Tobias Risthaus        : Range-separated hybrids, TD-DFT gradient, RPA, STAB
   Michael Roemelt        : Original ROCIS implementation
   Masaaki Saitow         : Open-shell DLPNO-CCSD energy and density
   Barbara Sandhoefer     : DKH picture change effects
   Avijit Sen             : IP-ROCIS
   Kantharuban Sivalingam : CASSCF convergence, NEVPT2, FIC-MRCI
   Bernardo de Souza      : ESD, SOC TD-DFT
   Georgi Stoychev        : AutoAux, RI-MP2 NMR, DLPNO-MP2 response
   Willem Van den Heuvel  : Paramagnetic NMR
   Boris Wezisla          : Elementary symmetry handling
   Frank Wennmohs         : Technical directorship


 We gratefully acknowledge several colleagues who have allowed us to
 interface, adapt or use parts of their codes:
   Stefan Grimme, W. Hujo, H. Kruse, P. Pracht,  : VdW corrections, initial TS optimization,
                  C. Bannwarth, S. Ehlert          DFT functionals, gCP, sTDA/sTD-DF
   Ed Valeev, F. Pavosevic, A. Kumar             : LibInt (2-el integral package), F12 methods
   Garnet Chan, S. Sharma, J. Yang, R. Olivares  : DMRG
   Ulf Ekstrom                                   : XCFun DFT Library
   Mihaly Kallay                                 : mrcc  (arbitrary order and MRCC methods)
   Jiri Pittner, Ondrej Demel                    : Mk-CCSD
   Frank Weinhold                                : gennbo (NPA and NBO analysis)
   Christopher J. Cramer and Donald G. Truhlar   : smd solvation model
   Lars Goerigk                                  : TD-DFT with DH, B97 family of functionals
   V. Asgeirsson, H. Jonsson                     : NEB implementation
   FAccTs GmbH                                   : IRC, NEB, NEB-TS, DLPNO-Multilevel, CI-OPT
                                                   MM, QMMM, 2- and 3-layer-ONIOM, Crystal-QMMM,
                                                   LR-CPCM, SF, NACMEs, symmetry and pop. for TD-DFT,
                                                   nearIR, NL-DFT gradient (VV10), updates on ESD,
                                                   ML-optimized integration grids
   S Lehtola, MJT Oliveira, MAL Marques          : LibXC Library
   Liviu Ungur et al                             : ANISO software


 Your calculation uses the libint2 library for the computation of 2-el integrals
 For citations please refer to: http://libint.valeyev.net

 Your ORCA version has been built with support for libXC version: 5.1.0
 For citations please refer to: https://tddft.org/programs/libxc/

 This ORCA versions uses:
   CBLAS   interface :  Fast vector & matrix operations
   LAPACKE interface :  Fast linear algebra routines
   SCALAPACK package :  Parallel linear algebra routines
   Shared memory     :  Shared parallel matrices
   BLAS/LAPACK       :  OpenBLAS 0.3.15  USE64BITINT DYNAMIC_ARCH NO_AFFINITY Zen SINGLE_THREADED
        Core in use  :  Zen
   Copyright (c) 2011-2014, The OpenBLAS Project


Your calculation utilizes the atom-pairwise dispersion correction
based on tight binding partial charges (D4)
Cite in your paper:
E.Caldeweyher, C.Bannwarth, S.Grimme, J.Chem.Phys., (2017), 147, 034112.
E.Caldeweyher, S.Ehlert, A.Hansen, H.Neugebauer, S.Grimme, J.Chem.Phys., (2018), in progress.
   

================================================================================

----- Orbital basis set information -----
Your calculation utilizes the basis: pcSseg-1
   F. Jensen, J. Chem. Theory Comput. 11, 132 (2015).

----- AuxJ basis set information -----
Your calculation utilizes the auxiliary basis: def2/J
   F. Weigend, Phys. Chem. Chem. Phys. 8, 1057 (2006).

================================================================================
                                        WARNINGS
                       Please study these warnings very carefully!
================================================================================



WARNING: Found flag for RIJCOSX approximation but no HF exchange needed!
  ===> : RIJCOSX  will be disabled and Split-RI-J is turned on

INFO   : the flag for use of the SHARK integral package has been found!

================================================================================
                                       INPUT FILE
================================================================================
NAME = inpS
|  1> ! revTPSS
|  2> ! D4
|  3> ! pcSseg-1
|  4> ! def2/J RIJCOSX
|  5> ! DEFGRID2
|  6> ! scfconv7
|  7> ! smallprint printgap noloewdin
|  8> ! NOSOSCF
|  9> %MaxCore 4000
| 10> %output
| 11>        print[P_BondOrder_M] 1
| 12>        print[P_Mayer] 1
| 13>        print[P_basis] 2
| 14> end
| 15> %pal
| 16>     nprocs 4
| 17> end
| 18> ! CPCM(chloroform)
| 19> *xyz 0 1
| 20> C   -5.2123473700  -0.0201258400   0.3276534500
| 21> C   -6.5661991200  -0.4161844900  -0.2133023600
| 22> C   -7.1255627800   0.6401706200  -1.1736403000
| 23> H   -7.2804766000  -0.5087938600   0.6224618400
| 24> H   -6.5124796000  -1.3878945500  -0.7163228500
| 25> C   -5.1570455800   1.3490720800   0.8826709800
| 26> C   -5.7651191700   2.4093742300  -0.0071349100
| 27> C   -7.1626906800   2.0057282300  -0.4966614500
| 28> H   -5.1147431200   2.5385283000  -0.8855645700
| 29> H   -5.8011409000   3.3696390200   0.5178799200
| 30> H   -7.5511264400   2.7543472600  -1.1971307200
| 31> H   -7.8544381300   1.9578191100   0.3579206000
| 32> O   -8.4133094200   0.2570185700  -1.6743245000
| 33> H   -6.4812629900   0.6927910800  -2.0624119100
| 34> C   -4.1572436600  -0.8649908300   0.2461603000
| 35> C   -4.6537753600   1.6337296100   2.0891728200
| 36> H   -4.2443131100   0.8572014300   2.7292070800
| 37> H   -4.6508256500   2.6531121000   2.4678085800
| 38> C   -2.7954851300  -0.5776644100   0.6338103100
| 39> H   -4.3569198200  -1.8405096600  -0.1951144500
| 40> C   -1.7618780400  -1.4468177900   0.6340651000
| 41> H   -2.5955634600   0.4454743400   0.9438885600
| 42> C   -1.8470768900  -2.9118461700   0.2890886500
| 43> C   -0.8080447400  -3.3128595600  -0.7744059800
| 44> H   -2.8484769200  -3.2012929600  -0.0405441100
| 45> H   -1.6381031200  -3.4855478800   1.2064330100
| 46> C    0.6108364600  -2.8469889500  -0.4215928900
| 47> H   -1.1052628300  -2.8915717100  -1.7430561200
| 48> H   -0.8170978700  -4.4032811800  -0.8932709300
| 49> C    0.6610558200  -1.3387297600  -0.1371834100
| 50> H    1.2878441800  -3.1232361500  -1.2362929700
| 51> H    0.9560635000  -3.3807487500   0.4766774700
| 52> C   -0.3661479600  -1.0477773300   1.0031020300
| 53> H   -0.0592083300  -1.7171188500   1.8282728400
| 54> C   -0.0469440000   0.3785606200   1.4380555300
| 55> H   -9.0126094400   0.1926245600  -0.9187510800
| 56> C    1.4929015500   0.4642639500   1.3019690600
| 57> H   -0.3963934000   0.5884133200   2.4544321900
| 58> H   -0.5306630300   1.1036231300   0.7740231800
| 59> C    1.9590127800  -0.8135348700   0.5379856300
| 60> H    1.9820394100   0.5301629000   2.2789076600
| 61> H    1.7800686800   1.3647145700   0.7455259400
| 62> H    2.2568124300  -1.5738864700   1.2778428200
| 63> C    3.2019834500  -0.5418747000  -0.3448129400
| 64> C    0.3273674600  -0.5274067600  -1.3964669600
| 65> H   -0.7149693300  -0.6701714100  -1.6977297400
| 66> H    0.9648494200  -0.8321992200  -2.2336709200
| 67> H    0.4772662800   0.5454813400  -1.2386935600
| 68> H    2.9206531800   0.2565985600  -1.0515381200
| 69> C    3.6510968300  -1.7568236000  -1.1543899700
| 70> C    4.2988175900   0.0210922100   0.5292480100
| 71> C    5.4735552100  -0.5526197700   0.7950121600
| 72> H    4.0677025500   0.9786302400   0.9939485000
| 73> H    5.7063646800  -1.5126526300   0.3369488500
| 74> C    6.5576116600   0.0138789200   1.6808834500
| 75> C    6.0542096000   1.1176892800   2.6139874700
| 76> C    7.7746888100   0.4847791500   0.8357957600
| 77> H    6.9237449500  -0.8189992700   2.3060582200
| 78> H    7.4244412100   1.3289106500   0.2204412400
| 79> C    8.2825565800  -0.6143589800  -0.1030388500
| 80> C    8.9253415200   0.9730452500   1.7217881200
| 81> H    5.1383342200   0.8048781200   3.1260237200
| 82> H    5.8342639500   2.0384478700   2.0601268000
| 83> H    6.7979454500   1.3580273100   3.3778360300
| 84> H    9.1783693500  -0.2774231600  -0.6358135000
| 85> H    7.5355861200  -0.8956144500  -0.8509389200
| 86> H    8.5508716600  -1.5144553700   0.4656302800
| 87> H    9.2314978100   0.1842227100   2.4213312700
| 88> H    8.6577239500   1.8585198000   2.3048778100
| 89> H    9.7955485900   1.2313510000   1.1084140800
| 90> H    4.5962010300  -1.5510741000  -1.6687211900
| 91> H    2.9113723800  -2.0158747100  -1.9141430300
| 92> H    3.7969356900  -2.6339188200  -0.5128998100
| 93> *
| 94> %eprnmr
| 95>  Nuclei = all H { shift }
| 96>  origin giao
| 97>  giao_2el giao_2el_same_as_scf
| 98>  giao_1el giao_1el_analytic
| 99> end
|100> 
|101>                          ****END OF INPUT****
================================================================================

                       ****************************
                       * Single Point Calculation *
                       ****************************

---------------------------------
CARTESIAN COORDINATES (ANGSTROEM)
---------------------------------
  C     -5.212347   -0.020126    0.327653
  C     -6.566199   -0.416184   -0.213302
  C     -7.125563    0.640171   -1.173640
  H     -7.280477   -0.508794    0.622462
  H     -6.512480   -1.387895   -0.716323
  C     -5.157046    1.349072    0.882671
  C     -5.765119    2.409374   -0.007135
  C     -7.162691    2.005728   -0.496661
  H     -5.114743    2.538528   -0.885565
  H     -5.801141    3.369639    0.517880
  H     -7.551126    2.754347   -1.197131
  H     -7.854438    1.957819    0.357921
  O     -8.413309    0.257019   -1.674324
  H     -6.481263    0.692791   -2.062412
  C     -4.157244   -0.864991    0.246160
  C     -4.653775    1.633730    2.089173
  H     -4.244313    0.857201    2.729207
  H     -4.650826    2.653112    2.467809
  C     -2.795485   -0.577664    0.633810
  H     -4.356920   -1.840510   -0.195114
  C     -1.761878   -1.446818    0.634065
  H     -2.595563    0.445474    0.943889
  C     -1.847077   -2.911846    0.289089
  C     -0.808045   -3.312860   -0.774406
  H     -2.848477   -3.201293   -0.040544
  H     -1.638103   -3.485548    1.206433
  C      0.610836   -2.846989   -0.421593
  H     -1.105263   -2.891572   -1.743056
  H     -0.817098   -4.403281   -0.893271
  C      0.661056   -1.338730   -0.137183
  H      1.287844   -3.123236   -1.236293
  H      0.956063   -3.380749    0.476677
  C     -0.366148   -1.047777    1.003102
  H     -0.059208   -1.717119    1.828273
  C     -0.046944    0.378561    1.438056
  H     -9.012609    0.192625   -0.918751
  C      1.492902    0.464264    1.301969
  H     -0.396393    0.588413    2.454432
  H     -0.530663    1.103623    0.774023
  C      1.959013   -0.813535    0.537986
  H      1.982039    0.530163    2.278908
  H      1.780069    1.364715    0.745526
  H      2.256812   -1.573886    1.277843
  C      3.201983   -0.541875   -0.344813
  C      0.327367   -0.527407   -1.396467
  H     -0.714969   -0.670171   -1.697730
  H      0.964849   -0.832199   -2.233671
  H      0.477266    0.545481   -1.238694
  H      2.920653    0.256599   -1.051538
  C      3.651097   -1.756824   -1.154390
  C      4.298818    0.021092    0.529248
  C      5.473555   -0.552620    0.795012
  H      4.067703    0.978630    0.993949
  H      5.706365   -1.512653    0.336949
  C      6.557612    0.013879    1.680883
  C      6.054210    1.117689    2.613987
  C      7.774689    0.484779    0.835796
  H      6.923745   -0.818999    2.306058
  H      7.424441    1.328911    0.220441
  C      8.282557   -0.614359   -0.103039
  C      8.925342    0.973045    1.721788
  H      5.138334    0.804878    3.126024
  H      5.834264    2.038448    2.060127
  H      6.797945    1.358027    3.377836
  H      9.178369   -0.277423   -0.635813
  H      7.535586   -0.895614   -0.850939
  H      8.550872   -1.514455    0.465630
  H      9.231498    0.184223    2.421331
  H      8.657724    1.858520    2.304878
  H      9.795549    1.231351    1.108414
  H      4.596201   -1.551074   -1.668721
  H      2.911372   -2.015875   -1.914143
  H      3.796936   -2.633919   -0.512900

----------------------------
CARTESIAN COORDINATES (A.U.)
----------------------------
  NO LB      ZA    FRAG     MASS         X           Y           Z
   0 C     6.0000    0    12.011   -9.849909   -0.038032    0.619175
   1 C     6.0000    0    12.011  -12.408318   -0.786475   -0.403083
   2 C     6.0000    0    12.011  -13.465362    1.209747   -2.217859
   3 H     1.0000    0     1.008  -13.758107   -0.961481    1.176282
   4 H     1.0000    0     1.008  -12.306803   -2.622741   -1.353654
   5 C     6.0000    0    12.011   -9.745404    2.549377    1.668006
   6 C     6.0000    0    12.011  -10.894496    4.553057   -0.013483
   7 C     6.0000    0    12.011  -13.535524    3.790277   -0.938554
   8 H     1.0000    0     1.008   -9.665464    4.797123   -1.673475
   9 H     1.0000    0     1.008  -10.962568    6.367695    0.978651
  10 H     1.0000    0     1.008  -14.269561    5.204962   -2.262249
  11 H     1.0000    0     1.008  -14.842737    3.699742    0.676372
  12 O     8.0000    0    15.999  -15.898851    0.485695   -3.164015
  13 H     1.0000    0     1.008  -12.247812    1.309185   -3.897394
  14 C     6.0000    0    12.011   -7.856052   -1.634596    0.465176
  15 C     6.0000    0    12.011   -8.794361    3.087302    3.947964
  16 H     1.0000    0     1.008   -8.020589    1.619876    5.157454
  17 H     1.0000    0     1.008   -8.788787    5.013655    4.663482
  18 C     6.0000    0    12.011   -5.282701   -1.091628    1.197728
  19 H     1.0000    0     1.008   -8.233385   -3.478059   -0.368713
  20 C     6.0000    0    12.011   -3.329467   -2.734089    1.198209
  21 H     1.0000    0     1.008   -4.904904    0.841825    1.783691
  22 C     6.0000    0    12.011   -3.490469   -5.502592    0.546298
  23 C     6.0000    0    12.011   -1.526983   -6.260397   -1.463415
  24 H     1.0000    0     1.008   -5.382841   -6.049567   -0.076617
  25 H     1.0000    0     1.008   -3.095566   -6.586731    2.279828
  26 C     6.0000    0    12.011    1.154314   -5.380029   -0.796695
  27 H     1.0000    0     1.008   -2.088644   -5.464279   -3.293899
  28 H     1.0000    0     1.008   -1.544091   -8.320996   -1.688037
  29 C     6.0000    0    12.011    1.249214   -2.529833   -0.259239
  30 H     1.0000    0     1.008    2.433673   -5.902061   -2.336255
  31 H     1.0000    0     1.008    1.806698   -6.388689    0.900790
  32 C     6.0000    0    12.011   -0.691919   -1.980012    1.895588
  33 H     1.0000    0     1.008   -0.111888   -3.244884    3.454935
  34 C     6.0000    0    12.011   -0.088711    0.715376    2.717531
  35 H     1.0000    0     1.008  -17.031364    0.364008   -1.736188
  36 C     6.0000    0    12.011    2.821175    0.877332    2.460365
  37 H     1.0000    0     1.008   -0.749075    1.111940    4.638205
  38 H     1.0000    0     1.008   -1.002808    2.085545    1.462692
  39 C     6.0000    0    12.011    3.701998   -1.537358    1.016646
  40 H     1.0000    0     1.008    3.745512    1.001863    4.306511
  41 H     1.0000    0     1.008    3.363842    2.578937    1.408840
  42 H     1.0000    0     1.008    4.264757   -2.974214    2.414773
  43 C     6.0000    0    12.011    6.050872   -1.023995   -0.651602
  44 C     6.0000    0    12.011    0.618635   -0.996654   -2.638940
  45 H     1.0000    0     1.008   -1.351096   -1.266440   -3.208244
  46 H     1.0000    0     1.008    1.823301   -1.572629   -4.221026
  47 H     1.0000    0     1.008    0.901903    1.030810   -2.340792
  48 H     1.0000    0     1.008    5.519235    0.484901   -1.987119
  49 C     6.0000    0    12.011    6.899573   -3.319915   -2.181481
  50 C     6.0000    0    12.011    8.123588    0.039859    1.000134
  51 C     6.0000    0    12.011   10.343520   -1.044300    1.502355
  52 H     1.0000    0     1.008    7.686844    1.849343    1.878290
  53 H     1.0000    0     1.008   10.783466   -2.858499    0.636741
  54 C     6.0000    0    12.011   12.392090    0.026227    3.176409
  55 C     6.0000    0    12.011   11.440798    2.112127    4.939720
  56 C     6.0000    0    12.011   14.692033    0.916100    1.579425
  57 H     1.0000    0     1.008   13.083982   -1.547684    4.357818
  58 H     1.0000    0     1.008   14.030161    2.511277    0.416574
  59 C     6.0000    0    12.011   15.651764   -1.160970   -0.194715
  60 C     6.0000    0    12.011   16.866451    1.838789    3.253708
  61 H     1.0000    0     1.008    9.710044    1.520999    5.907329
  62 H     1.0000    0     1.008   11.025161    3.852108    3.893075
  63 H     1.0000    0     1.008   12.846255    2.566300    6.383185
  64 H     1.0000    0     1.008   17.344604   -0.524254   -1.201513
  65 H     1.0000    0     1.008   14.240194   -1.692466   -1.608042
  66 H     1.0000    0     1.008   16.158806   -2.861906    0.879914
  67 H     1.0000    0     1.008   17.445003    0.348130    4.575653
  68 H     1.0000    0     1.008   16.360727    3.512093    4.355588
  69 H     1.0000    0     1.008   18.510904    2.326916    2.094599
  70 H     1.0000    0     1.008    8.685561   -2.931105   -3.153426
  71 H     1.0000    0     1.008    5.501696   -3.809451   -3.617206
  72 H     1.0000    0     1.008    7.175169   -4.977385   -0.969240

--------------------------------
INTERNAL COORDINATES (ANGSTROEM)
--------------------------------
 C      0   0   0     0.000000000000     0.00000000     0.00000000
 C      1   0   0     1.510764774408     0.00000000     0.00000000
 C      2   1   0     1.533304529947   111.75092890     0.00000000
 H      2   1   3     1.103299873946   109.32487313   241.46200815
 H      2   1   3     1.095507115857   110.67106144   122.91414450
 C      1   2   3     1.478447053741   114.25048657    50.25350203
 C      6   1   2     1.511869260892   114.42531658   312.15474322
 C      3   2   1     1.524606975760   110.35557853   305.11341739
 H      7   6   1     1.100594588293   108.32279094   290.22714544
 H      7   6   1     1.095009864643   110.24677369   172.96284272
 H      8   3   2     1.096343919552   109.66537035   179.22568758
 H      8   3   2     1.100509108796   108.73085943   296.68509919
 O      3   2   1     1.433799696743   111.23874824   180.32825300
 H      3   2   1     1.099002323449   109.00332626    65.15260557
 C      1   2   3     1.354135083247   120.87263617   232.41491384
 C      6   1   2     1.337892938036   123.34314645   130.04161741
 H     16   6   1     1.086415759497   121.39706385     0.58582932
 H     16   6   1     1.087434779864   120.96187488   181.25764178
 C     15   1   2     1.444719798408   126.45536694   175.25681727
 H     15   1   2     1.089142305461   116.12687095   357.99432599
 C     19  15   1     1.350470762135   126.40365942   175.37195299
 H     19  15   1     1.087625899384   115.90278124   354.70518518
 C     21  19  15     1.507506467416   125.60253108   356.88923496
 C     23  21  19     1.539941679328   111.89924311   128.22086654
 H     23  21  19     1.093269967021   112.21343036     4.09804290
 H     23  21  19     1.101963866662   107.74191736   246.96943242
 C     24  23  21     1.534515024837   112.70808114    50.54656915
 H     24  23  21     1.097317246426   109.08057828   288.46446204
 H     24  23  21     1.096918476854   109.15550511   172.48752957
 C     27  24  23     1.535661590537   111.77710375   306.10682808
 H     27  24  23     1.094709180011   108.91187205   182.54287077
 H     27  24  23     1.100441217375   109.29905402    66.05685574
 C     21  19  15     1.497826425404   122.80510950   177.57265380
 H     33  21  19     1.105955185591   106.33230972   123.88607442
 C     33  21  19     1.524964151333   120.96454665     1.57406392
 H     13   3   2     0.966539339865   107.56028266    61.89656510
 C     35  33  21     1.548221207045   103.58524856   196.53335169
 H     35  33  21     1.095068287300   112.15851789    74.54057177
 H     35  33  21     1.095736603951   110.71150893   314.91927345
 C     30  27  24     1.554469419149   116.07704673   166.60642157
 H     37  35  33     1.094535310470   111.67561724   249.40938797
 H     37  35  33     1.096770361291   110.51519494   130.86873929
 H     40  30  27     1.101910998564   106.50840240   321.01860129
 C     40  30  27     1.548582787467   118.80731787    81.31441037
 C     30  27  24     1.534727334489   111.10852744   294.75848008
 H     45  30  27     1.094352316071   111.34652551    66.86767967
 H     45  30  27     1.095532821799   110.69850150   306.82327853
 H     45  30  27     1.094737857711   111.71972601   186.86892616
 H     44  40  30     1.102799504806   106.71319143    62.66986763
 C     44  40  30     1.527487684143   113.49095470   303.66733175
 C     44  40  30     1.511277412238   108.55288925   177.24210943
 C     51  44  40     1.334085640154   126.44838874   115.53681806
 H     51  44  40     1.089146356564   114.85081128   297.18666882
 H     52  51  44     1.088891793325   118.92178046     1.36607074
 C     52  51  44     1.510253983608   125.98710508   180.60610485
 C     55  52  51     1.530520845005   113.08176858    17.81434782
 C     55  52  51     1.554733745519   110.89659590   251.39318364
 H     55  52  51     1.103894541371   106.69400238   136.32274294
 H     57  55  52     1.101767922878   106.66564171    65.53138001
 C     57  55  52     1.532137306366   112.04125276   307.27411064
 C     57  55  52     1.532118763483   111.72242431   183.96156598
 H     56  55  52     1.094924497317   110.74377833    48.31525997
 H     56  55  52     1.096783530048   111.31768265   288.20745576
 H     56  55  52     1.092872364850   111.15456736   168.08542592
 H     60  57  55     1.095378972492   110.39287388   183.73351951
 H     60  57  55     1.093811694134   112.15270330    63.55495782
 H     60  57  55     1.097975898124   110.59370647   302.83817539
 H     61  57  55     1.097876719960   110.42140463    56.94978296
 H     61  57  55     1.093470589021   112.49650266   296.11392828
 H     61  57  55     1.095540924889   110.36014737   175.95640907
 H     50  44  40     1.095486836742   110.67767446   186.62702176
 H     50  44  40     1.091569719120   111.00236326    67.21021031
 H     50  44  40     1.096391637787   111.42646594   306.91048022

---------------------------
INTERNAL COORDINATES (A.U.)
---------------------------
 C      0   0   0     0.000000000000     0.00000000     0.00000000
 C      1   0   0     2.854931676406     0.00000000     0.00000000
 C      2   1   0     2.897525641500   111.75092890     0.00000000
 H      2   1   3     2.084934605347   109.32487313   241.46200815
 H      2   1   3     2.070208426732   110.67106144   122.91414450
 C      1   2   3     2.793860035074   114.25048657    50.25350203
 C      6   1   2     2.857018853379   114.42531658   312.15474322
 C      3   2   1     2.881089646051   110.35557853   305.11341739
 H      7   6   1     2.079822356349   108.32279094   290.22714544
 H      7   6   1     2.069268758118   110.24677369   172.96284272
 H      8   3   2     2.071789756544   109.66537035   179.22568758
 H      8   3   2     2.079660823510   108.73085943   296.68509919
 O      3   2   1     2.709488757743   111.23874824   180.32825300
 H      3   2   1     2.076813411862   109.00332626    65.15260557
 C      1   2   3     2.558944455672   120.87263617   232.41491384
 C      6   1   2     2.528251249396   123.34314645   130.04161741
 H     16   6   1     2.053028253025   121.39706385     0.58582932
 H     16   6   1     2.054953922444   120.96187488   181.25764178
 C     15   1   2     2.730124759244   126.45536694   175.25681727
 H     15   1   2     2.058180678189   116.12687095   357.99432599
 C     19  15   1     2.552019892303   126.40365942   175.37195299
 H     19  15   1     2.055315085995   115.90278124   354.70518518
 C     21  19  15     2.848774368531   125.60253108   356.88923496
 C     23  21  19     2.910068036141   111.89924311   128.22086654
 H     23  21  19     2.065980828111   112.21343036     4.09804290
 H     23  21  19     2.082409917468   107.74191736   246.96943242
 C     24  23  21     2.899813145329   112.70808114    50.54656915
 H     24  23  21     2.073629077773   109.08057828   288.46446204
 H     24  23  21     2.072875512493   109.15550511   172.48752957
 C     27  24  23     2.901979840498   111.77710375   306.10682808
 H     27  24  23     2.068700546510   108.91187205   182.54287077
 H     27  24  23     2.079532527318   109.29905402    66.05685574
 C     21  19  15     2.830481740163   122.80510950   177.57265380
 H     33  21  19     2.089952417158   106.33230972   123.88607442
 C     33  21  19     2.881764610068   120.96454665     1.57406392
 H     13   3   2     1.826494650006   107.56028266    61.89656510
 C     35  33  21     2.925714076045   103.58524856   196.53335169
 H     35  33  21     2.069379160939   112.15851789    74.54057177
 H     35  33  21     2.070642096380   110.71150893   314.91927345
 C     30  27  24     2.937521485747   116.07704673   166.60642157
 H     37  35  33     2.068371980695   111.67561724   249.40938797
 H     37  35  33     2.072595614642   110.51519494   130.86873929
 H     40  30  27     2.082310011243   106.50840240   321.01860129
 C     40  30  27     2.926397364017   118.80731787    81.31441037
 C     30  27  24     2.900214352428   111.10852744   294.75848008
 H     45  30  27     2.068026171397   111.34652551    66.86767967
 H     45  30  27     2.070257003921   110.69850150   306.82327853
 H     45  30  27     2.068754739510   111.71972601   186.86892616
 H     44  40  30     2.083989044706   106.71319143    62.66986763
 C     44  40  30     2.886533395969   113.49095470   303.66733175
 C     44  40  30     2.855900421510   108.55288925   177.24210943
 C     51  44  40     2.521056499087   126.44838874   115.53681806
 H     51  44  40     2.058188333664   114.85081128   297.18666882
 H     52  51  44     2.057707278858   118.92178046     1.36607074
 C     52  51  44     2.853966421683   125.98710508   180.60610485
 C     55  52  51     2.892265239318   113.08176858    17.81434782
 C     55  52  51     2.938020990197   110.89659590   251.39318364
 H     55  52  51     2.086058363922   106.69400238   136.32274294
 H     57  55  52     2.082039637378   106.66564171    65.53138001
 C     57  55  52     2.895319908596   112.04125276   307.27411064
 C     57  55  52     2.895284867626   111.72242431   183.96156598
 H     56  55  52     2.069107437250   110.74377833    48.31525997
 H     56  55  52     2.072620499987   111.31768265   288.20745576
 H     56  55  52     2.065229468898   111.15456736   168.08542592
 H     60  57  55     2.069966270865   110.39287388   183.73351951
 H     60  57  55     2.067004543993   112.15270330    63.55495782
 H     60  57  55     2.074873749101   110.59370647   302.83817539
 H     61  57  55     2.074686329533   110.42140463    56.94978296
 H     61  57  55     2.066359948748   112.49650266   296.11392828
 H     61  57  55     2.070272316543   110.36014737   175.95640907
 H     50  44  40     2.070170104758   110.67767446   186.62702176
 H     50  44  40     2.062767825218   111.00236326    67.21021031
 H     50  44  40     2.071879930939   111.42646594   306.91048022

---------------------
BASIS SET INFORMATION
---------------------
There are 3 groups of distinct atoms

 Group   1 Type C   : 8s5p1d contracted to 3s3p1d pattern {521/311/1}
 Group   2 Type H   : 4s2p contracted to 2s1p pattern {31/2}
 Group   3 Type O   : 8s5p1d contracted to 3s3p1d pattern {521/311/1}

Atom   0C    basis set group =>   1
Atom   1C    basis set group =>   1
Atom   2C    basis set group =>   1
Atom   3H    basis set group =>   2
Atom   4H    basis set group =>   2
Atom   5C    basis set group =>   1
Atom   6C    basis set group =>   1
Atom   7C    basis set group =>   1
Atom   8H    basis set group =>   2
Atom   9H    basis set group =>   2
Atom  10H    basis set group =>   2
Atom  11H    basis set group =>   2
Atom  12O    basis set group =>   3
Atom  13H    basis set group =>   2
Atom  14C    basis set group =>   1
Atom  15C    basis set group =>   1
Atom  16H    basis set group =>   2
Atom  17H    basis set group =>   2
Atom  18C    basis set group =>   1
Atom  19H    basis set group =>   2
Atom  20C    basis set group =>   1
Atom  21H    basis set group =>   2
Atom  22C    basis set group =>   1
Atom  23C    basis set group =>   1
Atom  24H    basis set group =>   2
Atom  25H    basis set group =>   2
Atom  26C    basis set group =>   1
Atom  27H    basis set group =>   2
Atom  28H    basis set group =>   2
Atom  29C    basis set group =>   1
Atom  30H    basis set group =>   2
Atom  31H    basis set group =>   2
Atom  32C    basis set group =>   1
Atom  33H    basis set group =>   2
Atom  34C    basis set group =>   1
Atom  35H    basis set group =>   2
Atom  36C    basis set group =>   1
Atom  37H    basis set group =>   2
Atom  38H    basis set group =>   2
Atom  39C    basis set group =>   1
Atom  40H    basis set group =>   2
Atom  41H    basis set group =>   2
Atom  42H    basis set group =>   2
Atom  43C    basis set group =>   1
Atom  44C    basis set group =>   1
Atom  45H    basis set group =>   2
Atom  46H    basis set group =>   2
Atom  47H    basis set group =>   2
Atom  48H    basis set group =>   2
Atom  49C    basis set group =>   1
Atom  50C    basis set group =>   1
Atom  51C    basis set group =>   1
Atom  52H    basis set group =>   2
Atom  53H    basis set group =>   2
Atom  54C    basis set group =>   1
Atom  55C    basis set group =>   1
Atom  56C    basis set group =>   1
Atom  57H    basis set group =>   2
Atom  58H    basis set group =>   2
Atom  59C    basis set group =>   1
Atom  60C    basis set group =>   1
Atom  61H    basis set group =>   2
Atom  62H    basis set group =>   2
Atom  63H    basis set group =>   2
Atom  64H    basis set group =>   2
Atom  65H    basis set group =>   2
Atom  66H    basis set group =>   2
Atom  67H    basis set group =>   2
Atom  68H    basis set group =>   2
Atom  69H    basis set group =>   2
Atom  70H    basis set group =>   2
Atom  71H    basis set group =>   2
Atom  72H    basis set group =>   2

-------------------------
BASIS SET IN INPUT FORMAT
-------------------------

 # Basis set for element : H 
 NewGTO H 
 S 3 
   1      12.2518000000      0.0372173893
   2       1.8687100000      0.2538082070
   3       0.4182080000      0.7973867639
 S 1 
   1       0.1061000000      1.0000000000
 P 2 
   1       9.0000000000      0.0402678705
   2       1.0000000000      0.9880231245
  end;

 # Basis set for element : C 
 NewGTO C 
 S 5 
   1    1243.2000000000      0.0056300977
   2     187.1450000000      0.0419506039
   3      42.5126000000      0.1846643605
   4      11.7393000000      0.4665574214
   5       3.5054800000      0.4482347783
 S 2 
   1       5.3908900000     -0.1481148174
   2       0.4933410000      1.0519817143
 S 1 
   1       0.1497410000      1.0000000000
 P 3 
   1      59.6736000000      0.0113906672
   2       9.1805600000      0.1672414929
   3       1.9365800000      0.9041087436
 P 1 
   1       0.5262960000      1.0000000000
 P 1 
   1       0.1363190000      1.0000000000
 D 1 
   1       0.8000000000      1.0000000000
  end;

 # Basis set for element : O 
 NewGTO O 
 S 5 
   1    2288.6400000000      0.0054511382
   2     344.4160000000      0.0407189228
   3      78.2538000000      0.1813694209
   4      21.7195000000      0.4655368202
   5       6.5590700000      0.4512113212
 S 2 
   1      10.4656000000     -0.1502112012
   2       0.9643510000      1.0528679834
 S 1 
   1       0.2851270000      1.0000000000
 P 3 
   1     110.8840000000      0.0113058003
   2      17.0590000000      0.1699226452
   3       3.6899900000      0.9008060328
 P 1 
   1       0.9929960000      1.0000000000
 P 1 
   1       0.2449240000      1.0000000000
 D 1 
   1       1.0000000000      1.0000000000
  end;

---------------------------------
AUXILIARY/J BASIS SET INFORMATION
---------------------------------
There are 3 groups of distinct atoms

 Group   1 Type C   : 12s5p4d2f1g contracted to 6s4p3d1f1g pattern {711111/2111/211/2/1}
 Group   2 Type H   : 5s2p1d contracted to 3s1p1d pattern {311/2/1}
 Group   3 Type O   : 12s5p4d2f1g contracted to 6s4p3d1f1g pattern {711111/2111/211/2/1}

Atom   0C    basis set group =>   1
Atom   1C    basis set group =>   1
Atom   2C    basis set group =>   1
Atom   3H    basis set group =>   2
Atom   4H    basis set group =>   2
Atom   5C    basis set group =>   1
Atom   6C    basis set group =>   1
Atom   7C    basis set group =>   1
Atom   8H    basis set group =>   2
Atom   9H    basis set group =>   2
Atom  10H    basis set group =>   2
Atom  11H    basis set group =>   2
Atom  12O    basis set group =>   3
Atom  13H    basis set group =>   2
Atom  14C    basis set group =>   1
Atom  15C    basis set group =>   1
Atom  16H    basis set group =>   2
Atom  17H    basis set group =>   2
Atom  18C    basis set group =>   1
Atom  19H    basis set group =>   2
Atom  20C    basis set group =>   1
Atom  21H    basis set group =>   2
Atom  22C    basis set group =>   1
Atom  23C    basis set group =>   1
Atom  24H    basis set group =>   2
Atom  25H    basis set group =>   2
Atom  26C    basis set group =>   1
Atom  27H    basis set group =>   2
Atom  28H    basis set group =>   2
Atom  29C    basis set group =>   1
Atom  30H    basis set group =>   2
Atom  31H    basis set group =>   2
Atom  32C    basis set group =>   1
Atom  33H    basis set group =>   2
Atom  34C    basis set group =>   1
Atom  35H    basis set group =>   2
Atom  36C    basis set group =>   1
Atom  37H    basis set group =>   2
Atom  38H    basis set group =>   2
Atom  39C    basis set group =>   1
Atom  40H    basis set group =>   2
Atom  41H    basis set group =>   2
Atom  42H    basis set group =>   2
Atom  43C    basis set group =>   1
Atom  44C    basis set group =>   1
Atom  45H    basis set group =>   2
Atom  46H    basis set group =>   2
Atom  47H    basis set group =>   2
Atom  48H    basis set group =>   2
Atom  49C    basis set group =>   1
Atom  50C    basis set group =>   1
Atom  51C    basis set group =>   1
Atom  52H    basis set group =>   2
Atom  53H    basis set group =>   2
Atom  54C    basis set group =>   1
Atom  55C    basis set group =>   1
Atom  56C    basis set group =>   1
Atom  57H    basis set group =>   2
Atom  58H    basis set group =>   2
Atom  59C    basis set group =>   1
Atom  60C    basis set group =>   1
Atom  61H    basis set group =>   2
Atom  62H    basis set group =>   2
Atom  63H    basis set group =>   2
Atom  64H    basis set group =>   2
Atom  65H    basis set group =>   2
Atom  66H    basis set group =>   2
Atom  67H    basis set group =>   2
Atom  68H    basis set group =>   2
Atom  69H    basis set group =>   2
Atom  70H    basis set group =>   2
Atom  71H    basis set group =>   2
Atom  72H    basis set group =>   2

-------------------------------------
AUXILIARY/J BASIS SET IN INPUT FORMAT
-------------------------------------

 # Auxiliary/J basis set for element : H 
 NewAuxJGTO H 
 S 3 
   1      15.6752927000      0.1007184237
   2       3.6063578000      0.3404257499
   3       1.2080016000      0.6491996172
 S 1 
   1       0.4726794000      1.0000000000
 S 1 
   1       0.2018100000      1.0000000000
 P 2 
   1       2.0281365000      0.5596620919
   2       0.5358730000      0.5596620919
 D 1 
   1       2.2165124000      1.0000000000
  end;

 # Auxiliary/J basis set for element : C 
 NewAuxJGTO C 
 S 7 
   1    1861.0916331000      0.0134602335
   2     642.9939764000      0.0299160374
   3     235.1105725000      0.1008649584
   4      90.7028894000      0.2370970548
   5      36.7794552000      0.3924037254
   6      15.6046273000      0.3195862154
   7       6.8907294000      0.0530104441
 S 1 
   1       3.1478850000     -1.0000000000
 S 1 
   1       1.4777287000      1.0000000000
 S 1 
   1       0.7076466000      1.0000000000
 S 1 
   1       0.3430122000      1.0000000000
 S 1 
   1       0.1669453000      1.0000000000
 P 2 
   1      13.5472892000     -0.6769313712
   2       5.4669419000     -0.3779500978
 P 1 
   1       2.1751721000      1.0000000000
 P 1 
   1       0.8582194000      1.0000000000
 P 1 
   1       0.3376720000      1.0000000000
 D 2 
   1       5.9287253000     -0.3533329857
   2       1.9809209000     -0.7456525731
 D 1 
   1       0.8055417000     -1.0000000000
 D 1 
   1       0.3531244000     -1.0000000000
 F 2 
   1       1.6755626000      0.6311076882
   2       0.5997536000      0.4968166032
 G 1 
   1       1.0024600000     -1.0000000000
  end;

 # Auxiliary/J basis set for element : O 
 NewAuxJGTO O 
 S 7 
   1    2876.8216605000      0.0168151159
   2    1004.7443032000      0.0340137548
   3     369.7579954000      0.1194951309
   4     142.9442404000      0.2664627624
   5      57.8366425000      0.4202764046
   6      24.3864983000      0.2765077335
   7      10.6622662000      0.0057008815
 S 1 
   1       4.8070437000     -1.0000000000
 S 1 
   1       2.2210770000      1.0000000000
 S 1 
   1       1.0447795000      1.0000000000
 S 1 
   1       0.4968425000      1.0000000000
 S 1 
   1       0.2371384000      1.0000000000
 P 2 
   1      64.2613382000     -0.2731534179
   2      16.3006076000     -0.8168011598
 P 1 
   1       4.3550542000      1.0000000000
 P 1 
   1       1.2019554000      1.0000000000
 P 1 
   1       0.3354196000      1.0000000000
 D 2 
   1       9.2146611000     -0.4661230638
   2       2.8435251000     -0.6600908911
 D 1 
   1       0.9955759000     -1.0000000000
 D 1 
   1       0.3649441000     -1.0000000000
 F 2 
   1       2.6420115000      0.5931563945
   2       0.7345613000      0.5931563945
 G 1 
   1       1.3931000000     -1.0000000000
  end;



           ************************************************************
           *        Program running with 4 parallel MPI-processes     *
           *              working on a common directory               *
           ************************************************************
------------------------------------------------------------------------------
                           ORCA GTO INTEGRAL CALCULATION
                           -- RI-GTO INTEGRALS CHOSEN --
------------------------------------------------------------------------------
------------------------------------------------------------------------------
                   ___                                                        
                  /   \      - P O W E R E D   B Y -                         
                 /     \                                                     
                 |  |  |   _    _      __       _____    __    __             
                 |  |  |  | |  | |    /  \     |  _  \  |  |  /  |          
                  \  \/   | |  | |   /    \    | | | |  |  | /  /          
                 / \  \   | |__| |  /  /\  \   | |_| |  |  |/  /          
                |  |  |   |  __  | /  /__\  \  |    /   |      \           
                |  |  |   | |  | | |   __   |  |    \   |  |\   \          
                \     /   | |  | | |  |  |  |  | |\  \  |  | \   \       
                 \___/    |_|  |_| |__|  |__|  |_| \__\ |__|  \__/        
                                                                              
                      - O R C A' S   B I G   F R I E N D -                    
                                      &                                       
                       - I N T E G R A L  F E E D E R -                       
                                                                              
 v1 FN, 2020, v2 2021                                                         
------------------------------------------------------------------------------


Reading SHARK input file inpS.SHARKINP.tmp ... ok
----------------------
SHARK INTEGRAL PACKAGE
----------------------

Number of atoms                             ...     73
Number of basis functions                   ...    713
Number of shells                            ...    335
Maximum angular momentum                    ...      2
Integral batch strategy                     ... SHARK/LIBINT Hybrid
RI-J (if used) integral strategy            ... SPLIT-RIJ (Revised 2003 algorithm where possible)
Printlevel                                  ...      1
Contraction scheme used                     ... SEGMENTED contraction
Coulomb Range Separation                    ... NOT USED
Exchange Range Separation                   ... NOT USED
Finite Nucleus Model                        ... NOT USED
Auxiliary Coulomb fitting basis             ... AVAILABLE
   # of basis functions in Aux-J            ...   1905
   # of shells in Aux-J                     ...    655
   Maximum angular momentum in Aux-J        ...      4
Auxiliary J/K fitting basis                 ... NOT available
Auxiliary Correlation fitting basis         ... NOT available
Auxiliary 'external' fitting basis          ... NOT available
Integral threshold                          ...     3.000000e-11
Primitive cut-off                           ...     1.000000e-12
Primitive pair pre-selection threshold      ...     1.000000e-12

Calculating pre-screening integrals         ... done (  0.1 sec) Dimension = 335
Organizing shell pair data                  ... done (  0.2 sec)
Shell pair information
Total number of shell pairs                 ...     56280
Shell pairs after pre-screening             ...     30959
Total number of primitive shell pairs       ...    225367
Primitive shell pairs kept                  ...     73081
          la=0 lb=0:   9447 shell pairs
          la=1 lb=0:  12716 shell pairs
          la=1 lb=1:   4167 shell pairs
          la=2 lb=0:   2711 shell pairs
          la=2 lb=1:   1725 shell pairs
          la=2 lb=2:    193 shell pairs

Calculating one electron integrals          ... done (  0.1 sec)
Calculating RI/J V-Matrix + Cholesky decomp.... done (  0.2 sec)
Calculating Nuclear repulsion               ... done (  0.0 sec) ENN=   2745.733515095807 Eh

SHARK setup successfully completed in   0.7 seconds

Maximum memory used throughout the entire GTOINT-calculation: 60.6 MB


           ************************************************************
           *        Program running with 4 parallel MPI-processes     *
           *              working on a common directory               *
           ************************************************************
-------------------------------------------------------------------------------
                                 ORCA SCF
-------------------------------------------------------------------------------

------------
SCF SETTINGS
------------
Hamiltonian:
 Density Functional     Method          .... DFT(GTOs)
 Exchange Functional    Exchange        .... revTPSS
 Correlation Functional Correlation     .... revTPSS
 LDA part of GGA corr.  LDAOpt          .... PW91-LDA
 Gradients option       PostSCFGGA      .... off
   Density functional embedding theory  .... OFF
 RI-approximation to the Coulomb term is turned on
   Number of AuxJ basis functions       .... 1905


General Settings:
 Integral files         IntName         .... inpS
 Hartree-Fock type      HFTyp           .... RHF
 Total Charge           Charge          ....    0
 Multiplicity           Mult            ....    1
 Number of Electrons    NEL             ....  220
 Basis Dimension        Dim             ....  713
 Nuclear Repulsion      ENuc            ....   2745.7335150958 Eh

Convergence Acceleration:
 DIIS                   CNVDIIS         .... on
   Start iteration      DIISMaxIt       ....    12
   Startup error        DIISStart       ....  0.200000
   # of expansion vecs  DIISMaxEq       ....     5
   Bias factor          DIISBfac        ....   1.050
   Max. coefficient     DIISMaxC        ....  10.000
 Trust-Rad. Augm. Hess. CNVTRAH         .... auto
   Auto Start mean grad. ratio tolernc. ....  1.125000
   Auto Start start iteration           ....    20
   Auto Start num. interpolation iter.  ....    10
   Max. Number of Micro iterations      ....    16
   Max. Number of Macro iterations      .... Maxiter - #DIIS iter
   Number of Davidson start vectors     ....     2
   Converg. threshold I  (grad. norm)   ....   1.000e-04
   Converg. threshold II (energy diff.) ....   1.000e-07
   Grad. Scal. Fac. for Micro threshold ....   0.100
   Minimum threshold for Micro iter.    ....   0.010
   NR start threshold (gradient norm)   ....   0.001
   Initial trust radius                 ....   0.400
   Minimum AH scaling param. (alpha)    ....   1.000
   Maximum AH scaling param. (alpha)    .... 1000.000
   Orbital update algorithm             .... Taylor
   White noise on init. David. guess    .... on
   Maximum white noise                  ....   0.010
   Quad. conv. algorithm                .... NR
 SOSCF                  CNVSOSCF        .... off
 Level Shifting         CNVShift        .... on
   Level shift para.    LevelShift      ....    0.2500
   Turn off err/grad.   ShiftErr        ....    0.0010
 Zerner damping         CNVZerner       .... off
 Static damping         CNVDamp         .... on
   Fraction old density DampFac         ....    0.7000
   Max. Damping (<1)    DampMax         ....    0.9800
   Min. Damping (>=0)   DampMin         ....    0.0000
   Turn off err/grad.   DampErr         ....    0.1000
 Fernandez-Rico         CNVRico         .... off

SCF Procedure:
 Maximum # iterations   MaxIter         ....   125
 SCF integral mode      SCFMode         .... Direct
   Integral package                     .... SHARK and LIBINT hybrid scheme
 Reset frequency        DirectResetFreq ....    20
 Integral Threshold     Thresh          ....  3.000e-11 Eh
 Primitive CutOff       TCut            ....  1.000e-12 Eh

Convergence Tolerance:
 Convergence Check Mode ConvCheckMode   .... Total+1el-Energy
 Convergence forced     ConvForced      .... 0
 Energy Change          TolE            ....  1.000e-07 Eh
 1-El. energy change                    ....  1.000e-04 Eh
 DIIS Error             TolErr          ....  1.000e-07


Diagonalization of the overlap matrix:
Smallest eigenvalue                        ... 5.078e-04
Time for diagonalization                   ...    0.078 sec
Threshold for overlap eigenvalues          ... 1.000e-08
Number of eigenvalues below threshold      ... 0
Time for construction of square roots      ...    0.054 sec
Total time needed                          ...    0.135 sec

Time for model grid setup =    0.812 sec

------------------------------
INITIAL GUESS: MODEL POTENTIAL
------------------------------
Loading Hartree-Fock densities                     ... done
Calculating cut-offs                               ... done
Initializing the effective Hamiltonian             ... done
Setting up the integral package (SHARK)            ... done
Starting the Coulomb interaction                   ... done (   0.6 sec)
Reading the grid                                   ... done
Mapping shells                                     ... done
Starting the XC term evaluation                    ... done (   0.4 sec)
  promolecular density results
     # of electrons  =    219.971048075
     EX              =   -164.432854825
     EC              =     -7.326920599
     EX+EC           =   -171.759775425
Transforming the Hamiltonian                       ... done (   0.0 sec)
Diagonalizing the Hamiltonian                      ... done (   0.1 sec)
Back transforming the eigenvectors                 ... done (   0.0 sec)
Now organizing SCF variables                       ... done
                      ------------------
                      INITIAL GUESS DONE (   2.0 sec)
                      ------------------
-------------------
DFT GRID GENERATION
-------------------

General Integration Accuracy     IntAcc      ... 4.388
Radial Grid Type                 RadialGrid  ... OptM3 with GC (2021)
Angular Grid (max. ang.)         AngularGrid ... 4 (Lebedev-302)
Angular grid pruning method      GridPruning ... 4 (adaptive)
Weight generation scheme         WeightScheme... Becke
Basis function cutoff            BFCut       ... 1.0000e-11
Integration weight cutoff        WCut        ... 1.0000e-14
Angular grids for H and He will be reduced by one unit
Partially contracted basis set               ... off
Rotationally invariant grid construction     ... off

Total number of grid points                  ...   310094
Total number of batches                      ...     4881
Average number of points per batch           ...       63
Average number of grid points per atom       ...     4248
Time for grid setup =    3.207 sec


--------------------
CPCM SOLVATION MODEL
--------------------
CPCM parameters:
  Epsilon                                         ...       4.9000
  Refrac                                          ...       1.4500
  Rsolv                                           ...       1.3000
  Surface type                                    ... GAUSSIAN VDW
  Epsilon function type                           ...         CPCM
Radii:
 Radius for C  used is    3.8550 Bohr (=   2.0400 Ang.)
 Radius for H  used is    2.4944 Bohr (=   1.3200 Ang.)
 Radius for O  used is    3.4469 Bohr (=   1.8240 Ang.)
Calculating surface                               ...        done! (  0.0s)
GEPOL surface points                              ...         3635
GEPOL Volume                                      ...    3597.8317
GEPOL Surface-area                                ...    1792.2870
Calculating surface distance matrix               ...        done! (  0.1s)
Performing Cholesky decomposition & store         ...        done! (  0.5s)
Overall time for CPCM initialization              ...                 0.6s
--------------
SCF ITERATIONS
--------------
ITER       Energy         Delta-E        Max-DP      RMS-DP      [F,P]     Damp
               ***  Starting incremental Fock matrix formation  ***

  HOMO= 109 E= -1.872 eV LUMO=  7.825 eV gap=   9.697 eV
  0  -1167.5236658475   0.000000000000 0.05435591  0.00082747  0.2581816 0.7000

  HOMO= 109 E= -3.351 eV LUMO=  6.713 eV gap=  10.063 eV
  1  -1167.8957941289  -0.372128281453 0.02887511  0.00061144  0.1005999 0.7000
                               ***Turning on DIIS***

  HOMO= 109 E= -4.327 eV LUMO=  5.822 eV gap=  10.149 eV
  2  -1168.0420968523  -0.146302723349 0.04787736  0.00101171  0.0325232 0.0000

  HOMO= 109 E= -4.954 eV LUMO=  5.231 eV gap=  10.185 eV
  3  -1168.2386388969  -0.196542044587 0.02313623  0.00046935  0.0530030 0.0000

  HOMO= 109 E= -4.991 eV LUMO=  5.194 eV gap=  10.185 eV
  4  -1168.3057322199  -0.067093323016 0.00758428  0.00015202  0.0108868 0.0000

  HOMO= 109 E= -4.942 eV LUMO=  5.250 eV gap=  10.192 eV
  5  -1168.3087994105  -0.003067190592 0.00313449  0.00005676  0.0094575 0.0000

  HOMO= 109 E= -4.922 eV LUMO=  5.267 eV gap=  10.189 eV
  6  -1168.3090736040  -0.000274193570 0.00121453  0.00001922  0.0027864 0.0000

  HOMO= 109 E= -4.924 eV LUMO= -1.538 eV gap=   3.386 eV
  7  -1168.3090929998  -0.000019395769 0.00072090  0.00001168  0.0005699 0.0000

  HOMO= 109 E= -4.923 eV LUMO= -1.536 eV gap=   3.386 eV
  8  -1168.3090960437  -0.000003043929 0.00025346  0.00000288  0.0003823 0.0000

  HOMO= 109 E= -4.920 eV LUMO= -1.534 eV gap=   3.386 eV
  9  -1168.3090966384  -0.000000594675 0.00016782  0.00000158  0.0002710 0.0000

  HOMO= 109 E= -4.921 eV LUMO= -1.534 eV gap=   3.386 eV
 10  -1168.3090969268  -0.000000288391 0.00006158  0.00000070  0.0001026 0.0000

  HOMO= 109 E= -4.921 eV LUMO= -1.535 eV gap=   3.386 eV
 11  -1168.3090969688  -0.000000042010 0.00002637  0.00000027  0.0000285 0.0000

  HOMO= 109 E= -4.921 eV LUMO= -1.535 eV gap=   3.386 eV
 12  -1168.3090969560   0.000000012807 0.00000985  0.00000012  0.0000148 0.0000

  HOMO= 109 E= -4.921 eV LUMO= -1.535 eV gap=   3.386 eV
 13  -1168.3090970067  -0.000000050656 0.00000548  0.00000005  0.0000087 0.0000
                 **** Energy Check signals convergence ****

               *****************************************************
               *                     SUCCESS                       *
               *           SCF CONVERGED AFTER  14 CYCLES          *
               *****************************************************


----------------
TOTAL SCF ENERGY
----------------

Total Energy       :        -1168.30909701 Eh          -31791.30677 eV

Components:
Nuclear Repulsion  :         2745.73351510 Eh           74715.20739 eV
Electronic Energy  :        -3914.04261211 Eh         -106506.51416 eV
One Electron Energy:        -7037.82296212 Eh         -191508.89892 eV
Two Electron Energy:         3123.78035001 Eh           85002.38476 eV
CPCM Dielectric    :           -0.01042988 Eh              -0.28381 eV

Virial components:
Potential Energy   :        -2330.41353098 Eh          -63413.77607 eV
Kinetic Energy     :         1162.10443397 Eh           31622.46930 eV
Virial Ratio       :            2.00533916


DFT components:
N(Alpha)           :      110.000232309198 electrons
N(Beta)            :      110.000232309198 electrons
N(Total)           :      220.000464618397 electrons
E(X)               :     -169.584735580942 Eh       
E(C)               :       -7.443015426684 Eh       
E(XC)              :     -177.027751007626 Eh       
DFET-embed. en.    :        0.000000000000 Eh       
CPCM Solvation Model Properties:
Surface-charge          :           -0.04575368
Charge-correction       :           -0.00003186 Eh              -0.00087 eV
Free-energy (cav+disp)  :  This term is not implemented in the current solvation scheme

---------------
SCF CONVERGENCE
---------------

  Last Energy change         ...   -3.2073e-09  Tolerance :   1.0000e-07
  Last MAX-Density change    ...    2.8893e-06  Tolerance :   1.0000e-05
  Last RMS-Density change    ...    2.7224e-08  Tolerance :   1.0000e-06
  Last DIIS Error            ...    3.2666e-06  Tolerance :   1.0000e-07

             **** THE GBW FILE WAS UPDATED (inpS.gbw) ****
             **** DENSITY inpS.scfp WAS UPDATED ****
             **** ENERGY FILE WAS UPDATED (inpS.en.tmp) ****
             **** THE GBW FILE WAS UPDATED (inpS.gbw) ****
             **** DENSITY inpS.scfp WAS UPDATED ****
----------------
ORBITAL ENERGIES
----------------

  NO   OCC          E(Eh)            E(eV) 
   0   2.0000     -18.905812      -514.4533 
   1   2.0000     -10.057186      -273.6699 
   2   2.0000     -10.015944      -272.5477 
   3   2.0000     -10.013538      -272.4822 
   4   2.0000     -10.013485      -272.4808 
   5   2.0000     -10.011757      -272.4338 
   6   2.0000     -10.011712      -272.4325 
   7   2.0000     -10.010504      -272.3997 
   8   2.0000     -10.010419      -272.3973 
   9   2.0000     -10.008895      -272.3559 
  10   2.0000     -10.008515      -272.3455 
  11   2.0000     -10.007834      -272.3270 
  12   2.0000     -10.006953      -272.3030 
  13   2.0000     -10.006781      -272.2984 
  14   2.0000     -10.006748      -272.2975 
  15   2.0000     -10.005935      -272.2753 
  16   2.0000     -10.004154      -272.2269 
  17   2.0000     -10.001074      -272.1431 
  18   2.0000     -10.000526      -272.1281 
  19   2.0000     -10.000191      -272.1190 
  20   2.0000      -9.999777      -272.1078 
  21   2.0000      -9.998624      -272.0764 
  22   2.0000      -9.996790      -272.0265 
  23   2.0000      -9.995937      -272.0033 
  24   2.0000      -9.995845      -272.0008 
  25   2.0000      -9.995830      -272.0004 
  26   2.0000      -9.995659      -271.9957 
  27   2.0000      -9.995340      -271.9870 
  28   2.0000      -9.995208      -271.9834 
  29   2.0000      -0.956025       -26.0148 
  30   2.0000      -0.807504       -21.9733 
  31   2.0000      -0.791166       -21.5287 
  32   2.0000      -0.770360       -20.9626 
  33   2.0000      -0.756809       -20.5938 
  34   2.0000      -0.734516       -19.9872 
  35   2.0000      -0.728076       -19.8120 
  36   2.0000      -0.708780       -19.2869 
  37   2.0000      -0.708159       -19.2700 
  38   2.0000      -0.693548       -18.8724 
  39   2.0000      -0.675837       -18.3904 
  40   2.0000      -0.658410       -17.9162 
  41   2.0000      -0.651326       -17.7235 
  42   2.0000      -0.635902       -17.3038 
  43   2.0000      -0.627724       -17.0812 
  44   2.0000      -0.623467       -16.9654 
  45   2.0000      -0.616512       -16.7762 
  46   2.0000      -0.592367       -16.1191 
  47   2.0000      -0.589043       -16.0287 
  48   2.0000      -0.560362       -15.2482 
  49   2.0000      -0.549151       -14.9432 
  50   2.0000      -0.547720       -14.9042 
  51   2.0000      -0.537399       -14.6234 
  52   2.0000      -0.527395       -14.3511 
  53   2.0000      -0.514617       -14.0034 
  54   2.0000      -0.489183       -13.3113 
  55   2.0000      -0.474586       -12.9141 
  56   2.0000      -0.468663       -12.7530 
  57   2.0000      -0.464075       -12.6281 
  58   2.0000      -0.451447       -12.2845 
  59   2.0000      -0.447065       -12.1653 
  60   2.0000      -0.438269       -11.9259 
  61   2.0000      -0.430070       -11.7028 
  62   2.0000      -0.415511       -11.3066 
  63   2.0000      -0.413935       -11.2637 
  64   2.0000      -0.411710       -11.2032 
  65   2.0000      -0.407996       -11.1021 
  66   2.0000      -0.402399       -10.9498 
  67   2.0000      -0.396888       -10.7999 
  68   2.0000      -0.395974       -10.7750 
  69   2.0000      -0.394300       -10.7294 
  70   2.0000      -0.386466       -10.5163 
  71   2.0000      -0.385602       -10.4928 
  72   2.0000      -0.378616       -10.3027 
  73   2.0000      -0.375174       -10.2090 
  74   2.0000      -0.371583       -10.1113 
  75   2.0000      -0.366176        -9.9641 
  76   2.0000      -0.360044        -9.7973 
  77   2.0000      -0.357204        -9.7200 
  78   2.0000      -0.353610        -9.6222 
  79   2.0000      -0.348189        -9.4747 
  80   2.0000      -0.346332        -9.4242 
  81   2.0000      -0.344756        -9.3813 
  82   2.0000      -0.341853        -9.3023 
  83   2.0000      -0.335892        -9.1401 
  84   2.0000      -0.331210        -9.0127 
  85   2.0000      -0.325293        -8.8517 
  86   2.0000      -0.323169        -8.7939 
  87   2.0000      -0.320633        -8.7249 
  88   2.0000      -0.316153        -8.6030 
  89   2.0000      -0.315733        -8.5915 
  90   2.0000      -0.308968        -8.4075 
  91   2.0000      -0.307843        -8.3768 
  92   2.0000      -0.300390        -8.1740 
  93   2.0000      -0.295541        -8.0421 
  94   2.0000      -0.289659        -7.8820 
  95   2.0000      -0.288727        -7.8567 
  96   2.0000      -0.285252        -7.7621 
  97   2.0000      -0.284052        -7.7295 
  98   2.0000      -0.281210        -7.6521 
  99   2.0000      -0.279189        -7.5971 
 100   2.0000      -0.275919        -7.5082 
 101   2.0000      -0.273988        -7.4556 
 102   2.0000      -0.271851        -7.3974 
 103   2.0000      -0.266585        -7.2542 
 104   2.0000      -0.261137        -7.1059 
 105   2.0000      -0.250394        -6.8136 
 106   2.0000      -0.233473        -6.3531 
 107   2.0000      -0.227562        -6.1923 
 108   2.0000      -0.212349        -5.7783 
 109   2.0000      -0.180844        -4.9210 
 110   0.0000      -0.056394        -1.5346 
 111   0.0000      -0.013138        -0.3575 
 112   0.0000      -0.003590        -0.0977 
 113   0.0000       0.031608         0.8601 
 114   0.0000       0.041804         1.1376 
 115   0.0000       0.044305         1.2056 
 116   0.0000       0.048200         1.3116 
 117   0.0000       0.049136         1.3371 
 118   0.0000       0.050771         1.3816 
 119   0.0000       0.055306         1.5049 
 120   0.0000       0.059389         1.6161 
 121   0.0000       0.064205         1.7471 
 122   0.0000       0.068906         1.8750 
 123   0.0000       0.072274         1.9667 
 124   0.0000       0.074603         2.0301 
 125   0.0000       0.077893         2.1196 
 126   0.0000       0.083018         2.2590 
 127   0.0000       0.085728         2.3328 
 128   0.0000       0.089840         2.4447 
 129   0.0000       0.092640         2.5209 
 130   0.0000       0.096292         2.6202 
 131   0.0000       0.101246         2.7550 
 132   0.0000       0.104338         2.8392 
 133   0.0000       0.107691         2.9304 
 134   0.0000       0.108010         2.9391 
 135   0.0000       0.110280         3.0009 
 136   0.0000       0.114045         3.1033 
 137   0.0000       0.119861         3.2616 
 138   0.0000       0.121724         3.3123 
 139   0.0000       0.124083         3.3765 
 140   0.0000       0.126189         3.4338 
 141   0.0000       0.127561         3.4711 
 142   0.0000       0.130439         3.5494 
 143   0.0000       0.134270         3.6537 
 144   0.0000       0.136774         3.7218 
 145   0.0000       0.139972         3.8088 
 146   0.0000       0.144773         3.9395 
 147   0.0000       0.146483         3.9860 
 148   0.0000       0.147304         4.0083 
 149   0.0000       0.150981         4.1084 
 150   0.0000       0.153637         4.1807 
 151   0.0000       0.157823         4.2946 
 152   0.0000       0.161162         4.3854 
 153   0.0000       0.162378         4.4185 
 154   0.0000       0.167244         4.5509 
 155   0.0000       0.169081         4.6009 
 156   0.0000       0.174827         4.7573 
 157   0.0000       0.178203         4.8492 
 158   0.0000       0.183156         4.9839 
 159   0.0000       0.186047         5.0626 
 160   0.0000       0.191273         5.2048 
 161   0.0000       0.194685         5.2976 
 162   0.0000       0.197318         5.3693 
 163   0.0000       0.198708         5.4071 
 164   0.0000       0.201787         5.4909 
 165   0.0000       0.203180         5.5288 
 166   0.0000       0.208109         5.6629 
 167   0.0000       0.209026         5.6879 
 168   0.0000       0.214497         5.8368 
 169   0.0000       0.219012         5.9596 
 170   0.0000       0.225364         6.1325 
 171   0.0000       0.227731         6.1969 
 172   0.0000       0.229476         6.2444 
 173   0.0000       0.230228         6.2648 
 174   0.0000       0.231120         6.2891 
 175   0.0000       0.242279         6.5927 
 176   0.0000       0.251237         6.8365 
 177   0.0000       0.257941         7.0189 
 178   0.0000       0.264190         7.1890 
 179   0.0000       0.269887         7.3440 
 180   0.0000       0.273712         7.4481 
 181   0.0000       0.286089         7.7849 
 182   0.0000       0.291726         7.9383 
 183   0.0000       0.295315         8.0359 
 184   0.0000       0.298734         8.1290 
 185   0.0000       0.331656         9.0248 
 186   0.0000       0.334182         9.0936 
 187   0.0000       0.338678         9.2159 
 188   0.0000       0.343797         9.3552 
 189   0.0000       0.351137         9.5549 
 190   0.0000       0.356154         9.6914 
 191   0.0000       0.360833         9.8188 
 192   0.0000       0.363034         9.8787 
 193   0.0000       0.370859        10.0916 
 194   0.0000       0.373207        10.1555 
 195   0.0000       0.379815        10.3353 
 196   0.0000       0.383133        10.4256 
 197   0.0000       0.387019        10.5313 
 198   0.0000       0.396058        10.7773 
 199   0.0000       0.397271        10.8103 
 200   0.0000       0.403243        10.9728 
 201   0.0000       0.406089        11.0502 
 202   0.0000       0.408640        11.1197 
 203   0.0000       0.418901        11.3989 
 204   0.0000       0.429048        11.6750 
 205   0.0000       0.434217        11.8156 
 206   0.0000       0.439701        11.9649 
 207   0.0000       0.443187        12.0597 
 208   0.0000       0.453514        12.3407 
 209   0.0000       0.459123        12.4934 
 210   0.0000       0.460946        12.5430 
 211   0.0000       0.466766        12.7013 
 212   0.0000       0.470880        12.8133 
 213   0.0000       0.473304        12.8793 
 214   0.0000       0.476502        12.9663 
 215   0.0000       0.479848        13.0573 
 216   0.0000       0.488038        13.2802 
 217   0.0000       0.489303        13.3146 
 218   0.0000       0.493562        13.4305 
 219   0.0000       0.504196        13.7199 
 220   0.0000       0.506167        13.7735 
 221   0.0000       0.509263        13.8577 
 222   0.0000       0.514058        13.9882 
 223   0.0000       0.524573        14.2744 
 224   0.0000       0.528548        14.3825 
 225   0.0000       0.533136        14.5074 
 226   0.0000       0.539066        14.6687 
 227   0.0000       0.543529        14.7902 
 228   0.0000       0.545995        14.8573 
 229   0.0000       0.549631        14.9562 
 230   0.0000       0.553205        15.0535 
 231   0.0000       0.556325        15.1384 
 232   0.0000       0.559265        15.2184 
 233   0.0000       0.565617        15.3912 
 234   0.0000       0.566913        15.4265 
 235   0.0000       0.567847        15.4519 
 236   0.0000       0.571461        15.5502 
 237   0.0000       0.575070        15.6485 
 238   0.0000       0.578012        15.7285 
 239   0.0000       0.579622        15.7723 
 240   0.0000       0.582905        15.8617 
 241   0.0000       0.585437        15.9306 
 242   0.0000       0.590757        16.0753 
 243   0.0000       0.591296        16.0900 
 244   0.0000       0.592461        16.1217 
 245   0.0000       0.596120        16.2213 
 246   0.0000       0.598066        16.2742 
 247   0.0000       0.599168        16.3042 
 248   0.0000       0.602427        16.3929 
 249   0.0000       0.604307        16.4440 
 250   0.0000       0.606707        16.5093 
 251   0.0000       0.611144        16.6301 
 252   0.0000       0.612946        16.6791 
 253   0.0000       0.614010        16.7081 
 254   0.0000       0.615791        16.7565 
 255   0.0000       0.619750        16.8642 
 256   0.0000       0.627044        17.0627 
 257   0.0000       0.627663        17.0796 
 258   0.0000       0.630011        17.1435 
 259   0.0000       0.631057        17.1719 
 260   0.0000       0.634410        17.2632 
 261   0.0000       0.635459        17.2917 
 262   0.0000       0.636805        17.3283 
 263   0.0000       0.641757        17.4631 
 264   0.0000       0.643828        17.5195 
 265   0.0000       0.646715        17.5980 
 266   0.0000       0.650977        17.7140 
 267   0.0000       0.652984        17.7686 
 268   0.0000       0.656210        17.8564 
 269   0.0000       0.657723        17.8975 
 270   0.0000       0.658135        17.9088 
 271   0.0000       0.662809        18.0359 
 272   0.0000       0.664142        18.0722 
 273   0.0000       0.668360        18.1870 
 274   0.0000       0.669439        18.2164 
 275   0.0000       0.672552        18.3011 
 276   0.0000       0.677024        18.4228 
 277   0.0000       0.682684        18.5768 
 278   0.0000       0.687671        18.7125 
 279   0.0000       0.690840        18.7987 
 280   0.0000       0.692204        18.8358 
 281   0.0000       0.694151        18.8888 
 282   0.0000       0.698104        18.9964 
 283   0.0000       0.700451        19.0602 
 284   0.0000       0.707674        19.2568 
 285   0.0000       0.712379        19.3848 
 286   0.0000       0.716533        19.4978 
 287   0.0000       0.720538        19.6068 
 288   0.0000       0.723634        19.6911 
 289   0.0000       0.730198        19.8697 
 290   0.0000       0.741211        20.1694 
 291   0.0000       0.746337        20.3088 
 292   0.0000       0.747868        20.3505 
 293   0.0000       0.756752        20.5923 
 294   0.0000       0.766893        20.8682 
 295   0.0000       0.768102        20.9011 
 296   0.0000       0.773658        21.0523 
 297   0.0000       0.779968        21.2240 
 298   0.0000       0.790062        21.4987 
 299   0.0000       0.792078        21.5535 
 300   0.0000       0.797162        21.6919 
 301   0.0000       0.803708        21.8700 
 302   0.0000       0.817993        22.2587 
 303   0.0000       0.829023        22.5589 
 304   0.0000       0.835426        22.7331 
 305   0.0000       0.849438        23.1144 
 306   0.0000       0.863398        23.4943 
 307   0.0000       0.883740        24.0478 
 308   0.0000       0.893549        24.3147 
 309   0.0000       0.912892        24.8411 
 310   0.0000       0.915772        24.9194 
 311   0.0000       0.931198        25.3392 
 312   0.0000       0.942624        25.6501 
 313   0.0000       0.952825        25.9277 
 314   0.0000       0.965387        26.2695 
 315   0.0000       0.975547        26.5460 
 316   0.0000       0.988384        26.8953 
 317   0.0000       1.022610        27.8266 
 318   0.0000       1.033664        28.1274 
 319   0.0000       1.042028        28.3550 
 320   0.0000       1.056607        28.7517 
 321   0.0000       1.061733        28.8912 
 322   0.0000       1.076547        29.2943 
 323   0.0000       1.108104        30.1531 
 324   0.0000       1.124539        30.6003 
 325   0.0000       1.141616        31.0649 
 326   0.0000       1.149256        31.2728 
 327   0.0000       1.165080        31.7034 
 328   0.0000       1.177078        32.0299 
 329   0.0000       1.187279        32.3075 
 330   0.0000       1.197955        32.5980 
 331   0.0000       1.221981        33.2518 
 332   0.0000       1.229241        33.4493 
 333   0.0000       1.245347        33.8876 
 334   0.0000       1.256025        34.1782 
 335   0.0000       1.267870        34.5005 
 336   0.0000       1.276325        34.7306 
 337   0.0000       1.284619        34.9563 
 338   0.0000       1.298283        35.3281 
 339   0.0000       1.323861        36.0241 
 340   0.0000       1.328466        36.1494 
 341   0.0000       1.328822        36.1591 
 342   0.0000       1.349608        36.7247 
 343   0.0000       1.359996        37.0074 
 344   0.0000       1.366168        37.1753 
 345   0.0000       1.377918        37.4951 
 346   0.0000       1.387102        37.7450 
 347   0.0000       1.391474        37.8639 
 348   0.0000       1.394972        37.9591 
 349   0.0000       1.410987        38.3949 
 350   0.0000       1.413084        38.4520 
 351   0.0000       1.430592        38.9284 
 352   0.0000       1.433687        39.0126 
 353   0.0000       1.440763        39.2052 
 354   0.0000       1.452769        39.5318 
 355   0.0000       1.463743        39.8305 
 356   0.0000       1.469470        39.9863 
 357   0.0000       1.495940        40.7066 
 358   0.0000       1.506955        41.0063 
 359   0.0000       1.510548        41.1041 
 360   0.0000       1.519162        41.3385 
 361   0.0000       1.523396        41.4537 
 362   0.0000       1.533069        41.7169 
 363   0.0000       1.549035        42.1514 
 364   0.0000       1.556251        42.3477 
 365   0.0000       1.562439        42.5161 
 366   0.0000       1.574026        42.8314 
 367   0.0000       1.578160        42.9439 
 368   0.0000       1.601258        43.5724 
 369   0.0000       1.611161        43.8419 
 370   0.0000       1.615538        43.9610 
 371   0.0000       1.621719        44.1292 
 372   0.0000       1.629381        44.3377 
 373   0.0000       1.636233        44.5242 
 374   0.0000       1.647953        44.8431 
 375   0.0000       1.652343        44.9625 
 376   0.0000       1.665135        45.3106 
 377   0.0000       1.671565        45.4856 
 378   0.0000       1.680162        45.7195 
 379   0.0000       1.684154        45.8282 
 380   0.0000       1.689580        45.9758 
 381   0.0000       1.695895        46.1476 
 382   0.0000       1.698666        46.2231 
 383   0.0000       1.702423        46.3253 
 384   0.0000       1.708375        46.4873 
 385   0.0000       1.721366        46.8408 
 386   0.0000       1.721664        46.8489 
 387   0.0000       1.728434        47.0331 
 388   0.0000       1.734575        47.2002 
 389   0.0000       1.738851        47.3166 
 390   0.0000       1.739858        47.3439 
 391   0.0000       1.746401        47.5220 
 392   0.0000       1.756012        47.7835 
 393   0.0000       1.767436        48.0944 
 394   0.0000       1.770967        48.1905 
 395   0.0000       1.772370        48.2286 
 396   0.0000       1.776509        48.3413 
 397   0.0000       1.781422        48.4750 
 398   0.0000       1.789563        48.6965 
 399   0.0000       1.793820        48.8123 
 400   0.0000       1.798151        48.9302 
 401   0.0000       1.799907        48.9780 
 402   0.0000       1.804442        49.1014 
 403   0.0000       1.809289        49.2332 
 404   0.0000       1.815145        49.3926 
 405   0.0000       1.817953        49.4690 
 406   0.0000       1.827097        49.7179 
 407   0.0000       1.831204        49.8296 
 408   0.0000       1.836458        49.9726 
 409   0.0000       1.842229        50.1296 
 410   0.0000       1.847452        50.2717 
 411   0.0000       1.865914        50.7741 
 412   0.0000       1.872458        50.9522 
 413   0.0000       1.881233        51.1910 
 414   0.0000       1.890432        51.4413 
 415   0.0000       1.894793        51.5599 
 416   0.0000       1.901084        51.7311 
 417   0.0000       1.905388        51.8482 
 418   0.0000       1.911133        52.0046 
 419   0.0000       1.923525        52.3418 
 420   0.0000       1.934906        52.6515 
 421   0.0000       1.937536        52.7230 
 422   0.0000       1.941203        52.8228 
 423   0.0000       1.947113        52.9836 
 424   0.0000       1.950724        53.0819 
 425   0.0000       1.954176        53.1758 
 426   0.0000       1.965044        53.4716 
 427   0.0000       1.967701        53.5439 
 428   0.0000       1.976719        53.7892 
 429   0.0000       1.978968        53.8505 
 430   0.0000       1.981036        53.9067 
 431   0.0000       1.986586        54.0578 
 432   0.0000       1.992493        54.2185 
 433   0.0000       1.993776        54.2534 
 434   0.0000       2.002100        54.4799 
 435   0.0000       2.008704        54.6596 
 436   0.0000       2.010791        54.7164 
 437   0.0000       2.013088        54.7789 
 438   0.0000       2.018459        54.9251 
 439   0.0000       2.022506        55.0352 
 440   0.0000       2.029993        55.2389 
 441   0.0000       2.032590        55.3096 
 442   0.0000       2.039380        55.4943 
 443   0.0000       2.043321        55.6016 
[...]

 --------------
 Nucleus  47H :
 --------------

Diamagnetic contribution to the shielding tensor (ppm) : 
            31.135          2.381         0.353
             0.304         49.286        -2.554
            -0.130         -2.167        41.833

Paramagnetic contribution to the shielding tensor (ppm): 
            -2.663         -2.687         0.414
            -0.113        -14.082         0.343
             0.471         -0.227       -11.750

Total shielding tensor (ppm): 
            28.471         -0.307         0.767
             0.190         35.204        -2.211
             0.341         -2.394        30.083


 Diagonalized sT*s matrix:
 
 sDSO            32.740           39.691           49.823  iso=      40.751
 sPSO            -4.527          -10.241          -13.727  iso=      -9.498
        ---------------  ---------------  ---------------
 Total           28.213           29.450           36.095  iso=      31.253

 --------------
 Nucleus  48H :
 --------------

Diamagnetic contribution to the shielding tensor (ppm) : 
            36.673          1.027        -1.037
             1.437         37.362       -10.454
            -6.359        -10.371        45.686

Paramagnetic contribution to the shielding tensor (ppm): 
            -5.797         -0.258         1.346
            -1.717         -7.705         8.067
             7.791          7.750       -16.766

Total shielding tensor (ppm): 
            30.875          0.769         0.309
            -0.279         29.658        -2.387
             1.431         -2.622        28.921


 Diagonalized sT*s matrix:
 
 sDSO            32.958           39.544           47.219  iso=      39.907
 sPSO            -6.358           -8.663          -15.246  iso=     -10.089
        ---------------  ---------------  ---------------
 Total           26.600           30.881           31.972  iso=      29.818

 --------------
 Nucleus  52H :
 --------------

Diamagnetic contribution to the shielding tensor (ppm) : 
            39.789         -2.845        -0.725
            -1.219         50.226         6.516
             3.323         10.887        35.117

Paramagnetic contribution to the shielding tensor (ppm): 
            -5.912          4.314         3.881
             4.016        -28.736        -5.450
            -0.231        -10.173       -12.417

Total shielding tensor (ppm): 
            33.877          1.469         3.157
             2.797         21.490         1.066
             3.092          0.713        22.701


 Diagonalized sT*s matrix:
 
 sDSO            42.590           42.094           40.448  iso=      41.711
 sPSO           -21.597          -20.094           -5.373  iso=     -15.688
        ---------------  ---------------  ---------------
 Total           20.993           22.000           35.074  iso=      26.022

 --------------
 Nucleus  53H :
 --------------

Diamagnetic contribution to the shielding tensor (ppm) : 
            39.954         -4.684        -2.166
            -9.049         45.958        14.248
            -6.925          0.824        43.787

Paramagnetic contribution to the shielding tensor (ppm): 
            -7.182          6.005         5.053
            11.495        -24.168       -13.196
             9.628         -0.304       -20.621

Total shielding tensor (ppm): 
            32.772          1.321         2.887
             2.446         21.790         1.052
             2.703          0.519        23.166


 Diagonalized sT*s matrix:
 
 sDSO            42.584           50.438           36.678  iso=      43.233
 sPSO           -21.199          -27.958           -2.814  iso=     -17.324
        ---------------  ---------------  ---------------
 Total           21.385           22.479           33.864  iso=      25.909

 --------------
 Nucleus  57H :
 --------------

Diamagnetic contribution to the shielding tensor (ppm) : 
            31.528         -3.417         2.360
            -7.691         43.344         3.994
            15.169          5.691        37.234

Paramagnetic contribution to the shielding tensor (ppm): 
            -2.329          2.621        -1.442
             6.329        -11.726        -5.829
           -12.949         -8.109        -7.339

Total shielding tensor (ppm): 
            29.199         -0.796         0.918
            -1.363         31.618        -1.834
             2.221         -2.417        29.895


 Diagonalized sT*s matrix:
 
 sDSO            29.869           39.635           42.601  iso=      37.369
 sPSO            -2.040          -10.506           -8.848  iso=      -7.131
        ---------------  ---------------  ---------------
 Total           27.830           29.130           33.753  iso=      30.237

 --------------
 Nucleus  58H :
 --------------

Diamagnetic contribution to the shielding tensor (ppm) : 
            34.943          0.500         2.274
             5.737         35.151       -11.739
            -9.533        -11.107        27.244

Paramagnetic contribution to the shielding tensor (ppm): 
            -4.278         -1.092        -1.454
            -6.360         -3.291         9.533
             9.973          8.480         2.979

Total shielding tensor (ppm): 
            30.665         -0.592         0.820
            -0.622         31.860        -2.206
             0.440         -2.627        30.222


 Diagonalized sT*s matrix:
 
 sDSO            19.408           37.564           40.365  iso=      32.446
 sPSO             9.069           -7.122           -6.538  iso=      -1.530
        ---------------  ---------------  ---------------
 Total           28.477           30.442           33.827  iso=      30.915

 --------------
 Nucleus  61H :
 --------------

Diamagnetic contribution to the shielding tensor (ppm) : 
            33.151         -1.101        -8.714
             4.998         38.397         3.224
            10.752         13.048        42.385

Paramagnetic contribution to the shielding tensor (ppm): 
             1.170          2.542         5.667
            -3.951        -12.175        -2.436
           -14.439        -11.603       -10.570

Total shielding tensor (ppm): 
            34.321          1.440        -3.047
             1.047         26.222         0.789
            -3.687          1.445        31.815


 Diagonalized sT*s matrix:
 
 sDSO            33.189           45.859           34.884  iso=      37.978
 sPSO            -7.653          -15.713            1.792  iso=      -7.192
        ---------------  ---------------  ---------------
 Total           25.537           30.146           36.675  iso=      30.786

 --------------
 Nucleus  62H :
 --------------

Diamagnetic contribution to the shielding tensor (ppm) : 
            26.287         -3.766        -0.529
             8.091         48.436        -1.705
            10.715          4.149        32.844

Paramagnetic contribution to the shielding tensor (ppm): 
             4.279          2.008         1.702
           -10.091        -13.746         1.483
            -9.829         -4.295        -5.476

Total shielding tensor (ppm): 
            30.566         -1.758         1.173
            -2.000         34.690        -0.222
             0.885         -0.146        27.368


 Diagonalized sT*s matrix:
 
 sDSO            29.230           34.424           43.913  iso=      35.856
 sPSO            -2.183           -4.302           -8.459  iso=      -4.981
        ---------------  ---------------  ---------------
 Total           27.047           30.122           35.455  iso=      30.875

 --------------
 Nucleus  63H :
 --------------

Diamagnetic contribution to the shielding tensor (ppm) : 
            24.697          1.964         5.836
            11.416         33.599        -0.615
            31.994         10.637        38.850

Paramagnetic contribution to the shielding tensor (ppm): 
             6.925         -1.158        -3.675
            -9.956         -6.995         4.851
           -29.677         -6.380        -5.900

Total shielding tensor (ppm): 
            31.622          0.805         2.161
             1.460         26.604         4.236
             2.317          4.257        32.950


 Diagonalized sT*s matrix:
 
 sDSO            30.623           11.993           54.532  iso=      32.382
 sPSO            -6.147           18.311          -18.135  iso=      -1.990
        ---------------  ---------------  ---------------
 Total           24.476           30.304           36.397  iso=      30.392

 --------------
 Nucleus  64H :
 --------------

Diamagnetic contribution to the shielding tensor (ppm) : 
            38.926          1.287        -6.544
            -9.577         16.855        -7.581
           -23.069         -7.828        18.240

Paramagnetic contribution to the shielding tensor (ppm): 
            -5.244         -0.195         1.744
            10.112         10.575         8.524
            17.500          8.550        13.349

Total shielding tensor (ppm): 
            33.681          1.091        -4.801
             0.535         27.430         0.942
            -5.569          0.722        31.589


 Diagonalized sT*s matrix:
 
 sDSO            22.964            5.776           45.280  iso=      24.673
 sPSO             3.263           22.772           -7.355  iso=       6.227
        ---------------  ---------------  ---------------
 Total           26.228           28.548           37.925  iso=      30.900

 --------------
 Nucleus  65H :
 --------------

Diamagnetic contribution to the shielding tensor (ppm) : 
            36.960          1.244         3.743
           -11.841         26.280        10.472
           -19.955          1.648        33.563

Paramagnetic contribution to the shielding tensor (ppm): 
            -4.658         -0.511        -2.383
            14.318          0.065        -6.102
            21.676          2.916        -1.419

Total shielding tensor (ppm): 
            32.302          0.733         1.360
             2.476         26.345         4.370
             1.721          4.565        32.144


 Diagonalized sT*s matrix:
 
 sDSO            23.070           45.393           28.340  iso=      32.268
 sPSO             0.793          -14.315            7.510  iso=      -2.004
        ---------------  ---------------  ---------------
 Total           23.863           31.078           35.850  iso=      30.264

 --------------
 Nucleus  66H :
 --------------

Diamagnetic contribution to the shielding tensor (ppm) : 
            32.136         -5.005         0.915
           -20.388         32.518        -2.234
           -11.244         -7.009        19.291

Paramagnetic contribution to the shielding tensor (ppm): 
            -1.728          1.875        -0.545
            17.619          2.140         1.659
            10.923          6.996         8.737

Total shielding tensor (ppm): 
            30.408         -3.130         0.370
            -2.769         34.658        -0.575
            -0.320         -0.012        28.028


 Diagonalized sT*s matrix:
 
 sDSO            17.527           23.621           42.798  iso=      27.982
 sPSO            10.478            5.291           -6.621  iso=       3.050
        ---------------  ---------------  ---------------
 Total           28.005           28.912           36.177  iso=      31.031

 --------------
 Nucleus  67H :
 --------------

Diamagnetic contribution to the shielding tensor (ppm) : 
            30.383         -0.685         8.542
            -1.329         19.402       -10.573
            21.684         -8.039        17.886

Paramagnetic contribution to the shielding tensor (ppm): 
             2.042         -1.103        -4.565
             0.200          9.706         8.716
           -17.926          5.748        13.987

Total shielding tensor (ppm): 
            32.425         -1.789         3.976
            -1.129         29.109        -1.857
             3.758         -2.292        31.873


 Diagonalized sT*s matrix:
 
 sDSO             5.354           20.575           41.742  iso=      22.557
 sPSO            22.436            8.214           -4.915  iso=       8.579
        ---------------  ---------------  ---------------
 Total           27.791           28.789           36.827  iso=      31.136

 --------------
 Nucleus  68H :
 --------------

Diamagnetic contribution to the shielding tensor (ppm) : 
            25.355          2.329         4.103
            17.919         30.263         0.817
            19.764          5.021        17.585

Paramagnetic contribution to the shielding tensor (ppm): 
             5.331         -0.154        -3.061
           -16.544          1.408         4.318
           -20.103          0.498        11.086

Total shielding tensor (ppm): 
            30.686          2.174         1.043
             1.374         31.672         5.134
            -0.339          5.519        28.672


 Diagonalized sT*s matrix:
 
 sDSO            20.445           16.288           36.470  iso=      24.401
 sPSO             4.088           14.018           -0.280  iso=       5.942
        ---------------  ---------------  ---------------
 Total           24.533           30.307           36.190  iso=      30.343

 --------------
 Nucleus  69H :
 --------------

Diamagnetic contribution to the shielding tensor (ppm) : 
            39.224          6.812         0.569
            12.570         13.385        -5.769
            -1.271        -11.298         4.365

Paramagnetic contribution to the shielding tensor (ppm): 
            -3.192         -2.995        -3.036
            -8.451         14.830         5.706
            -0.360         11.311        24.031

Total shielding tensor (ppm): 
            36.032          3.818        -2.466
             4.119         28.215        -0.063
            -1.631          0.013        28.396


 Diagonalized sT*s matrix:
 
 sDSO            15.137           -0.361           42.198  iso=      18.991
 sPSO            11.097           28.702           -4.129  iso=      11.890
        ---------------  ---------------  ---------------
 Total           26.234           28.341           38.068  iso=      30.881

 --------------
 Nucleus  70H :
 --------------

Diamagnetic contribution to the shielding tensor (ppm) : 
            38.678         -2.404       -10.027
            -2.836         24.174         2.345
           -20.957         -3.383        40.305

Paramagnetic contribution to the shielding tensor (ppm): 
            -3.351          2.930         6.187
             3.140          1.685        -0.876
            16.542          5.709        -9.489

Total shielding tensor (ppm): 
            35.327          0.526        -3.840
             0.305         25.859         1.469
            -4.415          2.327        30.816


 Diagonalized sT*s matrix:
 
 sDSO            26.375           23.863           52.919  iso=      34.386
 sPSO            -1.514            5.471          -15.112  iso=      -3.718
        ---------------  ---------------  ---------------
 Total           24.861           29.334           37.807  iso=      30.667

 --------------
 Nucleus  71H :
 --------------

Diamagnetic contribution to the shielding tensor (ppm) : 
            33.231          1.056         4.174
            -3.928         32.722         8.521
            -4.873          4.074        47.139

Paramagnetic contribution to the shielding tensor (ppm): 
             0.008         -0.454        -3.411
             4.934         -6.112        -4.080
             6.012          0.162       -16.077

Total shielding tensor (ppm): 
            33.239          0.601         0.763
             1.005         26.609         4.442
             1.139          4.236        31.061


 Diagonalized sT*s matrix:
 
 sDSO            31.047           40.710           41.334  iso=      37.697
 sPSO            -7.092           -8.485           -6.604  iso=      -7.394
        ---------------  ---------------  ---------------
 Total           23.955           32.225           34.729  iso=      30.303

 --------------
 Nucleus  72H :
 --------------

Diamagnetic contribution to the shielding tensor (ppm) : 
            30.024         -5.440        -2.453
            -8.972         43.126         0.679
            -3.660         -8.349        40.873

Paramagnetic contribution to the shielding tensor (ppm): 
             1.757          3.996         3.179
             7.265         -8.883        -1.786
             3.809          7.177       -14.111

Total shielding tensor (ppm): 
            31.781         -1.444         0.726
            -1.707         34.243        -1.106
             0.149         -1.172        26.763


 Diagonalized sT*s matrix:
 
 sDSO            40.220           27.021           46.781  iso=      38.008
 sPSO           -13.636            3.993          -11.594  iso=      -7.079
        ---------------  ---------------  ---------------
 Total           26.585           31.015           35.187  iso=      30.929



--------------------------------
CHEMICAL SHIELDING SUMMARY (ppm)
--------------------------------


  Nucleus  Element    Isotropic     Anisotropy
  -------  -------  ------------   ------------
      3       H           29.631          5.433 
      4       H           29.131          5.329 
      8       H           29.571          6.410 
      9       H           29.422          7.790 
     10       H           29.632          8.798 
     11       H           30.526          6.234 
     13       H           28.183          2.735 
     16       H           26.855          5.157 
     17       H           26.513          5.016 
     19       H           25.446         10.787 
     21       H           25.694         15.009 
     24       H           28.892          9.997 
     25       H           29.995          9.455 
     27       H           30.220          7.088 
     28       H           30.153         11.737 
     30       H           29.718          8.438 
     31       H           30.453          6.780 
     33       H           29.834          4.150 
     35       H           31.123         14.867 
     37       H           30.322         10.945 
     38       H           30.224          9.464 
     40       H           29.811          9.984 
     41       H           30.229          8.077 
     42       H           30.796          5.013 
     45       H           31.041          8.256 
     46       H           31.269          9.241 
     47       H           31.253          7.264 
     48       H           29.818          3.232 
     52       H           26.022         13.578 
     53       H           25.909         11.932 
     57       H           30.237          5.273 
     58       H           30.915          4.367 
     61       H           30.786          8.834 
     62       H           30.875          6.870 
     63       H           30.392          9.007 
     64       H           30.900         10.537 
     65       H           30.264          8.379 
     66       H           31.031          7.718 
     67       H           31.136          8.537 
     68       H           30.343          8.771 
     69       H           30.881         10.781 
     70       H           30.667         10.710 
     71       H           30.303          6.639 
     72       H           30.929          6.387 



Maximum memory used throughout the entire EPRNMR-calculation: 139.9 MB

Timings for individual modules:

Sum of individual times         ...      139.329 sec (=   2.322 min)
GTO integral calculation        ...        0.897 sec (=   0.015 min)   0.6 %
SCF iterations                  ...       93.989 sec (=   1.566 min)  67.5 %
EPR/NMR calculation             ...       44.442 sec (=   0.741 min)  31.9 %
                             ****ORCA TERMINATED NORMALLY****
TOTAL RUN TIME: 0 days 0 hours 2 minutes 19 seconds 840 msec
