
                                 *****************
                                 * O   R   C   A *
                                 *****************

                                            #,                                       
                                            ###                                      
                                            ####                                     
                                            #####                                    
                                            ######                                   
                                           ########,                                 
                                     ,,################,,,,,                         
                               ,,#################################,,                 
                          ,,##########################################,,             
                       ,#########################################, ''#####,          
                    ,#############################################,,   '####,        
                  ,##################################################,,,,####,       
                ,###########''''           ''''###############################       
              ,#####''   ,,,,##########,,,,          '''####'''          '####       
            ,##' ,,,,###########################,,,                        '##       
           ' ,,###''''                  '''############,,,                           
         ,,##''                                '''############,,,,        ,,,,,,###''
      ,#''                                            '''#######################'''  
     '                                                          ''''####''''         
             ,#######,   #######,   ,#######,      ##                                
            ,#'     '#,  ##    ##  ,#'     '#,    #''#        ######   ,####,        
            ##       ##  ##   ,#'  ##            #'  '#       #        #'  '#        
            ##       ##  #######   ##           ,######,      #####,   #    #        
            '#,     ,#'  ##    ##  '#,     ,#' ,#      #,         ##   #,  ,#        
             '#######'   ##     ##  '#######'  #'      '#     #####' # '####'        



                  #######################################################
                  #                        -***-                        #
                  #          Department of theory and spectroscopy      #
                  #    Directorship and core code : Frank Neese         #
                  #        Max Planck Institute fuer Kohlenforschung    #
                  #                Kaiser Wilhelm Platz 1               #
                  #                 D-45470 Muelheim/Ruhr               #
                  #                      Germany                        #
                  #                                                     #
                  #                  All rights reserved                #
                  #                        -***-                        #
                  #######################################################


                         Program Version 5.0.2 -  RELEASE  -


 With contributions from (in alphabetic order):
   Daniel Aravena         : Magnetic Suceptibility
   Michael Atanasov       : Ab Initio Ligand Field Theory (pilot matlab implementation)
   Alexander A. Auer      : GIAO ZORA, VPT2 properties, NMR spectrum
   Ute Becker             : Parallelization
   Giovanni Bistoni       : ED, misc. LED, open-shell LED, HFLD
   Martin Brehm           : Molecular dynamics
   Dmytro Bykov           : SCF Hessian
   Vijay G. Chilkuri      : MRCI spin determinant printing, contributions to CSF-ICE
   Dipayan Datta          : RHF DLPNO-CCSD density
   Achintya Kumar Dutta   : EOM-CC, STEOM-CC
   Dmitry Ganyushin       : Spin-Orbit,Spin-Spin,Magnetic field MRCI
   Miquel Garcia          : C-PCM and meta-GGA Hessian, CC/C-PCM, Gaussian charge scheme
   Yang Guo               : DLPNO-NEVPT2, F12-NEVPT2, CIM, IAO-localization
   Andreas Hansen         : Spin unrestricted coupled pair/coupled cluster methods
   Benjamin Helmich-Paris : MC-RPA, TRAH-SCF, COSX integrals
   Lee Huntington         : MR-EOM, pCC
   Robert Izsak           : Overlap fitted RIJCOSX, COSX-SCS-MP3, EOM
   Marcus Kettner         : VPT2
   Christian Kollmar      : KDIIS, OOCD, Brueckner-CCSD(T), CCSD density, CASPT2, CASPT2-K
   Simone Kossmann        : Meta GGA functionals, TD-DFT gradient, OOMP2, MP2 Hessian
   Martin Krupicka        : Initial AUTO-CI
   Lucas Lang             : DCDCAS
   Marvin Lechner         : AUTO-CI (C++ implementation), FIC-MRCC
   Dagmar Lenk            : GEPOL surface, SMD
   Dimitrios Liakos       : Extrapolation schemes; Compound Job, initial MDCI parallelization
   Dimitrios Manganas     : Further ROCIS development; embedding schemes
   Dimitrios Pantazis     : SARC Basis sets
   Anastasios Papadopoulos: AUTO-CI, single reference methods and gradients
   Taras Petrenko         : DFT Hessian,TD-DFT gradient, ASA, ECA, R-Raman, ABS, FL, XAS/XES, NRVS
   Peter Pinski           : DLPNO-MP2, DLPNO-MP2 Gradient
   Christoph Reimann      : Effective Core Potentials
   Marius Retegan         : Local ZFS, SOC
   Christoph Riplinger    : Optimizer, TS searches, QM/MM, DLPNO-CCSD(T), (RO)-DLPNO pert. Triples
   Tobias Risthaus        : Range-separated hybrids, TD-DFT gradient, RPA, STAB
   Michael Roemelt        : Original ROCIS implementation
   Masaaki Saitow         : Open-shell DLPNO-CCSD energy and density
   Barbara Sandhoefer     : DKH picture change effects
   Avijit Sen             : IP-ROCIS
   Kantharuban Sivalingam : CASSCF convergence, NEVPT2, FIC-MRCI
   Bernardo de Souza      : ESD, SOC TD-DFT
   Georgi Stoychev        : AutoAux, RI-MP2 NMR, DLPNO-MP2 response
   Willem Van den Heuvel  : Paramagnetic NMR
   Boris Wezisla          : Elementary symmetry handling
   Frank Wennmohs         : Technical directorship


 We gratefully acknowledge several colleagues who have allowed us to
 interface, adapt or use parts of their codes:
   Stefan Grimme, W. Hujo, H. Kruse, P. Pracht,  : VdW corrections, initial TS optimization,
                  C. Bannwarth, S. Ehlert          DFT functionals, gCP, sTDA/sTD-DF
   Ed Valeev, F. Pavosevic, A. Kumar             : LibInt (2-el integral package), F12 methods
   Garnet Chan, S. Sharma, J. Yang, R. Olivares  : DMRG
   Ulf Ekstrom                                   : XCFun DFT Library
   Mihaly Kallay                                 : mrcc  (arbitrary order and MRCC methods)
   Jiri Pittner, Ondrej Demel                    : Mk-CCSD
   Frank Weinhold                                : gennbo (NPA and NBO analysis)
   Christopher J. Cramer and Donald G. Truhlar   : smd solvation model
   Lars Goerigk                                  : TD-DFT with DH, B97 family of functionals
   V. Asgeirsson, H. Jonsson                     : NEB implementation
   FAccTs GmbH                                   : IRC, NEB, NEB-TS, DLPNO-Multilevel, CI-OPT
                                                   MM, QMMM, 2- and 3-layer-ONIOM, Crystal-QMMM,
                                                   LR-CPCM, SF, NACMEs, symmetry and pop. for TD-DFT,
                                                   nearIR, NL-DFT gradient (VV10), updates on ESD,
                                                   ML-optimized integration grids
   S Lehtola, MJT Oliveira, MAL Marques          : LibXC Library
   Liviu Ungur et al                             : ANISO software


 Your calculation uses the libint2 library for the computation of 2-el integrals
 For citations please refer to: http://libint.valeyev.net

 Your ORCA version has been built with support for libXC version: 5.1.0
 For citations please refer to: https://tddft.org/programs/libxc/

 This ORCA versions uses:
   CBLAS   interface :  Fast vector & matrix operations
   LAPACKE interface :  Fast linear algebra routines
   SCALAPACK package :  Parallel linear algebra routines
   Shared memory     :  Shared parallel matrices
   BLAS/LAPACK       :  OpenBLAS 0.3.15  USE64BITINT DYNAMIC_ARCH NO_AFFINITY Zen SINGLE_THREADED
        Core in use  :  Zen
   Copyright (c) 2011-2014, The OpenBLAS Project


Your calculation utilizes the atom-pairwise dispersion correction
based on tight binding partial charges (D4)
Cite in your paper:
E.Caldeweyher, C.Bannwarth, S.Grimme, J.Chem.Phys., (2017), 147, 034112.
E.Caldeweyher, S.Ehlert, A.Hansen, H.Neugebauer, S.Grimme, J.Chem.Phys., (2018), in progress.
   

================================================================================

----- Orbital basis set information -----
Your calculation utilizes the basis: pcJ-0
   F. Jensen, Theor. Chem. Acc. 126, 371 (2010).

----- AuxJ basis set information -----
Your calculation utilizes the auxiliary basis: def2/J
   F. Weigend, Phys. Chem. Chem. Phys. 8, 1057 (2006).

================================================================================
                                        WARNINGS
                       Please study these warnings very carefully!
================================================================================


INFO   : the flag for use of the SHARK integral package has been found!

================================================================================
                                       INPUT FILE
================================================================================
NAME = inpJ
|  1> ! pbe0
|  2> ! D4
|  3> ! pcJ-0
|  4> ! def2/J RIJCOSX
|  5> ! DEFGRID2
|  6> ! scfconv7
|  7> ! smallprint printgap noloewdin
|  8> ! NOSOSCF
|  9> %MaxCore 4000
| 10> %output
| 11>        print[P_BondOrder_M] 1
| 12>        print[P_Mayer] 1
| 13>        print[P_basis] 2
| 14> end
| 15> %pal
| 16>     nprocs 4
| 17> end
| 18> ! CPCM(chloroform)
| 19> *xyz 0 1
| 20> C   -5.2123473700  -0.0201258400   0.3276534500
| 21> C   -6.5661991200  -0.4161844900  -0.2133023600
| 22> C   -7.1255627800   0.6401706200  -1.1736403000
| 23> H   -7.2804766000  -0.5087938600   0.6224618400
| 24> H   -6.5124796000  -1.3878945500  -0.7163228500
| 25> C   -5.1570455800   1.3490720800   0.8826709800
| 26> C   -5.7651191700   2.4093742300  -0.0071349100
| 27> C   -7.1626906800   2.0057282300  -0.4966614500
| 28> H   -5.1147431200   2.5385283000  -0.8855645700
| 29> H   -5.8011409000   3.3696390200   0.5178799200
| 30> H   -7.5511264400   2.7543472600  -1.1971307200
| 31> H   -7.8544381300   1.9578191100   0.3579206000
| 32> O   -8.4133094200   0.2570185700  -1.6743245000
| 33> H   -6.4812629900   0.6927910800  -2.0624119100
| 34> C   -4.1572436600  -0.8649908300   0.2461603000
| 35> C   -4.6537753600   1.6337296100   2.0891728200
| 36> H   -4.2443131100   0.8572014300   2.7292070800
| 37> H   -4.6508256500   2.6531121000   2.4678085800
| 38> C   -2.7954851300  -0.5776644100   0.6338103100
| 39> H   -4.3569198200  -1.8405096600  -0.1951144500
| 40> C   -1.7618780400  -1.4468177900   0.6340651000
| 41> H   -2.5955634600   0.4454743400   0.9438885600
| 42> C   -1.8470768900  -2.9118461700   0.2890886500
| 43> C   -0.8080447400  -3.3128595600  -0.7744059800
| 44> H   -2.8484769200  -3.2012929600  -0.0405441100
| 45> H   -1.6381031200  -3.4855478800   1.2064330100
| 46> C    0.6108364600  -2.8469889500  -0.4215928900
| 47> H   -1.1052628300  -2.8915717100  -1.7430561200
| 48> H   -0.8170978700  -4.4032811800  -0.8932709300
| 49> C    0.6610558200  -1.3387297600  -0.1371834100
| 50> H    1.2878441800  -3.1232361500  -1.2362929700
| 51> H    0.9560635000  -3.3807487500   0.4766774700
| 52> C   -0.3661479600  -1.0477773300   1.0031020300
| 53> H   -0.0592083300  -1.7171188500   1.8282728400
| 54> C   -0.0469440000   0.3785606200   1.4380555300
| 55> H   -9.0126094400   0.1926245600  -0.9187510800
| 56> C    1.4929015500   0.4642639500   1.3019690600
| 57> H   -0.3963934000   0.5884133200   2.4544321900
| 58> H   -0.5306630300   1.1036231300   0.7740231800
| 59> C    1.9590127800  -0.8135348700   0.5379856300
| 60> H    1.9820394100   0.5301629000   2.2789076600
| 61> H    1.7800686800   1.3647145700   0.7455259400
| 62> H    2.2568124300  -1.5738864700   1.2778428200
| 63> C    3.2019834500  -0.5418747000  -0.3448129400
| 64> C    0.3273674600  -0.5274067600  -1.3964669600
| 65> H   -0.7149693300  -0.6701714100  -1.6977297400
| 66> H    0.9648494200  -0.8321992200  -2.2336709200
| 67> H    0.4772662800   0.5454813400  -1.2386935600
| 68> H    2.9206531800   0.2565985600  -1.0515381200
| 69> C    3.6510968300  -1.7568236000  -1.1543899700
| 70> C    4.2988175900   0.0210922100   0.5292480100
| 71> C    5.4735552100  -0.5526197700   0.7950121600
| 72> H    4.0677025500   0.9786302400   0.9939485000
| 73> H    5.7063646800  -1.5126526300   0.3369488500
| 74> C    6.5576116600   0.0138789200   1.6808834500
| 75> C    6.0542096000   1.1176892800   2.6139874700
| 76> C    7.7746888100   0.4847791500   0.8357957600
| 77> H    6.9237449500  -0.8189992700   2.3060582200
| 78> H    7.4244412100   1.3289106500   0.2204412400
| 79> C    8.2825565800  -0.6143589800  -0.1030388500
| 80> C    8.9253415200   0.9730452500   1.7217881200
| 81> H    5.1383342200   0.8048781200   3.1260237200
| 82> H    5.8342639500   2.0384478700   2.0601268000
| 83> H    6.7979454500   1.3580273100   3.3778360300
| 84> H    9.1783693500  -0.2774231600  -0.6358135000
| 85> H    7.5355861200  -0.8956144500  -0.8509389200
| 86> H    8.5508716600  -1.5144553700   0.4656302800
| 87> H    9.2314978100   0.1842227100   2.4213312700
| 88> H    8.6577239500   1.8585198000   2.3048778100
| 89> H    9.7955485900   1.2313510000   1.1084140800
| 90> H    4.5962010300  -1.5510741000  -1.6687211900
| 91> H    2.9113723800  -2.0158747100  -1.9141430300
| 92> H    3.7969356900  -2.6339188200  -0.5128998100
| 93> *
| 94> %eprnmr
| 95>  Nuclei = all H { ssfc }
| 96>  SpinSpinRThresh 8.0
| 97> end
| 98> 
| 99>                          ****END OF INPUT****
================================================================================

                       ****************************
                       * Single Point Calculation *
                       ****************************

---------------------------------
CARTESIAN COORDINATES (ANGSTROEM)
---------------------------------
  C     -5.212347   -0.020126    0.327653
  C     -6.566199   -0.416184   -0.213302
  C     -7.125563    0.640171   -1.173640
  H     -7.280477   -0.508794    0.622462
  H     -6.512480   -1.387895   -0.716323
  C     -5.157046    1.349072    0.882671
  C     -5.765119    2.409374   -0.007135
  C     -7.162691    2.005728   -0.496661
  H     -5.114743    2.538528   -0.885565
  H     -5.801141    3.369639    0.517880
  H     -7.551126    2.754347   -1.197131
  H     -7.854438    1.957819    0.357921
  O     -8.413309    0.257019   -1.674324
  H     -6.481263    0.692791   -2.062412
  C     -4.157244   -0.864991    0.246160
  C     -4.653775    1.633730    2.089173
  H     -4.244313    0.857201    2.729207
  H     -4.650826    2.653112    2.467809
  C     -2.795485   -0.577664    0.633810
  H     -4.356920   -1.840510   -0.195114
  C     -1.761878   -1.446818    0.634065
  H     -2.595563    0.445474    0.943889
  C     -1.847077   -2.911846    0.289089
  C     -0.808045   -3.312860   -0.774406
  H     -2.848477   -3.201293   -0.040544
  H     -1.638103   -3.485548    1.206433
  C      0.610836   -2.846989   -0.421593
  H     -1.105263   -2.891572   -1.743056
  H     -0.817098   -4.403281   -0.893271
  C      0.661056   -1.338730   -0.137183
  H      1.287844   -3.123236   -1.236293
  H      0.956063   -3.380749    0.476677
  C     -0.366148   -1.047777    1.003102
  H     -0.059208   -1.717119    1.828273
  C     -0.046944    0.378561    1.438056
  H     -9.012609    0.192625   -0.918751
  C      1.492902    0.464264    1.301969
  H     -0.396393    0.588413    2.454432
  H     -0.530663    1.103623    0.774023
  C      1.959013   -0.813535    0.537986
  H      1.982039    0.530163    2.278908
  H      1.780069    1.364715    0.745526
  H      2.256812   -1.573886    1.277843
  C      3.201983   -0.541875   -0.344813
  C      0.327367   -0.527407   -1.396467
  H     -0.714969   -0.670171   -1.697730
  H      0.964849   -0.832199   -2.233671
  H      0.477266    0.545481   -1.238694
  H      2.920653    0.256599   -1.051538
  C      3.651097   -1.756824   -1.154390
  C      4.298818    0.021092    0.529248
  C      5.473555   -0.552620    0.795012
  H      4.067703    0.978630    0.993949
  H      5.706365   -1.512653    0.336949
  C      6.557612    0.013879    1.680883
  C      6.054210    1.117689    2.613987
  C      7.774689    0.484779    0.835796
  H      6.923745   -0.818999    2.306058
  H      7.424441    1.328911    0.220441
  C      8.282557   -0.614359   -0.103039
  C      8.925342    0.973045    1.721788
  H      5.138334    0.804878    3.126024
  H      5.834264    2.038448    2.060127
  H      6.797945    1.358027    3.377836
  H      9.178369   -0.277423   -0.635813
  H      7.535586   -0.895614   -0.850939
  H      8.550872   -1.514455    0.465630
  H      9.231498    0.184223    2.421331
  H      8.657724    1.858520    2.304878
  H      9.795549    1.231351    1.108414
  H      4.596201   -1.551074   -1.668721
  H      2.911372   -2.015875   -1.914143
  H      3.796936   -2.633919   -0.512900

----------------------------
CARTESIAN COORDINATES (A.U.)
----------------------------
  NO LB      ZA    FRAG     MASS         X           Y           Z
   0 C     6.0000    0    12.011   -9.849909   -0.038032    0.619175
   1 C     6.0000    0    12.011  -12.408318   -0.786475   -0.403083
   2 C     6.0000    0    12.011  -13.465362    1.209747   -2.217859
   3 H     1.0000    0     1.008  -13.758107   -0.961481    1.176282
   4 H     1.0000    0     1.008  -12.306803   -2.622741   -1.353654
   5 C     6.0000    0    12.011   -9.745404    2.549377    1.668006
   6 C     6.0000    0    12.011  -10.894496    4.553057   -0.013483
   7 C     6.0000    0    12.011  -13.535524    3.790277   -0.938554
   8 H     1.0000    0     1.008   -9.665464    4.797123   -1.673475
   9 H     1.0000    0     1.008  -10.962568    6.367695    0.978651
  10 H     1.0000    0     1.008  -14.269561    5.204962   -2.262249
  11 H     1.0000    0     1.008  -14.842737    3.699742    0.676372
  12 O     8.0000    0    15.999  -15.898851    0.485695   -3.164015
  13 H     1.0000    0     1.008  -12.247812    1.309185   -3.897394
  14 C     6.0000    0    12.011   -7.856052   -1.634596    0.465176
  15 C     6.0000    0    12.011   -8.794361    3.087302    3.947964
  16 H     1.0000    0     1.008   -8.020589    1.619876    5.157454
  17 H     1.0000    0     1.008   -8.788787    5.013655    4.663482
  18 C     6.0000    0    12.011   -5.282701   -1.091628    1.197728
  19 H     1.0000    0     1.008   -8.233385   -3.478059   -0.368713
  20 C     6.0000    0    12.011   -3.329467   -2.734089    1.198209
  21 H     1.0000    0     1.008   -4.904904    0.841825    1.783691
  22 C     6.0000    0    12.011   -3.490469   -5.502592    0.546298
  23 C     6.0000    0    12.011   -1.526983   -6.260397   -1.463415
  24 H     1.0000    0     1.008   -5.382841   -6.049567   -0.076617
  25 H     1.0000    0     1.008   -3.095566   -6.586731    2.279828
  26 C     6.0000    0    12.011    1.154314   -5.380029   -0.796695
  27 H     1.0000    0     1.008   -2.088644   -5.464279   -3.293899
  28 H     1.0000    0     1.008   -1.544091   -8.320996   -1.688037
  29 C     6.0000    0    12.011    1.249214   -2.529833   -0.259239
  30 H     1.0000    0     1.008    2.433673   -5.902061   -2.336255
  31 H     1.0000    0     1.008    1.806698   -6.388689    0.900790
  32 C     6.0000    0    12.011   -0.691919   -1.980012    1.895588
  33 H     1.0000    0     1.008   -0.111888   -3.244884    3.454935
  34 C     6.0000    0    12.011   -0.088711    0.715376    2.717531
  35 H     1.0000    0     1.008  -17.031364    0.364008   -1.736188
  36 C     6.0000    0    12.011    2.821175    0.877332    2.460365
  37 H     1.0000    0     1.008   -0.749075    1.111940    4.638205
  38 H     1.0000    0     1.008   -1.002808    2.085545    1.462692
  39 C     6.0000    0    12.011    3.701998   -1.537358    1.016646
  40 H     1.0000    0     1.008    3.745512    1.001863    4.306511
  41 H     1.0000    0     1.008    3.363842    2.578937    1.408840
  42 H     1.0000    0     1.008    4.264757   -2.974214    2.414773
  43 C     6.0000    0    12.011    6.050872   -1.023995   -0.651602
  44 C     6.0000    0    12.011    0.618635   -0.996654   -2.638940
  45 H     1.0000    0     1.008   -1.351096   -1.266440   -3.208244
  46 H     1.0000    0     1.008    1.823301   -1.572629   -4.221026
  47 H     1.0000    0     1.008    0.901903    1.030810   -2.340792
  48 H     1.0000    0     1.008    5.519235    0.484901   -1.987119
  49 C     6.0000    0    12.011    6.899573   -3.319915   -2.181481
  50 C     6.0000    0    12.011    8.123588    0.039859    1.000134
  51 C     6.0000    0    12.011   10.343520   -1.044300    1.502355
  52 H     1.0000    0     1.008    7.686844    1.849343    1.878290
  53 H     1.0000    0     1.008   10.783466   -2.858499    0.636741
  54 C     6.0000    0    12.011   12.392090    0.026227    3.176409
  55 C     6.0000    0    12.011   11.440798    2.112127    4.939720
  56 C     6.0000    0    12.011   14.692033    0.916100    1.579425
  57 H     1.0000    0     1.008   13.083982   -1.547684    4.357818
  58 H     1.0000    0     1.008   14.030161    2.511277    0.416574
  59 C     6.0000    0    12.011   15.651764   -1.160970   -0.194715
  60 C     6.0000    0    12.011   16.866451    1.838789    3.253708
  61 H     1.0000    0     1.008    9.710044    1.520999    5.907329
  62 H     1.0000    0     1.008   11.025161    3.852108    3.893075
  63 H     1.0000    0     1.008   12.846255    2.566300    6.383185
  64 H     1.0000    0     1.008   17.344604   -0.524254   -1.201513
  65 H     1.0000    0     1.008   14.240194   -1.692466   -1.608042
  66 H     1.0000    0     1.008   16.158806   -2.861906    0.879914
  67 H     1.0000    0     1.008   17.445003    0.348130    4.575653
  68 H     1.0000    0     1.008   16.360727    3.512093    4.355588
  69 H     1.0000    0     1.008   18.510904    2.326916    2.094599
  70 H     1.0000    0     1.008    8.685561   -2.931105   -3.153426
  71 H     1.0000    0     1.008    5.501696   -3.809451   -3.617206
  72 H     1.0000    0     1.008    7.175169   -4.977385   -0.969240

--------------------------------
INTERNAL COORDINATES (ANGSTROEM)
--------------------------------
 C      0   0   0     0.000000000000     0.00000000     0.00000000
 C      1   0   0     1.510764774408     0.00000000     0.00000000
 C      2   1   0     1.533304529947   111.75092890     0.00000000
 H      2   1   3     1.103299873946   109.32487313   241.46200815
 H      2   1   3     1.095507115857   110.67106144   122.91414450
 C      1   2   3     1.478447053741   114.25048657    50.25350203
 C      6   1   2     1.511869260892   114.42531658   312.15474322
 C      3   2   1     1.524606975760   110.35557853   305.11341739
 H      7   6   1     1.100594588293   108.32279094   290.22714544
 H      7   6   1     1.095009864643   110.24677369   172.96284272
 H      8   3   2     1.096343919552   109.66537035   179.22568758
 H      8   3   2     1.100509108796   108.73085943   296.68509919
 O      3   2   1     1.433799696743   111.23874824   180.32825300
 H      3   2   1     1.099002323449   109.00332626    65.15260557
 C      1   2   3     1.354135083247   120.87263617   232.41491384
 C      6   1   2     1.337892938036   123.34314645   130.04161741
 H     16   6   1     1.086415759497   121.39706385     0.58582932
 H     16   6   1     1.087434779864   120.96187488   181.25764178
 C     15   1   2     1.444719798408   126.45536694   175.25681727
 H     15   1   2     1.089142305461   116.12687095   357.99432599
 C     19  15   1     1.350470762135   126.40365942   175.37195299
 H     19  15   1     1.087625899384   115.90278124   354.70518518
 C     21  19  15     1.507506467416   125.60253108   356.88923496
 C     23  21  19     1.539941679328   111.89924311   128.22086654
 H     23  21  19     1.093269967021   112.21343036     4.09804290
 H     23  21  19     1.101963866662   107.74191736   246.96943242
 C     24  23  21     1.534515024837   112.70808114    50.54656915
 H     24  23  21     1.097317246426   109.08057828   288.46446204
 H     24  23  21     1.096918476854   109.15550511   172.48752957
 C     27  24  23     1.535661590537   111.77710375   306.10682808
 H     27  24  23     1.094709180011   108.91187205   182.54287077
 H     27  24  23     1.100441217375   109.29905402    66.05685574
 C     21  19  15     1.497826425404   122.80510950   177.57265380
 H     33  21  19     1.105955185591   106.33230972   123.88607442
 C     33  21  19     1.524964151333   120.96454665     1.57406392
 H     13   3   2     0.966539339865   107.56028266    61.89656510
 C     35  33  21     1.548221207045   103.58524856   196.53335169
 H     35  33  21     1.095068287300   112.15851789    74.54057177
 H     35  33  21     1.095736603951   110.71150893   314.91927345
 C     30  27  24     1.554469419149   116.07704673   166.60642157
 H     37  35  33     1.094535310470   111.67561724   249.40938797
 H     37  35  33     1.096770361291   110.51519494   130.86873929
 H     40  30  27     1.101910998564   106.50840240   321.01860129
 C     40  30  27     1.548582787467   118.80731787    81.31441037
 C     30  27  24     1.534727334489   111.10852744   294.75848008
 H     45  30  27     1.094352316071   111.34652551    66.86767967
 H     45  30  27     1.095532821799   110.69850150   306.82327853
 H     45  30  27     1.094737857711   111.71972601   186.86892616
 H     44  40  30     1.102799504806   106.71319143    62.66986763
 C     44  40  30     1.527487684143   113.49095470   303.66733175
 C     44  40  30     1.511277412238   108.55288925   177.24210943
 C     51  44  40     1.334085640154   126.44838874   115.53681806
 H     51  44  40     1.089146356564   114.85081128   297.18666882
 H     52  51  44     1.088891793325   118.92178046     1.36607074
 C     52  51  44     1.510253983608   125.98710508   180.60610485
 C     55  52  51     1.530520845005   113.08176858    17.81434782
 C     55  52  51     1.554733745519   110.89659590   251.39318364
 H     55  52  51     1.103894541371   106.69400238   136.32274294
 H     57  55  52     1.101767922878   106.66564171    65.53138001
 C     57  55  52     1.532137306366   112.04125276   307.27411064
 C     57  55  52     1.532118763483   111.72242431   183.96156598
 H     56  55  52     1.094924497317   110.74377833    48.31525997
 H     56  55  52     1.096783530048   111.31768265   288.20745576
 H     56  55  52     1.092872364850   111.15456736   168.08542592
 H     60  57  55     1.095378972492   110.39287388   183.73351951
 H     60  57  55     1.093811694134   112.15270330    63.55495782
 H     60  57  55     1.097975898124   110.59370647   302.83817539
 H     61  57  55     1.097876719960   110.42140463    56.94978296
 H     61  57  55     1.093470589021   112.49650266   296.11392828
 H     61  57  55     1.095540924889   110.36014737   175.95640907
 H     50  44  40     1.095486836742   110.67767446   186.62702176
 H     50  44  40     1.091569719120   111.00236326    67.21021031
 H     50  44  40     1.096391637787   111.42646594   306.91048022

---------------------------
INTERNAL COORDINATES (A.U.)
---------------------------
 C      0   0   0     0.000000000000     0.00000000     0.00000000
 C      1   0   0     2.854931676406     0.00000000     0.00000000
 C      2   1   0     2.897525641500   111.75092890     0.00000000
 H      2   1   3     2.084934605347   109.32487313   241.46200815
 H      2   1   3     2.070208426732   110.67106144   122.91414450
 C      1   2   3     2.793860035074   114.25048657    50.25350203
 C      6   1   2     2.857018853379   114.42531658   312.15474322
 C      3   2   1     2.881089646051   110.35557853   305.11341739
 H      7   6   1     2.079822356349   108.32279094   290.22714544
 H      7   6   1     2.069268758118   110.24677369   172.96284272
 H      8   3   2     2.071789756544   109.66537035   179.22568758
 H      8   3   2     2.079660823510   108.73085943   296.68509919
 O      3   2   1     2.709488757743   111.23874824   180.32825300
 H      3   2   1     2.076813411862   109.00332626    65.15260557
 C      1   2   3     2.558944455672   120.87263617   232.41491384
 C      6   1   2     2.528251249396   123.34314645   130.04161741
 H     16   6   1     2.053028253025   121.39706385     0.58582932
 H     16   6   1     2.054953922444   120.96187488   181.25764178
 C     15   1   2     2.730124759244   126.45536694   175.25681727
 H     15   1   2     2.058180678189   116.12687095   357.99432599
 C     19  15   1     2.552019892303   126.40365942   175.37195299
 H     19  15   1     2.055315085995   115.90278124   354.70518518
 C     21  19  15     2.848774368531   125.60253108   356.88923496
 C     23  21  19     2.910068036141   111.89924311   128.22086654
 H     23  21  19     2.065980828111   112.21343036     4.09804290
 H     23  21  19     2.082409917468   107.74191736   246.96943242
 C     24  23  21     2.899813145329   112.70808114    50.54656915
 H     24  23  21     2.073629077773   109.08057828   288.46446204
 H     24  23  21     2.072875512493   109.15550511   172.48752957
 C     27  24  23     2.901979840498   111.77710375   306.10682808
 H     27  24  23     2.068700546510   108.91187205   182.54287077
 H     27  24  23     2.079532527318   109.29905402    66.05685574
 C     21  19  15     2.830481740163   122.80510950   177.57265380
 H     33  21  19     2.089952417158   106.33230972   123.88607442
 C     33  21  19     2.881764610068   120.96454665     1.57406392
 H     13   3   2     1.826494650006   107.56028266    61.89656510
 C     35  33  21     2.925714076045   103.58524856   196.53335169
 H     35  33  21     2.069379160939   112.15851789    74.54057177
 H     35  33  21     2.070642096380   110.71150893   314.91927345
 C     30  27  24     2.937521485747   116.07704673   166.60642157
 H     37  35  33     2.068371980695   111.67561724   249.40938797
 H     37  35  33     2.072595614642   110.51519494   130.86873929
 H     40  30  27     2.082310011243   106.50840240   321.01860129
 C     40  30  27     2.926397364017   118.80731787    81.31441037
 C     30  27  24     2.900214352428   111.10852744   294.75848008
 H     45  30  27     2.068026171397   111.34652551    66.86767967
 H     45  30  27     2.070257003921   110.69850150   306.82327853
 H     45  30  27     2.068754739510   111.71972601   186.86892616
 H     44  40  30     2.083989044706   106.71319143    62.66986763
 C     44  40  30     2.886533395969   113.49095470   303.66733175
 C     44  40  30     2.855900421510   108.55288925   177.24210943
 C     51  44  40     2.521056499087   126.44838874   115.53681806
 H     51  44  40     2.058188333664   114.85081128   297.18666882
 H     52  51  44     2.057707278858   118.92178046     1.36607074
 C     52  51  44     2.853966421683   125.98710508   180.60610485
 C     55  52  51     2.892265239318   113.08176858    17.81434782
 C     55  52  51     2.938020990197   110.89659590   251.39318364
 H     55  52  51     2.086058363922   106.69400238   136.32274294
 H     57  55  52     2.082039637378   106.66564171    65.53138001
 C     57  55  52     2.895319908596   112.04125276   307.27411064
 C     57  55  52     2.895284867626   111.72242431   183.96156598
 H     56  55  52     2.069107437250   110.74377833    48.31525997
 H     56  55  52     2.072620499987   111.31768265   288.20745576
 H     56  55  52     2.065229468898   111.15456736   168.08542592
 H     60  57  55     2.069966270865   110.39287388   183.73351951
 H     60  57  55     2.067004543993   112.15270330    63.55495782
 H     60  57  55     2.074873749101   110.59370647   302.83817539
 H     61  57  55     2.074686329533   110.42140463    56.94978296
 H     61  57  55     2.066359948748   112.49650266   296.11392828
 H     61  57  55     2.070272316543   110.36014737   175.95640907
 H     50  44  40     2.070170104758   110.67767446   186.62702176
 H     50  44  40     2.062767825218   111.00236326    67.21021031
 H     50  44  40     2.071879930939   111.42646594   306.91048022

---------------------
BASIS SET INFORMATION
---------------------
There are 3 groups of distinct atoms

 Group   1 Type C   : 7s4p contracted to 4s3p pattern {4111/211}
 Group   2 Type H   : 5s contracted to 3s pattern {311}
 Group   3 Type O   : 7s4p contracted to 4s3p pattern {4111/211}

Atom   0C    basis set group =>   1
Atom   1C    basis set group =>   1
Atom   2C    basis set group =>   1
Atom   3H    basis set group =>   2
Atom   4H    basis set group =>   2
Atom   5C    basis set group =>   1
Atom   6C    basis set group =>   1
Atom   7C    basis set group =>   1
Atom   8H    basis set group =>   2
Atom   9H    basis set group =>   2
Atom  10H    basis set group =>   2
Atom  11H    basis set group =>   2
Atom  12O    basis set group =>   3
Atom  13H    basis set group =>   2
Atom  14C    basis set group =>   1
Atom  15C    basis set group =>   1
Atom  16H    basis set group =>   2
Atom  17H    basis set group =>   2
Atom  18C    basis set group =>   1
Atom  19H    basis set group =>   2
Atom  20C    basis set group =>   1
Atom  21H    basis set group =>   2
Atom  22C    basis set group =>   1
Atom  23C    basis set group =>   1
Atom  24H    basis set group =>   2
Atom  25H    basis set group =>   2
Atom  26C    basis set group =>   1
Atom  27H    basis set group =>   2
Atom  28H    basis set group =>   2
Atom  29C    basis set group =>   1
Atom  30H    basis set group =>   2
Atom  31H    basis set group =>   2
Atom  32C    basis set group =>   1
Atom  33H    basis set group =>   2
Atom  34C    basis set group =>   1
Atom  35H    basis set group =>   2
Atom  36C    basis set group =>   1
Atom  37H    basis set group =>   2
Atom  38H    basis set group =>   2
Atom  39C    basis set group =>   1
Atom  40H    basis set group =>   2
Atom  41H    basis set group =>   2
Atom  42H    basis set group =>   2
Atom  43C    basis set group =>   1
Atom  44C    basis set group =>   1
Atom  45H    basis set group =>   2
Atom  46H    basis set group =>   2
Atom  47H    basis set group =>   2
Atom  48H    basis set group =>   2
Atom  49C    basis set group =>   1
Atom  50C    basis set group =>   1
Atom  51C    basis set group =>   1
Atom  52H    basis set group =>   2
Atom  53H    basis set group =>   2
Atom  54C    basis set group =>   1
Atom  55C    basis set group =>   1
Atom  56C    basis set group =>   1
Atom  57H    basis set group =>   2
Atom  58H    basis set group =>   2
Atom  59C    basis set group =>   1
Atom  60C    basis set group =>   1
Atom  61H    basis set group =>   2
Atom  62H    basis set group =>   2
Atom  63H    basis set group =>   2
Atom  64H    basis set group =>   2
Atom  65H    basis set group =>   2
Atom  66H    basis set group =>   2
Atom  67H    basis set group =>   2
Atom  68H    basis set group =>   2
Atom  69H    basis set group =>   2
Atom  70H    basis set group =>   2
Atom  71H    basis set group =>   2
Atom  72H    basis set group =>   2

-------------------------
BASIS SET IN INPUT FORMAT
-------------------------

 # Basis set for element : H 
 NewGTO H 
 S 3 
   1    1357.7500000000      0.0012928364
   2      54.3100000000      0.0588280685
   3       4.3448000000      0.9761499708
 S 1 
   1       0.6604910000      1.0000000000
 S 1 
   1       0.1366870000      1.0000000000
  end;

 # Basis set for element : C 
 NewGTO C 
 S 4 
   1  139534.0000000000      0.0001655246
   2    5581.3600000000      0.0074486101
   3     446.5090000000      0.1285821065
   4      67.4620000000      0.9218029311
 S 1 
   1      15.0674000000      1.0000000000
 S 1 
   1       3.9387600000      1.0000000000
 S 1 
   1       0.2999150000      1.0000000000
 P 2 
   1      28.3900000000      0.0816325586
   2       4.3676900000      0.9660360576
 P 1 
   1       0.8698170000      1.0000000000
 P 1 
   1       0.1889340000      1.0000000000
  end;

 # Basis set for element : O 
 NewGTO O 
 S 4 
   1  253789.0000000000      0.0001641076
   2   10151.6000000000      0.0074010921
   3     812.1250000000      0.1277711901
   4     122.6930000000      0.9223372164
 S 1 
   1      27.5608000000      1.0000000000
 S 1 
   1       7.3172600000      1.0000000000
 S 1 
   1       0.5792400000      1.0000000000
 P 2 
   1      53.4157000000      0.0793786106
   2       8.2177900000      0.9670506337
 P 1 
   1       1.6754400000      1.0000000000
 P 1 
   1       0.3506720000      1.0000000000
  end;

---------------------------------
AUXILIARY/J BASIS SET INFORMATION
---------------------------------
There are 3 groups of distinct atoms

 Group   1 Type C   : 12s5p4d2f1g contracted to 6s4p3d1f1g pattern {711111/2111/211/2/1}
 Group   2 Type H   : 5s2p1d contracted to 3s1p1d pattern {311/2/1}
 Group   3 Type O   : 12s5p4d2f1g contracted to 6s4p3d1f1g pattern {711111/2111/211/2/1}

Atom   0C    basis set group =>   1
Atom   1C    basis set group =>   1
Atom   2C    basis set group =>   1
Atom   3H    basis set group =>   2
Atom   4H    basis set group =>   2
Atom   5C    basis set group =>   1
Atom   6C    basis set group =>   1
Atom   7C    basis set group =>   1
Atom   8H    basis set group =>   2
Atom   9H    basis set group =>   2
Atom  10H    basis set group =>   2
Atom  11H    basis set group =>   2
Atom  12O    basis set group =>   3
Atom  13H    basis set group =>   2
Atom  14C    basis set group =>   1
Atom  15C    basis set group =>   1
Atom  16H    basis set group =>   2
Atom  17H    basis set group =>   2
Atom  18C    basis set group =>   1
Atom  19H    basis set group =>   2
Atom  20C    basis set group =>   1
Atom  21H    basis set group =>   2
Atom  22C    basis set group =>   1
Atom  23C    basis set group =>   1
Atom  24H    basis set group =>   2
Atom  25H    basis set group =>   2
Atom  26C    basis set group =>   1
Atom  27H    basis set group =>   2
Atom  28H    basis set group =>   2
Atom  29C    basis set group =>   1
Atom  30H    basis set group =>   2
Atom  31H    basis set group =>   2
Atom  32C    basis set group =>   1
Atom  33H    basis set group =>   2
Atom  34C    basis set group =>   1
Atom  35H    basis set group =>   2
Atom  36C    basis set group =>   1
Atom  37H    basis set group =>   2
Atom  38H    basis set group =>   2
Atom  39C    basis set group =>   1
Atom  40H    basis set group =>   2
Atom  41H    basis set group =>   2
Atom  42H    basis set group =>   2
Atom  43C    basis set group =>   1
Atom  44C    basis set group =>   1
Atom  45H    basis set group =>   2
Atom  46H    basis set group =>   2
Atom  47H    basis set group =>   2
Atom  48H    basis set group =>   2
Atom  49C    basis set group =>   1
Atom  50C    basis set group =>   1
Atom  51C    basis set group =>   1
Atom  52H    basis set group =>   2
Atom  53H    basis set group =>   2
Atom  54C    basis set group =>   1
Atom  55C    basis set group =>   1
Atom  56C    basis set group =>   1
Atom  57H    basis set group =>   2
Atom  58H    basis set group =>   2
Atom  59C    basis set group =>   1
Atom  60C    basis set group =>   1
Atom  61H    basis set group =>   2
Atom  62H    basis set group =>   2
Atom  63H    basis set group =>   2
Atom  64H    basis set group =>   2
Atom  65H    basis set group =>   2
Atom  66H    basis set group =>   2
Atom  67H    basis set group =>   2
Atom  68H    basis set group =>   2
Atom  69H    basis set group =>   2
Atom  70H    basis set group =>   2
Atom  71H    basis set group =>   2
Atom  72H    basis set group =>   2

-------------------------------------
AUXILIARY/J BASIS SET IN INPUT FORMAT
-------------------------------------

 # Auxiliary/J basis set for element : H 
 NewAuxJGTO H 
 S 3 
   1      15.6752927000      0.1007184237
   2       3.6063578000      0.3404257499
   3       1.2080016000      0.6491996172
 S 1 
   1       0.4726794000      1.0000000000
 S 1 
   1       0.2018100000      1.0000000000
 P 2 
   1       2.0281365000      0.5596620919
   2       0.5358730000      0.5596620919
 D 1 
   1       2.2165124000      1.0000000000
  end;

 # Auxiliary/J basis set for element : C 
 NewAuxJGTO C 
 S 7 
   1    1861.0916331000      0.0134602335
   2     642.9939764000      0.0299160374
   3     235.1105725000      0.1008649584
   4      90.7028894000      0.2370970548
   5      36.7794552000      0.3924037254
   6      15.6046273000      0.3195862154
   7       6.8907294000      0.0530104441
 S 1 
   1       3.1478850000     -1.0000000000
 S 1 
   1       1.4777287000      1.0000000000
 S 1 
   1       0.7076466000      1.0000000000
 S 1 
   1       0.3430122000      1.0000000000
 S 1 
   1       0.1669453000      1.0000000000
 P 2 
   1      13.5472892000     -0.6769313712
   2       5.4669419000     -0.3779500978
 P 1 
   1       2.1751721000      1.0000000000
 P 1 
   1       0.8582194000      1.0000000000
 P 1 
   1       0.3376720000      1.0000000000
 D 2 
   1       5.9287253000     -0.3533329857
   2       1.9809209000     -0.7456525731
 D 1 
   1       0.8055417000     -1.0000000000
 D 1 
   1       0.3531244000     -1.0000000000
 F 2 
   1       1.6755626000      0.6311076882
   2       0.5997536000      0.4968166032
 G 1 
   1       1.0024600000     -1.0000000000
  end;

 # Auxiliary/J basis set for element : O 
 NewAuxJGTO O 
 S 7 
   1    2876.8216605000      0.0168151159
   2    1004.7443032000      0.0340137548
   3     369.7579954000      0.1194951309
   4     142.9442404000      0.2664627624
   5      57.8366425000      0.4202764046
   6      24.3864983000      0.2765077335
   7      10.6622662000      0.0057008815
 S 1 
   1       4.8070437000     -1.0000000000
 S 1 
   1       2.2210770000      1.0000000000
 S 1 
   1       1.0447795000      1.0000000000
 S 1 
   1       0.4968425000      1.0000000000
 S 1 
   1       0.2371384000      1.0000000000
 P 2 
   1      64.2613382000     -0.2731534179
   2      16.3006076000     -0.8168011598
 P 1 
   1       4.3550542000      1.0000000000
 P 1 
   1       1.2019554000      1.0000000000
 P 1 
   1       0.3354196000      1.0000000000
 D 2 
   1       9.2146611000     -0.4661230638
   2       2.8435251000     -0.6600908911
 D 1 
   1       0.9955759000     -1.0000000000
 D 1 
   1       0.3649441000     -1.0000000000
 F 2 
   1       2.6420115000      0.5931563945
   2       0.7345613000      0.5931563945
 G 1 
   1       1.3931000000     -1.0000000000
  end;



           ************************************************************
           *        Program running with 4 parallel MPI-processes     *
           *              working on a common directory               *
           ************************************************************
------------------------------------------------------------------------------
                           ORCA GTO INTEGRAL CALCULATION
                           -- RI-GTO INTEGRALS CHOSEN --
------------------------------------------------------------------------------
------------------------------------------------------------------------------
                   ___                                                        
                  /   \      - P O W E R E D   B Y -                         
                 /     \                                                     
                 |  |  |   _    _      __       _____    __    __             
                 |  |  |  | |  | |    /  \     |  _  \  |  |  /  |          
                  \  \/   | |  | |   /    \    | | | |  |  | /  /          
                 / \  \   | |__| |  /  /\  \   | |_| |  |  |/  /          
                |  |  |   |  __  | /  /__\  \  |    /   |      \           
                |  |  |   | |  | | |   __   |  |    \   |  |\   \          
                \     /   | |  | | |  |  |  |  | |\  \  |  | \   \       
                 \___/    |_|  |_| |__|  |__|  |_| \__\ |__|  \__/        
                                                                              
                      - O R C A' S   B I G   F R I E N D -                    
                                      &                                       
                       - I N T E G R A L  F E E D E R -                       
                                                                              
 v1 FN, 2020, v2 2021                                                         
------------------------------------------------------------------------------


Reading SHARK input file inpJ.SHARKINP.tmp ... ok
----------------------
SHARK INTEGRAL PACKAGE
----------------------

Number of atoms                             ...     73
Number of basis functions                   ...    509
Number of shells                            ...    335
Maximum angular momentum                    ...      1
Integral batch strategy                     ... SHARK/LIBINT Hybrid
RI-J (if used) integral strategy            ... SPLIT-RIJ (Revised 2003 algorithm where possible)
Printlevel                                  ...      1
Contraction scheme used                     ... SEGMENTED contraction
Coulomb Range Separation                    ... NOT USED
Exchange Range Separation                   ... NOT USED
Finite Nucleus Model                        ... NOT USED
Auxiliary Coulomb fitting basis             ... AVAILABLE
   # of basis functions in Aux-J            ...   1905
   # of shells in Aux-J                     ...    655
   Maximum angular momentum in Aux-J        ...      4
Auxiliary J/K fitting basis                 ... NOT available
Auxiliary Correlation fitting basis         ... NOT available
Auxiliary 'external' fitting basis          ... NOT available
Integral threshold                          ...     3.000000e-11
Primitive cut-off                           ...     1.000000e-12
Primitive pair pre-selection threshold      ...     1.000000e-12

Calculating pre-screening integrals         ... done (  0.0 sec) Dimension = 335
Organizing shell pair data                  ... done (  0.1 sec)
Shell pair information
Total number of shell pairs                 ...     56280
Shell pairs after pre-screening             ...     21433
Total number of primitive shell pairs       ...    145865
Primitive shell pairs kept                  ...     36899
          la=0 lb=0:  10792 shell pairs
          la=1 lb=0:   8805 shell pairs
          la=1 lb=1:   1836 shell pairs

Calculating one electron integrals          ... done (  0.0 sec)
Calculating RI/J V-Matrix + Cholesky decomp.... done (  0.1 sec)
Calculating Nuclear repulsion               ... done (  0.0 sec) ENN=   2745.733515095807 Eh

SHARK setup successfully completed in   0.4 seconds

Maximum memory used throughout the entire GTOINT-calculation: 46.0 MB


           ************************************************************
           *        Program running with 4 parallel MPI-processes     *
           *              working on a common directory               *
           ************************************************************
-------------------------------------------------------------------------------
                                 ORCA SCF
-------------------------------------------------------------------------------

------------
SCF SETTINGS
------------
Hamiltonian:
 Density Functional     Method          .... DFT(GTOs)
 Exchange Functional    Exchange        .... PBE
   PBE kappa parameter   XKappa         ....  0.804000
   PBE mue parameter    XMuePBE         ....  0.219520
 Correlation Functional Correlation     .... PBE
   PBE beta parameter  CBetaPBE         ....  0.066725
 LDA part of GGA corr.  LDAOpt          .... PW91-LDA
 Gradients option       PostSCFGGA      .... off
 Hybrid DFT is turned on
   Fraction HF Exchange ScalHFX         ....  0.250000
   Scaling of DF-GGA-X  ScalDFX         ....  0.750000
   Scaling of DF-GGA-C  ScalDFC         ....  1.000000
   Scaling of DF-LDA-C  ScalLDAC        ....  1.000000
   Perturbative correction              ....  0.000000
   Density functional embedding theory  .... OFF
   NL short-range parameter             ....  6.900000
 RI-approximation to the Coulomb term is turned on
   Number of AuxJ basis functions       .... 1905
   RIJ-COSX (HFX calculated with COS-X)).... on


General Settings:
 Integral files         IntName         .... inpJ
 Hartree-Fock type      HFTyp           .... RHF
 Total Charge           Charge          ....    0
 Multiplicity           Mult            ....    1
 Number of Electrons    NEL             ....  220
 Basis Dimension        Dim             ....  509
 Nuclear Repulsion      ENuc            ....   2745.7335150958 Eh

Convergence Acceleration:
 DIIS                   CNVDIIS         .... on
   Start iteration      DIISMaxIt       ....    12
   Startup error        DIISStart       ....  0.200000
   # of expansion vecs  DIISMaxEq       ....     5
   Bias factor          DIISBfac        ....   1.050
   Max. coefficient     DIISMaxC        ....  10.000
 Trust-Rad. Augm. Hess. CNVTRAH         .... auto
   Auto Start mean grad. ratio tolernc. ....  1.125000
   Auto Start start iteration           ....    20
   Auto Start num. interpolation iter.  ....    10
   Max. Number of Micro iterations      ....    16
   Max. Number of Macro iterations      .... Maxiter - #DIIS iter
   Number of Davidson start vectors     ....     2
   Converg. threshold I  (grad. norm)   ....   1.000e-04
   Converg. threshold II (energy diff.) ....   1.000e-07
   Grad. Scal. Fac. for Micro threshold ....   0.100
   Minimum threshold for Micro iter.    ....   0.010
   NR start threshold (gradient norm)   ....   0.001
   Initial trust radius                 ....   0.400
   Minimum AH scaling param. (alpha)    ....   1.000
   Maximum AH scaling param. (alpha)    .... 1000.000
   Orbital update algorithm             .... Taylor
   White noise on init. David. guess    .... on
   Maximum white noise                  ....   0.010
   Quad. conv. algorithm                .... NR
 SOSCF                  CNVSOSCF        .... off
 Level Shifting         CNVShift        .... on
   Level shift para.    LevelShift      ....    0.2500
   Turn off err/grad.   ShiftErr        ....    0.0010
 Zerner damping         CNVZerner       .... off
 Static damping         CNVDamp         .... on
   Fraction old density DampFac         ....    0.7000
   Max. Damping (<1)    DampMax         ....    0.9800
   Min. Damping (>=0)   DampMin         ....    0.0000
   Turn off err/grad.   DampErr         ....    0.1000
 Fernandez-Rico         CNVRico         .... off

SCF Procedure:
 Maximum # iterations   MaxIter         ....   125
 SCF integral mode      SCFMode         .... Direct
   Integral package                     .... SHARK and LIBINT hybrid scheme
 Reset frequency        DirectResetFreq ....    20
 Integral Threshold     Thresh          ....  3.000e-11 Eh
 Primitive CutOff       TCut            ....  1.000e-12 Eh

Convergence Tolerance:
 Convergence Check Mode ConvCheckMode   .... Total+1el-Energy
 Convergence forced     ConvForced      .... 0
 Energy Change          TolE            ....  1.000e-07 Eh
 1-El. energy change                    ....  1.000e-04 Eh
 DIIS Error             TolErr          ....  1.000e-07


Diagonalization of the overlap matrix:
Smallest eigenvalue                        ... 7.561e-03
Time for diagonalization                   ...    0.027 sec
Threshold for overlap eigenvalues          ... 1.000e-08
Number of eigenvalues below threshold      ... 0
Time for construction of square roots      ...    0.029 sec
Total time needed                          ...    0.057 sec

Time for model grid setup =    0.905 sec

------------------------------
INITIAL GUESS: MODEL POTENTIAL
------------------------------
Loading Hartree-Fock densities                     ... done
Calculating cut-offs                               ... done
Initializing the effective Hamiltonian             ... done
Setting up the integral package (SHARK)            ... done
Starting the Coulomb interaction                   ... done (   0.4 sec)
Reading the grid                                   ... done
Mapping shells                                     ... done
Starting the XC term evaluation                    ... done (   0.1 sec)
  promolecular density results
     # of electrons  =    219.971048075
     EX              =   -164.432854825
     EC              =     -7.326920599
     EX+EC           =   -171.759775425
Transforming the Hamiltonian                       ... done (   0.0 sec)
Diagonalizing the Hamiltonian                      ... done (   0.0 sec)
Back transforming the eigenvectors                 ... done (   0.0 sec)
Now organizing SCF variables                       ... done
                      ------------------
                      INITIAL GUESS DONE (   1.5 sec)
                      ------------------
-------------------
DFT GRID GENERATION
-------------------

General Integration Accuracy     IntAcc      ... 4.388
Radial Grid Type                 RadialGrid  ... OptM3 with GC (2021)
Angular Grid (max. ang.)         AngularGrid ... 4 (Lebedev-302)
Angular grid pruning method      GridPruning ... 4 (adaptive)
Weight generation scheme         WeightScheme... Becke
Basis function cutoff            BFCut       ... 1.0000e-11
Integration weight cutoff        WCut        ... 1.0000e-14
Angular grids for H and He will be reduced by one unit
Partially contracted basis set               ... off
Rotationally invariant grid construction     ... off

Total number of grid points                  ...   310094
Total number of batches                      ...     4881
Average number of points per batch           ...       63
Average number of grid points per atom       ...     4248
Time for grid setup =    2.799 sec

--------------------
COSX GRID GENERATION
--------------------

GRIDX 1
-------
General Integration Accuracy     IntAcc      ... 3.816
Radial Grid Type                 RadialGrid  ... OptM3 with GC (2021)
Angular Grid (max. ang.)         AngularGrid ... 1 (Lebedev-50)
Angular grid pruning method      GridPruning ... 4 (adaptive)
Weight generation scheme         WeightScheme... Becke
Basis function cutoff            BFCut       ... 1.0000e-11
Integration weight cutoff        WCut        ... 1.0000e-14
Angular grids for H and He will be reduced by one unit
Partially contracted basis set               ... on
Rotationally invariant grid construction     ... off

Total number of grid points                  ...    39492
Total number of batches                      ...      660
Average number of points per batch           ...       59
Average number of grid points per atom       ...      541
UseSFitting                                  ... on

GRIDX 2
-------
General Integration Accuracy     IntAcc      ... 4.020
Radial Grid Type                 RadialGrid  ... OptM3 with GC (2021)
Angular Grid (max. ang.)         AngularGrid ... 2 (Lebedev-110)
Angular grid pruning method      GridPruning ... 4 (adaptive)
Weight generation scheme         WeightScheme... Becke
Basis function cutoff            BFCut       ... 1.0000e-11
Integration weight cutoff        WCut        ... 1.0000e-14
Angular grids for H and He will be reduced by one unit
Partially contracted basis set               ... on
Rotationally invariant grid construction     ... off

Total number of grid points                  ...    81635
Total number of batches                      ...     1313
Average number of points per batch           ...       62
Average number of grid points per atom       ...     1118
UseSFitting                                  ... on

GRIDX 3
-------
General Integration Accuracy     IntAcc      ... 4.338
Radial Grid Type                 RadialGrid  ... OptM3 with GC (2021)
Angular Grid (max. ang.)         AngularGrid ... 3 (Lebedev-194)
Angular grid pruning method      GridPruning ... 4 (adaptive)
Weight generation scheme         WeightScheme... Becke
Basis function cutoff            BFCut       ... 1.0000e-11
Integration weight cutoff        WCut        ... 1.0000e-14
Angular grids for H and He will be reduced by one unit
Partially contracted basis set               ... on
Rotationally invariant grid construction     ... off

Total number of grid points                  ...   176648
Total number of batches                      ...     2795
Average number of points per batch           ...       63
Average number of grid points per atom       ...     2420
UseSFitting                                  ... on

Time for X-Grid setup             =    3.095 sec


--------------------
CPCM SOLVATION MODEL
--------------------
CPCM parameters:
  Epsilon                                         ...       4.9000
  Refrac                                          ...       1.4500
  Rsolv                                           ...       1.3000
  Surface type                                    ... GAUSSIAN VDW
  Epsilon function type                           ...         CPCM
Radii:
 Radius for C  used is    3.8550 Bohr (=   2.0400 Ang.)
 Radius for H  used is    2.4944 Bohr (=   1.3200 Ang.)
 Radius for O  used is    3.4469 Bohr (=   1.8240 Ang.)
Calculating surface                               ...        done! (  0.0s)
GEPOL surface points                              ...         3635
GEPOL Volume                                      ...    3597.8317
GEPOL Surface-area                                ...    1792.2870
Calculating surface distance matrix               ...        done! (  0.1s)
Performing Cholesky decomposition & store         ...        done! (  0.8s)
Overall time for CPCM initialization              ...                 0.9s
--------------
SCF ITERATIONS
--------------
ITER       Energy         Delta-E        Max-DP      RMS-DP      [F,P]     Damp
               ***  Starting incremental Fock matrix formation  ***

  HOMO= 109 E= -3.892 eV LUMO=  7.785 eV gap=  11.677 eV
  0  -1165.0076688176   0.000000000000 0.09723717  0.00105964  0.1933897 0.7000

  HOMO= 109 E= -4.741 eV LUMO=  7.088 eV gap=  11.829 eV
  1  -1165.2260998550  -0.218431037405 0.06524365  0.00078037  0.0942013 0.7000
                               ***Turning on DIIS***

  HOMO= 109 E= -5.341 eV LUMO=  6.530 eV gap=  11.871 eV
  2  -1165.3271224149  -0.101022559905 0.10346169  0.00138600  0.0376617 0.0000

  HOMO= 109 E= -5.908 eV LUMO=  5.987 eV gap=  11.895 eV
  3  -1165.4716147602  -0.144492345342 0.05146102  0.00056658  0.0455375 0.0000

  HOMO= 109 E= -5.987 eV LUMO=  5.908 eV gap=  11.895 eV
  4  -1165.5070317824  -0.035417022157 0.01160677  0.00013424  0.0058575 0.0000

  HOMO= 109 E= -5.934 eV LUMO=  5.969 eV gap=  11.903 eV
  5  -1165.5078971360  -0.000865353610 0.00286563  0.00003818  0.0044859 0.0000

  HOMO= 109 E= -5.920 eV LUMO=  5.982 eV gap=  11.903 eV
  6  -1165.5079747752  -0.000077639267 0.00116284  0.00001162  0.0010750 0.0000

  HOMO= 109 E= -5.922 eV LUMO= -0.822 eV gap=   5.100 eV
  7  -1165.5079801781  -0.000005402817 0.00050926  0.00000595  0.0002335 0.0000
               *** Restarting incremental Fock matrix formation ***
                                   *** Resetting DIIS ***

  HOMO= 109 E= -5.921 eV LUMO= -0.821 eV gap=   5.101 eV
  8  -1165.5077918835   0.000188294577 0.00026234  0.00000250  0.0001179 0.0000

  HOMO= 109 E= -5.921 eV LUMO= -0.821 eV gap=   5.101 eV
  9  -1165.5077919248  -0.000000041346 0.00012940  0.00000120  0.0001529 0.0000

  HOMO= 109 E= -5.922 eV LUMO= -0.821 eV gap=   5.101 eV
 10  -1165.5077920239  -0.000000099088 0.00005707  0.00000036  0.0000315 0.0000

  HOMO= 109 E= -5.922 eV LUMO= -0.821 eV gap=   5.101 eV
 11  -1165.5077920648  -0.000000040873 0.00002317  0.00000016  0.0000182 0.0000

  HOMO= 109 E= -5.922 eV LUMO= -0.821 eV gap=   5.101 eV
 12  -1165.5077920546   0.000000010170 0.00000646  0.00000004  0.0000031 0.0000
                 **** Energy Check signals convergence ****

               *****************************************************
               *                     SUCCESS                       *
               *           SCF CONVERGED AFTER  13 CYCLES          *
               *****************************************************

Old exchange energy                            =    -42.068109656 Eh
New exchange energy                            =    -42.068011316 Eh
Exchange energy change after final integration =      0.000098341 Eh
Total energy after final integration           =  -1165.507693725 Eh
Final COS-X integration done in                =    13.020 sec

----------------
TOTAL SCF ENERGY
----------------

Total Energy       :        -1165.50769373 Eh          -31715.07671 eV

Components:
Nuclear Repulsion  :         2745.73351510 Eh           74715.20739 eV
Electronic Energy  :        -3911.24120882 Eh         -106430.28410 eV
One Electron Energy:        -7033.46576012 Eh         -191390.33343 eV
Two Electron Energy:         3122.22455130 Eh           84960.04933 eV
Max COSX asymmetry :            0.00000351 Eh               0.00010 eV
CPCM Dielectric    :           -0.01536929 Eh              -0.41822 eV

Virial components:
Potential Energy   :        -2322.40959682 Eh          -63195.97795 eV
Kinetic Energy     :         1156.90190310 Eh           31480.90124 eV
Virial Ratio       :            2.00743865


DFT components:
N(Alpha)           :      110.000280030999 electrons
N(Beta)            :      110.000280030999 electrons
N(Total)           :      220.000560061998 electrons
E(X)               :     -125.746930148407 Eh       
E(C)               :       -7.327768552631 Eh       
E(XC)              :     -133.074698701038 Eh       
DFET-embed. en.    :        0.000000000000 Eh       
CPCM Solvation Model Properties:
Surface-charge          :           -0.03469589
Charge-correction       :           -0.00005822 Eh              -0.00158 eV
Free-energy (cav+disp)  :  This term is not implemented in the current solvation scheme

---------------
SCF CONVERGENCE
---------------

  Last Energy change         ...   -1.1463e-08  Tolerance :   1.0000e-07
  Last MAX-Density change    ...    0.0000e+00  Tolerance :   1.0000e-05
  Last RMS-Density change    ...    0.0000e+00  Tolerance :   1.0000e-06
  Last DIIS Error            ...    2.4082e-06  Tolerance :   1.0000e-07

             **** THE GBW FILE WAS UPDATED (inpJ.gbw) ****
             **** DENSITY inpJ.scfp WAS UPDATED ****
             **** ENERGY FILE WAS UPDATED (inpJ.en.tmp) ****
             **** THE GBW FILE WAS UPDATED (inpJ.gbw) ****
             **** DENSITY inpJ.scfp WAS UPDATED ****
----------------
ORBITAL ENERGIES
----------------

  NO   OCC          E(Eh)            E(eV) 
   0   2.0000     -19.215281      -522.8744 
   1   2.0000     -10.301454      -280.3168 
   2   2.0000     -10.269508      -279.4475 
   3   2.0000     -10.266857      -279.3754 
   4   2.0000     -10.261879      -279.2399 
   5   2.0000     -10.256521      -279.0941 
   6   2.0000     -10.253500      -279.0119 
   7   2.0000     -10.251864      -278.9674 
   8   2.0000     -10.251126      -278.9473 
   9   2.0000     -10.250003      -278.9168 
  10   2.0000     -10.249216      -278.8954 
  11   2.0000     -10.246414      -278.8191 
  12   2.0000     -10.246247      -278.8146 
  13   2.0000     -10.245589      -278.7966 
  14   2.0000     -10.243840      -278.7491 
  15   2.0000     -10.243210      -278.7319 
  16   2.0000     -10.241921      -278.6968 
  17   2.0000     -10.241892      -278.6960 
  18   2.0000     -10.241075      -278.6738 
  19   2.0000     -10.240928      -278.6698 
  20   2.0000     -10.239044      -278.6186 
  21   2.0000     -10.235366      -278.5185 
  22   2.0000     -10.234725      -278.5010 
  23   2.0000     -10.233475      -278.4670 
  24   2.0000     -10.224446      -278.2213 
  25   2.0000     -10.224367      -278.2192 
  26   2.0000     -10.224186      -278.2142 
  27   2.0000     -10.224021      -278.2098 
  28   2.0000     -10.220592      -278.1164 
  29   2.0000      -1.045965       -28.4621 
  30   2.0000      -0.901048       -24.5188 
  31   2.0000      -0.883761       -24.0484 
  32   2.0000      -0.859668       -23.3928 
  33   2.0000      -0.845852       -23.0168 
  34   2.0000      -0.822230       -22.3740 
  35   2.0000      -0.814269       -22.1574 
  36   2.0000      -0.795156       -21.6373 
  37   2.0000      -0.794854       -21.6291 
  38   2.0000      -0.776613       -21.1327 
  39   2.0000      -0.757930       -20.6243 
  40   2.0000      -0.740552       -20.1514 
  41   2.0000      -0.730599       -19.8806 
  42   2.0000      -0.714127       -19.4324 
  43   2.0000      -0.702069       -19.1043 
  44   2.0000      -0.699313       -19.0293 
  45   2.0000      -0.694011       -18.8850 
  46   2.0000      -0.669398       -18.2152 
  47   2.0000      -0.664550       -18.0833 
  48   2.0000      -0.634736       -17.2720 
  49   2.0000      -0.622021       -16.9261 
  50   2.0000      -0.619543       -16.8586 
  51   2.0000      -0.608613       -16.5612 
  52   2.0000      -0.597737       -16.2652 
  53   2.0000      -0.584349       -15.9009 
  54   2.0000      -0.559194       -15.2164 
  55   2.0000      -0.541384       -14.7318 
  56   2.0000      -0.532570       -14.4920 
  57   2.0000      -0.529437       -14.4067 
  58   2.0000      -0.515245       -14.0205 
  59   2.0000      -0.511136       -13.9087 
  60   2.0000      -0.505519       -13.7559 
  61   2.0000      -0.492498       -13.4015 
  62   2.0000      -0.480224       -13.0676 
  63   2.0000      -0.476076       -12.9547 
  64   2.0000      -0.473774       -12.8921 
  65   2.0000      -0.469003       -12.7622 
  66   2.0000      -0.464677       -12.6445 
  67   2.0000      -0.459093       -12.4925 
  68   2.0000      -0.457464       -12.4482 
  69   2.0000      -0.455882       -12.4052 
  70   2.0000      -0.448328       -12.1996 
  71   2.0000      -0.444045       -12.0831 
  72   2.0000      -0.436007       -11.8644 
  73   2.0000      -0.432646       -11.7729 
  74   2.0000      -0.430489       -11.7142 
  75   2.0000      -0.421489       -11.4693 
  76   2.0000      -0.416776       -11.3410 
  77   2.0000      -0.413890       -11.2625 
  78   2.0000      -0.408984       -11.1290 
  79   2.0000      -0.404001       -10.9934 
  80   2.0000      -0.401375       -10.9220 
  81   2.0000      -0.397235       -10.8093 
  82   2.0000      -0.396447       -10.7879 
  83   2.0000      -0.388409       -10.5691 
  84   2.0000      -0.386129       -10.5071 
  85   2.0000      -0.379660       -10.3311 
  86   2.0000      -0.376253       -10.2384 
  87   2.0000      -0.370351       -10.0778 
  88   2.0000      -0.367470        -9.9994 
  89   2.0000      -0.366364        -9.9693 
  90   2.0000      -0.361917        -9.8483 
  91   2.0000      -0.360903        -9.8207 
  92   2.0000      -0.351258        -9.5582 
  93   2.0000      -0.344852        -9.3839 
  94   2.0000      -0.342014        -9.3067 
  95   2.0000      -0.340352        -9.2614 
  96   2.0000      -0.335551        -9.1308 
  97   2.0000      -0.333986        -9.0882 
  98   2.0000      -0.329332        -8.9616 
  99   2.0000      -0.327333        -8.9072 
 100   2.0000      -0.326689        -8.8897 
 101   2.0000      -0.326093        -8.8734 
 102   2.0000      -0.319846        -8.7035 
 103   2.0000      -0.316023        -8.5994 
 104   2.0000      -0.311642        -8.4802 
 105   2.0000      -0.300829        -8.1860 
 106   2.0000      -0.280079        -7.6213 
 107   2.0000      -0.274926        -7.4811 
 108   2.0000      -0.254926        -6.9369 
 109   2.0000      -0.217615        -5.9216 
 110   0.0000      -0.030157        -0.8206 
 111   0.0000       0.021266         0.5787 
 112   0.0000       0.030010         0.8166 
 113   0.0000       0.082409         2.2425 
 114   0.0000       0.094139         2.5616 
 115   0.0000       0.101316         2.7570 
 116   0.0000       0.102209         2.7813 
 117   0.0000       0.107047         2.9129 
 118   0.0000       0.109444         2.9781 
 119   0.0000       0.114188         3.1072 
 120   0.0000       0.118781         3.2322 
 121   0.0000       0.119880         3.2621 
 122   0.0000       0.125641         3.4189 
 123   0.0000       0.127703         3.4750 
 124   0.0000       0.131879         3.5886 
 125   0.0000       0.138178         3.7600 
 126   0.0000       0.140446         3.8217 
 127   0.0000       0.141089         3.8392 
 128   0.0000       0.144052         3.9198 
 129   0.0000       0.151296         4.1170 
 130   0.0000       0.156622         4.2619 
 131   0.0000       0.159420         4.3380 
 132   0.0000       0.163679         4.4539 
 133   0.0000       0.164768         4.4836 
 134   0.0000       0.165622         4.5068 
 135   0.0000       0.168471         4.5843 
 136   0.0000       0.171682         4.6717 
 137   0.0000       0.174868         4.7584 
 138   0.0000       0.175295         4.7700 
 139   0.0000       0.178946         4.8694 
 140   0.0000       0.182703         4.9716 
 141   0.0000       0.184324         5.0157 
 142   0.0000       0.185598         5.0504 
 143   0.0000       0.188803         5.1376 
 144   0.0000       0.191924         5.2225 
 145   0.0000       0.195130         5.3098 
 146   0.0000       0.198640         5.4053 
 147   0.0000       0.201176         5.4743 
 148   0.0000       0.202819         5.5190 
 149   0.0000       0.206272         5.6129 
 150   0.0000       0.212658         5.7867 
 151   0.0000       0.219024         5.9600 
 152   0.0000       0.222813         6.0631 
 153   0.0000       0.224844         6.1183 
 154   0.0000       0.231527         6.3002 
 155   0.0000       0.237310         6.4575 
 156   0.0000       0.244758         6.6602 
 157   0.0000       0.246115         6.6971 
 158   0.0000       0.249143         6.7795 
 159   0.0000       0.253801         6.9063 
 160   0.0000       0.255549         6.9538 
 161   0.0000       0.258245         7.0272 
 162   0.0000       0.265602         7.2274 
 163   0.0000       0.267868         7.2891 
 164   0.0000       0.270524         7.3613 
 165   0.0000       0.272525         7.4158 
 166   0.0000       0.277691         7.5564 
 167   0.0000       0.280864         7.6427 
 168   0.0000       0.286159         7.7868 
 169   0.0000       0.294131         8.0037 
 170   0.0000       0.295447         8.0395 
 171   0.0000       0.299378         8.1465 
 172   0.0000       0.303231         8.2513 
 173   0.0000       0.306511         8.3406 
 174   0.0000       0.309701         8.4274 
 175   0.0000       0.319441         8.6924 
 176   0.0000       0.327482         8.9112 
 177   0.0000       0.337515         9.1842 
 178   0.0000       0.352741         9.5986 
 179   0.0000       0.357304         9.7227 
 180   0.0000       0.366813         9.9815 
 181   0.0000       0.378765        10.3067 
 182   0.0000       0.380661        10.3583 
 183   0.0000       0.408699        11.1213 
 184   0.0000       0.419687        11.4203 
 185   0.0000       0.463548        12.6138 
 186   0.0000       0.482528        13.1303 
 187   0.0000       0.492982        13.4147 
 188   0.0000       0.503314        13.6959 
 189   0.0000       0.521298        14.1852 
 190   0.0000       0.524317        14.2674 
 191   0.0000       0.528433        14.3794 
 192   0.0000       0.543394        14.7865 
 193   0.0000       0.553999        15.0751 
 194   0.0000       0.563153        15.3242 
 195   0.0000       0.564967        15.3735 
 196   0.0000       0.576873        15.6975 
 197   0.0000       0.583812        15.8863 
 198   0.0000       0.586535        15.9604 
 199   0.0000       0.607037        16.5183 
 200   0.0000       0.614175        16.7126 
 201   0.0000       0.625518        17.0212 
 202   0.0000       0.626491        17.0477 
 203   0.0000       0.639686        17.4068 
 204   0.0000       0.641907        17.4672 
 205   0.0000       0.649090        17.6626 
 206   0.0000       0.651475        17.7275 
 207   0.0000       0.659234        17.9387 
 208   0.0000       0.665015        18.0960 
 209   0.0000       0.667337        18.1592 
 210   0.0000       0.675350        18.3772 
 211   0.0000       0.691777        18.8242 
 212   0.0000       0.693729        18.8773 
 213   0.0000       0.699814        19.0429 
 214   0.0000       0.705309        19.1924 
 215   0.0000       0.711471        19.3601 
 216   0.0000       0.716181        19.4883 
 217   0.0000       0.725186        19.7333 
 218   0.0000       0.727184        19.7877 
 219   0.0000       0.728167        19.8144 
 220   0.0000       0.732116        19.9219 
 221   0.0000       0.738742        20.1022 
 222   0.0000       0.742624        20.2078 
 223   0.0000       0.743087        20.2204 
 224   0.0000       0.748611        20.3707 
 225   0.0000       0.749879        20.4053 
 226   0.0000       0.754052        20.5188 
 227   0.0000       0.761208        20.7135 
 228   0.0000       0.762338        20.7443 
 229   0.0000       0.765870        20.8404 
 230   0.0000       0.772619        21.0240 
 231   0.0000       0.775827        21.1113 
 232   0.0000       0.778120        21.1737 
 233   0.0000       0.778610        21.1870 
 234   0.0000       0.789665        21.4879 
 235   0.0000       0.797858        21.7108 
 236   0.0000       0.799307        21.7502 
 237   0.0000       0.805883        21.9292 
 238   0.0000       0.813598        22.1391 
 239   0.0000       0.821498        22.3541 
 240   0.0000       0.825536        22.4640 
 241   0.0000       0.826089        22.4790 
 242   0.0000       0.837793        22.7975 
 243   0.0000       0.841123        22.8881 
 244   0.0000       0.852367        23.1941 
 245   0.0000       0.856067        23.2948 
 246   0.0000       0.859573        23.3902 
 247   0.0000       0.862415        23.4675 
 248   0.0000       0.864609        23.5272 
 249   0.0000       0.871110        23.7041 
 250   0.0000       0.872586        23.7443 
 251   0.0000       0.874403        23.7937 
 252   0.0000       0.875897        23.8344 
 253   0.0000       0.877907        23.8891 
 254   0.0000       0.879632        23.9360 
 255   0.0000       0.881051        23.9746 
 256   0.0000       0.886704        24.1284 
 257   0.0000       0.887374        24.1467 
 258   0.0000       0.889795        24.2125 
 259   0.0000       0.896232        24.3877 
 260   0.0000       0.900236        24.4967 
 261   0.0000       0.903140        24.5757 
 262   0.0000       0.909392        24.7458 
 263   0.0000       0.916986        24.9524 
 264   0.0000       0.918513        24.9940 
 265   0.0000       0.925451        25.1828 
 266   0.0000       0.927747        25.2453 
 267   0.0000       0.930543        25.3214 
 268   0.0000       0.932091        25.3635 
 269   0.0000       0.935776        25.4637 
 270   0.0000       0.939582        25.5673 
 271   0.0000       0.942357        25.6428 
 272   0.0000       0.945910        25.7395 
 273   0.0000       0.949416        25.8349 
 274   0.0000       0.956449        26.0263 
 275   0.0000       0.961111        26.1532 
 276   0.0000       0.963361        26.2144 
 277   0.0000       0.969654        26.3856 
 278   0.0000       0.976282        26.5660 
 279   0.0000       0.980189        26.6723 
 280   0.0000       0.991014        26.9669 
 281   0.0000       0.998274        27.1644 
 282   0.0000       1.002245        27.2725 
 283   0.0000       1.004878        27.3441 
 284   0.0000       1.018528        27.7156 
 285   0.0000       1.027177        27.9509 
 286   0.0000       1.027497        27.9596 
 287   0.0000       1.032516        28.0962 
 288   0.0000       1.040833        28.3225 
 289   0.0000       1.062278        28.9061 
 290   0.0000       1.063902        28.9502 
 291   0.0000       1.070624        29.1331 
 292   0.0000       1.084592        29.5132 
 293   0.0000       1.092982        29.7416 
 294   0.0000       1.095212        29.8022 
 295   0.0000       1.109257        30.1844 
 296   0.0000       1.119094        30.4521 
 297   0.0000       1.131847        30.7991 
 298   0.0000       1.141682        31.0668 
 299   0.0000       1.144154        31.1340 
 300   0.0000       1.168427        31.7945 
 301   0.0000       1.176671        32.0188 
 302   0.0000       1.204750        32.7829 
 303   0.0000       1.215839        33.0847 
 304   0.0000       1.240898        33.7665 
 305   0.0000       1.246202        33.9109 
 306   0.0000       1.255854        34.1735 
 307   0.0000       1.266907        34.4743 
 308   0.0000       1.294388        35.2221 
 309   0.0000       1.310489        35.6602 
 310   0.0000       1.329934        36.1893 
 311   0.0000       1.343423        36.5564 
 312   0.0000       1.365220        37.1495 
 313   0.0000       1.375031        37.4165 
 314   0.0000       1.406490        38.2725 
 315   0.0000       1.525028        41.4981 
 316   0.0000       1.525867        41.5210 
 317   0.0000       1.565159        42.5901 
 318   0.0000       1.605658        43.6922 
 319   0.0000       1.657214        45.0951 
 320   0.0000       6.207833       168.9237 
 321   0.0000       6.239973       169.7983 
 322   0.0000       6.244760       169.9286 
 323   0.0000       6.275534       170.7660 
 324   0.0000       6.286804       171.0726 
 325   0.0000       6.294250       171.2752 
 326   0.0000       6.302427       171.4978 
 327   0.0000       6.314321       171.8214 
 328   0.0000       6.321455       172.0155 
 329   0.0000       6.327531       172.1809 
 330   0.0000       6.341176       172.5522 
 331   0.0000       6.352540       172.8614 
 332   0.0000       6.361128       173.0951 
 333   0.0000       6.379106       173.5843 
 334   0.0000       6.385168       173.7492 
 335   0.0000       6.393491       173.9757 
 336   0.0000       6.395309       174.0252 
 337   0.0000       6.404520       174.2759 
 338   0.0000       6.416938       174.6138 
 339   0.0000       6.421095       174.7269 
 340   0.0000       6.428465       174.9274 
 341   0.0000       6.434581       175.0939 
 342   0.0000       6.447192       175.4370 
 343   0.0000       6.456871       175.7004 
 344   0.0000       6.467524       175.9903 
 345   0.0000       6.471993       176.1119 
 346   0.0000       6.480441       176.3418 
 347   0.0000       6.492719       176.6759 
 348   0.0000       6.506769       177.0582 
 349   0.0000       6.512791       177.2221 
 350   0.0000       6.524136       177.5308 
 351   0.0000       6.531589       177.7336 
 352   0.0000       6.540032       177.9633 
 353   0.0000       6.543996       178.0712 
 354   0.0000       6.546898       178.1502 
 355   0.0000       6.553503       178.3299 
 356   0.0000       6.557097       178.4277 
 357   0.0000       6.561208       178.5395 
 358   0.0000       6.565386       178.6532 
 359   0.0000       6.577377       178.9795 
 360   0.0000       6.579579       179.0394 
 361   0.0000       6.583655       179.1504 
 362   0.0000       6.597552       179.5285 
 363   0.0000       6.602657       179.6674 
 364   0.0000       6.606528       179.7728 
 365   0.0000       6.608691       179.8316 
 366   0.0000       6.615450       180.0156 
 367   0.0000       6.617567       180.0732 
 368   0.0000       6.619084       180.1144 
 369   0.0000       6.620651       180.1571 
 370   0.0000       6.624841       180.2711 
 371   0.0000       6.628627       180.3741 
 372   0.0000       6.632021       180.4665 
 373   0.0000       6.641137       180.7145 
 374   0.0000       6.643085       180.7675 
[...]
     69 H        0.000      0.000      0.000      0.000      0.000      0.000
     70 H        0.000      0.000      0.000      0.000      0.003      0.034
     71 H        0.000      0.000      0.000     -0.000      0.001      0.018
     72 H        0.000      0.000      0.000      0.000      0.001      0.012
                 25 H       27 H       28 H       30 H       31 H       33 H  
      3 H        2.524     -0.104      0.065      0.000      0.000      2.417
      4 H        0.115     -0.004      0.004      0.000      0.000      0.101
      8 H       -0.346      0.011      0.000      0.000      0.000     -0.313
      9 H        0.000      0.000      0.000      0.000      0.000      0.136
     10 H        0.000      0.000      0.000      0.000      0.000      0.000
     11 H        0.000      0.000      0.000      0.000      0.000      0.000
     13 H       -0.103      0.004     -0.004      0.000      0.000     -0.105
     16 H       -0.377      0.012     -0.006     -0.021     -0.001     -0.344
     17 H       -0.372      0.011      0.000      0.000      0.000     -0.323
     19 H        0.959     -0.048      0.019      0.088      0.007      1.169
     21 H       -2.867      0.195      0.640     -0.214     -0.026     -2.639
     24 H      -14.130      4.386      2.245      0.730     -0.492     -0.152
     25 H        0.000     12.991      5.315     -0.637     -0.345     -2.442
     27 H       12.991      0.000    -13.580      3.995     13.029      0.068
     28 H        5.315    -13.580      0.000      2.686      4.095      0.280
     30 H       -0.637      3.995      2.686      0.000    -13.011      0.041
     31 H       -0.345     13.029      4.095    -13.011      0.000     -0.305
     33 H       -2.442      0.068      0.280      0.041     -0.305      0.000
     35 H        0.000      0.000      0.000      0.000      0.000      0.000
     37 H        0.273      0.006     -0.035      0.516     -0.039      6.498
     38 H        0.193      0.002     -0.029     -0.015      0.127     12.180
     40 H       -0.013      0.020      0.148     -0.003     -0.034     -0.239
     41 H        0.013      0.020     -0.027      0.014      0.076     -0.424
     42 H       -0.019      0.011     -0.012     -0.263     -0.391     -0.220
     45 H       -0.018     -0.199      0.027     -0.211     -0.494     -0.181
     46 H        0.014      0.049      0.066     -0.331      0.027      0.921
     47 H       -0.058     -0.100     -0.135     -0.182      1.787     -0.474
     48 H       -0.017      0.028      0.023      0.041      0.007     -0.019
     52 H        0.001      0.000      0.003     -0.014     -0.000      0.004
     53 H       -0.001     -0.000     -0.000     -0.002     -0.003     -0.007
     57 H        0.000      0.000      0.000      0.003      0.004      0.006
     58 H        0.000      0.000      0.000     -0.000      0.000      0.000
     61 H        0.000      0.000      0.000     -0.000     -0.000     -0.000
     62 H        0.000      0.000      0.000     -0.000     -0.000      0.000
     63 H        0.000      0.000      0.000      0.000      0.000      0.000
     64 H        0.000      0.000      0.000      0.000      0.000      0.000
     65 H        0.000      0.000      0.000     -0.000      0.000      0.000
     66 H        0.000      0.000      0.000     -0.000      0.000      0.000
     67 H        0.000      0.000      0.000      0.000      0.000      0.000
     68 H        0.000      0.000      0.000      0.000      0.000      0.000
     69 H        0.000      0.000      0.000      0.000      0.000      0.000
     70 H        0.001     -0.009     -0.010      0.049     -0.050      0.006
     71 H        0.003     -0.006     -0.007     -0.498     -0.099      0.005
     72 H       -0.000     -0.004     -0.004      0.042      0.005     -0.000
                 35 H       37 H       38 H       40 H       41 H       42 H  
      3 H       -0.083     -0.044     -0.040      0.000      0.000      0.000
      4 H       -0.169     -0.002     -0.002      0.000      0.000      0.000
      8 H        0.021      0.006      0.004      0.000      0.001      0.000
      9 H       -0.092     -0.002     -0.001      0.000     -0.000      0.000
     10 H       -0.179      0.000     -0.001      0.000      0.000      0.000
     11 H       -0.098     -0.000     -0.000      0.000      0.000      0.000
     13 H       13.783      0.002      0.001      0.000      0.000      0.000
     16 H        0.005      0.007      0.002     -0.001      0.001     -0.001
     17 H        0.007      0.005      0.005      0.000      0.002      0.000
     19 H       -0.004     -0.011      0.115      0.004     -0.009      0.007
     21 H       -0.004      0.037     -0.531     -0.010      0.059     -0.026
     24 H       -0.001     -0.051     -0.078     -0.021      0.066     -0.026
     25 H        0.000      0.273      0.193     -0.013      0.013     -0.019
     27 H        0.000      0.006      0.002      0.020      0.020      0.011
     28 H        0.000     -0.035     -0.029      0.148     -0.027     -0.012
     30 H        0.000      0.516     -0.015     -0.003      0.014     -0.263
     31 H        0.000     -0.039      0.127     -0.034      0.076     -0.391
     33 H        0.000      6.498     12.180     -0.239     -0.424     -0.220
     35 H        0.000      0.000      0.000      0.000      0.000      0.000
     37 H        0.000      0.000    -12.216      9.547      2.556     -0.267
     38 H        0.000    -12.216      0.000      6.710     11.557     -0.482
     40 H        0.000      9.547      6.710      0.000    -13.313      9.307
     41 H        0.000      2.556     11.557    -13.313      0.000      8.683
     42 H        0.000     -0.267     -0.482      9.307      8.683      0.000
     45 H        0.000      0.065      0.040     -0.074      0.010      1.102
     46 H        0.000     -0.172      0.014      0.059      0.040     -0.418
     47 H        0.000      0.081     -0.046     -0.089     -0.050     -0.101
     48 H        0.000      0.119     -0.006     -0.205     -0.437     10.607
     52 H        0.000     -0.014     -0.012      0.190     -0.205     -0.178
     53 H        0.000     -0.005     -0.007     -0.004      0.101      0.128
     57 H        0.000     -0.002      0.001      0.037      0.003     -0.103
     58 H        0.000      0.000     -0.000     -0.002      0.000      0.005
     61 H        0.000      0.000      0.000     -0.012     -0.004      0.002
     62 H        0.000     -0.000     -0.000     -0.001     -0.001      0.000
     63 H        0.000     -0.000     -0.000     -0.002     -0.001     -0.002
     64 H        0.000      0.000      0.000     -0.000      0.001      0.001
     65 H        0.000      0.000      0.000     -0.000      0.001     -0.000
     66 H        0.000      0.000      0.000      0.001     -0.000     -0.001
     67 H        0.000      0.000      0.000     -0.000     -0.000      0.001
     68 H        0.000      0.000      0.000      0.000      0.000     -0.001
     69 H        0.000      0.000      0.000      0.003      0.000      0.000
     70 H        0.000      0.066      0.014     -0.048      0.006     -0.465
     71 H        0.000     -0.006     -0.000      0.085      0.034     -0.207
     72 H        0.000     -0.021      0.037      0.021     -0.042     -0.351
                 45 H       46 H       47 H       48 H       52 H       53 H  
      3 H       -0.022      0.000      0.000      0.000      0.000      0.000
      4 H       -0.001     -0.001      0.001      0.000      0.000      0.000
      8 H        0.002      0.002     -0.003      0.000      0.000      0.000
      9 H       -0.001      0.000      0.001      0.000      0.000      0.000
     10 H       -0.001      0.000      0.000      0.000      0.000      0.000
     11 H       -0.000      0.000      0.000      0.000      0.000      0.000
     13 H        0.001      0.001     -0.001      0.000      0.000      0.000
     16 H        0.002      0.002     -0.003      0.000      0.000      0.000
     17 H        0.003      0.000     -0.004      0.000      0.000      0.000
     19 H       -0.010     -0.008      0.011      0.007      0.000      0.000
     21 H        0.033      0.012     -0.018     -0.018      0.001      0.000
     24 H       -0.023     -0.016     -0.024      0.005      0.000      0.000
     25 H       -0.018      0.014     -0.058     -0.017      0.001     -0.001
     27 H       -0.199      0.049     -0.100      0.028      0.000     -0.000
     28 H        0.027      0.066     -0.135      0.023      0.003     -0.000
     30 H       -0.211     -0.331     -0.182      0.041     -0.014     -0.002
     31 H       -0.494      0.027      1.787      0.007     -0.000     -0.003
     33 H       -0.181      0.921     -0.474     -0.019      0.004     -0.007
     35 H        0.000      0.000      0.000      0.000      0.000      0.000
     37 H        0.065     -0.172      0.081      0.119     -0.014     -0.005
     38 H        0.040      0.014     -0.046     -0.006     -0.012     -0.007
     40 H       -0.074      0.059     -0.089     -0.205      0.190     -0.004
     41 H        0.010      0.040     -0.050     -0.437     -0.205      0.101
     42 H        1.102     -0.418     -0.101     10.607     -0.178      0.128
     45 H        0.000    -12.907    -13.583     -0.183      0.019     -0.036
     46 H      -12.907      0.000    -12.967     -0.092      0.005     -0.009
     47 H      -13.583    -12.967      0.000     -0.223      0.006     -0.016
     48 H       -0.183     -0.092     -0.223      0.000      4.740     -2.435
     52 H        0.019      0.005      0.006      4.740      0.000     17.344
     53 H       -0.036     -0.009     -0.016     -2.435     17.344      0.000
     57 H        0.000      0.009      0.011      1.420     -2.061      5.568
     58 H        0.000     -0.001     -0.001     -0.155      0.149     -0.190
     61 H       -0.001     -0.000     -0.001     -0.060     -0.159     -0.388
     62 H        0.000     -0.000     -0.000     -0.042     -0.220     -0.548
     63 H        0.000      0.000     -0.000     -0.065     -0.237      0.630
     64 H        0.000      0.000      0.000     -0.022      0.120      0.140
     65 H        0.000     -0.000      0.000      0.000      0.035     -0.067
     66 H        0.000      0.000      0.000      0.024      0.021     -0.034
     67 H        0.000      0.000      0.000     -0.019      0.017      0.005
     68 H        0.000      0.000      0.000      0.002     -0.012      0.038
     69 H        0.000      0.000      0.000      0.205     -0.077      0.030
     70 H       -0.028     -0.016     -0.012      2.040     -0.406     -0.299
     71 H       -0.058     -0.263     -0.025      5.076      0.711     -0.237
     72 H       -0.030     -0.048      0.025     12.526     -0.546     -0.204
                 57 H       58 H       61 H       62 H       63 H       64 H  
      3 H        0.000      0.000      0.000      0.000      0.000      0.000
      4 H        0.000      0.000      0.000      0.000      0.000      0.000
      8 H        0.000      0.000      0.000      0.000      0.000      0.000
      9 H        0.000      0.000      0.000      0.000      0.000      0.000
     10 H        0.000      0.000      0.000      0.000      0.000      0.000
     11 H        0.000      0.000      0.000      0.000      0.000      0.000
     13 H        0.000      0.000      0.000      0.000      0.000      0.000
     16 H        0.000      0.000      0.000      0.000      0.000      0.000
     17 H        0.000      0.000      0.000      0.000      0.000      0.000
     19 H        0.000      0.000      0.000      0.000      0.000      0.000
     21 H        0.000      0.000      0.000      0.000      0.000      0.000
     24 H        0.000      0.000      0.000      0.000      0.000      0.000
     25 H        0.000      0.000      0.000      0.000      0.000      0.000
     27 H        0.000      0.000      0.000      0.000      0.000      0.000
     28 H        0.000      0.000      0.000      0.000      0.000      0.000
     30 H        0.003     -0.000     -0.000     -0.000      0.000      0.000
     31 H        0.004      0.000     -0.000     -0.000      0.000      0.000
     33 H        0.006      0.000     -0.000      0.000      0.000      0.000
     35 H        0.000      0.000      0.000      0.000      0.000      0.000
     37 H       -0.002      0.000      0.000     -0.000     -0.000      0.000
     38 H        0.001     -0.000      0.000     -0.000     -0.000      0.000
     40 H        0.037     -0.002     -0.012     -0.001     -0.002     -0.000
     41 H        0.003      0.000     -0.004     -0.001     -0.001      0.001
     42 H       -0.103      0.005      0.002      0.000     -0.002      0.001
     45 H        0.000      0.000     -0.001      0.000      0.000      0.000
     46 H        0.009     -0.001     -0.000     -0.000      0.000      0.000
     47 H        0.011     -0.001     -0.001     -0.000     -0.000      0.000
     48 H        1.420     -0.155     -0.060     -0.042     -0.065     -0.022
     52 H       -2.061      0.149     -0.159     -0.220     -0.237      0.120
     53 H        5.568     -0.190     -0.388     -0.548      0.630      0.140
     57 H        0.000      9.837      2.014     12.748      5.100     -0.448
     58 H        9.837      0.000     -0.439     -0.389     -0.219      2.540
     61 H        2.014     -0.439      0.000    -12.435    -13.405      0.720
     62 H       12.748     -0.389    -12.435      0.000    -12.715     -0.023
     63 H        5.100     -0.219    -13.405    -12.715      0.000      0.008
     64 H       -0.448      2.540      0.720     -0.023      0.008      0.000
     65 H       -0.218      4.147      0.011      0.061      0.031    -12.990
     66 H       -0.405     12.705     -0.056      0.030      0.043    -12.767
     67 H       -0.371     12.802      0.012      0.077     -0.012     -0.235
     68 H       -0.246      4.287      0.018     -0.022     -0.220      0.156
     69 H       -0.461      2.378     -0.074      0.016     -0.000     -0.306
     70 H       -0.004      0.002      0.009     -0.006      0.023     -0.003
     71 H       -0.047      0.000      0.020      0.008      0.130     -0.001
     72 H       -0.032      0.001     -0.005     -0.009      0.007     -0.001
                 65 H       66 H       67 H       68 H       69 H       70 H  
      3 H        0.000      0.000      0.000      0.000      0.000      0.000
      4 H        0.000      0.000      0.000      0.000      0.000      0.000
      8 H        0.000      0.000      0.000      0.000      0.000      0.000
      9 H        0.000      0.000      0.000      0.000      0.000      0.000
     10 H        0.000      0.000      0.000      0.000      0.000      0.000
     11 H        0.000      0.000      0.000      0.000      0.000      0.000
     13 H        0.000      0.000      0.000      0.000      0.000      0.000
     16 H        0.000      0.000      0.000      0.000      0.000      0.000
     17 H        0.000      0.000      0.000      0.000      0.000      0.000
     19 H        0.000      0.000      0.000      0.000      0.000      0.000
     21 H        0.000      0.000      0.000      0.000      0.000      0.003
     24 H        0.000      0.000      0.000      0.000      0.000      0.034
     25 H        0.000      0.000      0.000      0.000      0.000      0.001
     27 H        0.000      0.000      0.000      0.000      0.000     -0.009
     28 H        0.000      0.000      0.000      0.000      0.000     -0.010
     30 H       -0.000     -0.000      0.000      0.000      0.000      0.049
     31 H        0.000      0.000      0.000      0.000      0.000     -0.050
     33 H        0.000      0.000      0.000      0.000      0.000      0.006
     35 H        0.000      0.000      0.000      0.000      0.000      0.000
     37 H        0.000      0.000      0.000      0.000      0.000      0.066
     38 H        0.000      0.000      0.000      0.000      0.000      0.014
     40 H       -0.000      0.001     -0.000      0.000      0.003     -0.048
     41 H        0.001     -0.000     -0.000      0.000      0.000      0.006
     42 H       -0.000     -0.001      0.001     -0.001      0.000     -0.465
     45 H        0.000      0.000      0.000      0.000      0.000     -0.028
     46 H       -0.000      0.000      0.000      0.000      0.000     -0.016
     47 H        0.000      0.000      0.000      0.000      0.000     -0.012
     48 H        0.000      0.024     -0.019      0.002      0.205      2.040
     52 H        0.035      0.021      0.017     -0.012     -0.077     -0.406
     53 H       -0.067     -0.034      0.005      0.038      0.030     -0.299
     57 H       -0.218     -0.405     -0.371     -0.246     -0.461     -0.004
     58 H        4.147     12.705     12.802      4.287      2.378      0.002
     61 H        0.011     -0.056      0.012      0.018     -0.074      0.009
     62 H        0.061      0.030      0.077     -0.022      0.016     -0.006
     63 H        0.031      0.043     -0.012     -0.220     -0.000      0.023
     64 H      -12.990    -12.767     -0.235      0.156     -0.306     -0.003
     65 H        0.000    -12.125     -0.388      2.872      0.133     -0.016
     66 H      -12.125      0.000     -0.290     -0.384     -0.236     -0.004
     67 H       -0.388     -0.290      0.000    -12.086    -12.786      0.001
     68 H        2.872     -0.384    -12.086      0.000    -13.060      0.000
     69 H        0.133     -0.236    -12.786    -13.060      0.000     -0.002
     70 H       -0.016     -0.004      0.001      0.000     -0.002      0.000
     71 H       -0.001     -0.000      0.002      0.000      0.000    -13.635
     72 H       -0.004     -0.001      0.001     -0.000     -0.002    -12.333
                 71 H       72 H  
      3 H        0.000      0.000
      4 H        0.000      0.000
      8 H        0.000      0.000
      9 H        0.000      0.000
     10 H        0.000      0.000
     11 H        0.000      0.000
     13 H        0.000      0.000
     16 H        0.000      0.000
     17 H        0.000      0.000
     19 H       -0.000      0.000
     21 H        0.001      0.001
     24 H        0.018      0.012
     25 H        0.003     -0.000
     27 H       -0.006     -0.004
     28 H       -0.007     -0.004
     30 H       -0.498      0.042
     31 H       -0.099      0.005
     33 H        0.005     -0.000
     35 H        0.000      0.000
     37 H       -0.006     -0.021
     38 H       -0.000      0.037
     40 H        0.085      0.021
     41 H        0.034     -0.042
     42 H       -0.207     -0.351
     45 H       -0.058     -0.030
     46 H       -0.263     -0.048
     47 H       -0.025      0.025
     48 H        5.076     12.526
     52 H        0.711     -0.546
     53 H       -0.237     -0.204
     57 H       -0.047     -0.032
     58 H        0.000      0.001
     61 H        0.020     -0.005
     62 H        0.008     -0.009
     63 H        0.130      0.007
     64 H       -0.001     -0.001
     65 H       -0.001     -0.004
     66 H       -0.000     -0.001
     67 H        0.002      0.001
     68 H        0.000     -0.000
     69 H        0.000     -0.002
     70 H      -13.635    -12.333
     71 H        0.000    -12.652
     72 H      -12.652      0.000

Maximum memory used throughout the entire EPRNMR-calculation: 968.7 MB

Timings for individual modules:

Sum of individual times         ...      408.779 sec (=   6.813 min)
GTO integral calculation        ...        0.599 sec (=   0.010 min)   0.1 %
SCF iterations                  ...      102.650 sec (=   1.711 min)  25.1 %
EPR/NMR calculation             ...      305.530 sec (=   5.092 min)  74.7 %
                             ****ORCA TERMINATED NORMALLY****
TOTAL RUN TIME: 0 days 0 hours 6 minutes 49 seconds 156 msec
