
                                 *****************
                                 * O   R   C   A *
                                 *****************

                                            #,                                       
                                            ###                                      
                                            ####                                     
                                            #####                                    
                                            ######                                   
                                           ########,                                 
                                     ,,################,,,,,                         
                               ,,#################################,,                 
                          ,,##########################################,,             
                       ,#########################################, ''#####,          
                    ,#############################################,,   '####,        
                  ,##################################################,,,,####,       
                ,###########''''           ''''###############################       
              ,#####''   ,,,,##########,,,,          '''####'''          '####       
            ,##' ,,,,###########################,,,                        '##       
           ' ,,###''''                  '''############,,,                           
         ,,##''                                '''############,,,,        ,,,,,,###''
      ,#''                                            '''#######################'''  
     '                                                          ''''####''''         
             ,#######,   #######,   ,#######,      ##                                
            ,#'     '#,  ##    ##  ,#'     '#,    #''#        ######   ,####,        
            ##       ##  ##   ,#'  ##            #'  '#       #        #'  '#        
            ##       ##  #######   ##           ,######,      #####,   #    #        
            '#,     ,#'  ##    ##  '#,     ,#' ,#      #,         ##   #,  ,#        
             '#######'   ##     ##  '#######'  #'      '#     #####' # '####'        



                  #######################################################
                  #                        -***-                        #
                  #          Department of theory and spectroscopy      #
                  #    Directorship and core code : Frank Neese         #
                  #        Max Planck Institute fuer Kohlenforschung    #
                  #                Kaiser Wilhelm Platz 1               #
                  #                 D-45470 Muelheim/Ruhr               #
                  #                      Germany                        #
                  #                                                     #
                  #                  All rights reserved                #
                  #                        -***-                        #
                  #######################################################


                         Program Version 5.0.2 -  RELEASE  -


 With contributions from (in alphabetic order):
   Daniel Aravena         : Magnetic Suceptibility
   Michael Atanasov       : Ab Initio Ligand Field Theory (pilot matlab implementation)
   Alexander A. Auer      : GIAO ZORA, VPT2 properties, NMR spectrum
   Ute Becker             : Parallelization
   Giovanni Bistoni       : ED, misc. LED, open-shell LED, HFLD
   Martin Brehm           : Molecular dynamics
   Dmytro Bykov           : SCF Hessian
   Vijay G. Chilkuri      : MRCI spin determinant printing, contributions to CSF-ICE
   Dipayan Datta          : RHF DLPNO-CCSD density
   Achintya Kumar Dutta   : EOM-CC, STEOM-CC
   Dmitry Ganyushin       : Spin-Orbit,Spin-Spin,Magnetic field MRCI
   Miquel Garcia          : C-PCM and meta-GGA Hessian, CC/C-PCM, Gaussian charge scheme
   Yang Guo               : DLPNO-NEVPT2, F12-NEVPT2, CIM, IAO-localization
   Andreas Hansen         : Spin unrestricted coupled pair/coupled cluster methods
   Benjamin Helmich-Paris : MC-RPA, TRAH-SCF, COSX integrals
   Lee Huntington         : MR-EOM, pCC
   Robert Izsak           : Overlap fitted RIJCOSX, COSX-SCS-MP3, EOM
   Marcus Kettner         : VPT2
   Christian Kollmar      : KDIIS, OOCD, Brueckner-CCSD(T), CCSD density, CASPT2, CASPT2-K
   Simone Kossmann        : Meta GGA functionals, TD-DFT gradient, OOMP2, MP2 Hessian
   Martin Krupicka        : Initial AUTO-CI
   Lucas Lang             : DCDCAS
   Marvin Lechner         : AUTO-CI (C++ implementation), FIC-MRCC
   Dagmar Lenk            : GEPOL surface, SMD
   Dimitrios Liakos       : Extrapolation schemes; Compound Job, initial MDCI parallelization
   Dimitrios Manganas     : Further ROCIS development; embedding schemes
   Dimitrios Pantazis     : SARC Basis sets
   Anastasios Papadopoulos: AUTO-CI, single reference methods and gradients
   Taras Petrenko         : DFT Hessian,TD-DFT gradient, ASA, ECA, R-Raman, ABS, FL, XAS/XES, NRVS
   Peter Pinski           : DLPNO-MP2, DLPNO-MP2 Gradient
   Christoph Reimann      : Effective Core Potentials
   Marius Retegan         : Local ZFS, SOC
   Christoph Riplinger    : Optimizer, TS searches, QM/MM, DLPNO-CCSD(T), (RO)-DLPNO pert. Triples
   Tobias Risthaus        : Range-separated hybrids, TD-DFT gradient, RPA, STAB
   Michael Roemelt        : Original ROCIS implementation
   Masaaki Saitow         : Open-shell DLPNO-CCSD energy and density
   Barbara Sandhoefer     : DKH picture change effects
   Avijit Sen             : IP-ROCIS
   Kantharuban Sivalingam : CASSCF convergence, NEVPT2, FIC-MRCI
   Bernardo de Souza      : ESD, SOC TD-DFT
   Georgi Stoychev        : AutoAux, RI-MP2 NMR, DLPNO-MP2 response
   Willem Van den Heuvel  : Paramagnetic NMR
   Boris Wezisla          : Elementary symmetry handling
   Frank Wennmohs         : Technical directorship


 We gratefully acknowledge several colleagues who have allowed us to
 interface, adapt or use parts of their codes:
   Stefan Grimme, W. Hujo, H. Kruse, P. Pracht,  : VdW corrections, initial TS optimization,
                  C. Bannwarth, S. Ehlert          DFT functionals, gCP, sTDA/sTD-DF
   Ed Valeev, F. Pavosevic, A. Kumar             : LibInt (2-el integral package), F12 methods
   Garnet Chan, S. Sharma, J. Yang, R. Olivares  : DMRG
   Ulf Ekstrom                                   : XCFun DFT Library
   Mihaly Kallay                                 : mrcc  (arbitrary order and MRCC methods)
   Jiri Pittner, Ondrej Demel                    : Mk-CCSD
   Frank Weinhold                                : gennbo (NPA and NBO analysis)
   Christopher J. Cramer and Donald G. Truhlar   : smd solvation model
   Lars Goerigk                                  : TD-DFT with DH, B97 family of functionals
   V. Asgeirsson, H. Jonsson                     : NEB implementation
   FAccTs GmbH                                   : IRC, NEB, NEB-TS, DLPNO-Multilevel, CI-OPT
                                                   MM, QMMM, 2- and 3-layer-ONIOM, Crystal-QMMM,
                                                   LR-CPCM, SF, NACMEs, symmetry and pop. for TD-DFT,
                                                   nearIR, NL-DFT gradient (VV10), updates on ESD,
                                                   ML-optimized integration grids
   S Lehtola, MJT Oliveira, MAL Marques          : LibXC Library
   Liviu Ungur et al                             : ANISO software


 Your calculation uses the libint2 library for the computation of 2-el integrals
 For citations please refer to: http://libint.valeyev.net

 Your ORCA version has been built with support for libXC version: 5.1.0
 For citations please refer to: https://tddft.org/programs/libxc/

 This ORCA versions uses:
   CBLAS   interface :  Fast vector & matrix operations
   LAPACKE interface :  Fast linear algebra routines
   SCALAPACK package :  Parallel linear algebra routines
   Shared memory     :  Shared parallel matrices
   BLAS/LAPACK       :  OpenBLAS 0.3.15  USE64BITINT DYNAMIC_ARCH NO_AFFINITY Zen SINGLE_THREADED
        Core in use  :  Zen
   Copyright (c) 2011-2014, The OpenBLAS Project


Your calculation utilizes the atom-pairwise dispersion correction
based on tight binding partial charges (D4)
Cite in your paper:
E.Caldeweyher, C.Bannwarth, S.Grimme, J.Chem.Phys., (2017), 147, 034112.
E.Caldeweyher, S.Ehlert, A.Hansen, H.Neugebauer, S.Grimme, J.Chem.Phys., (2018), in progress.
   

================================================================================

----- Orbital basis set information -----
Your calculation utilizes the basis: pcSseg-1
   F. Jensen, J. Chem. Theory Comput. 11, 132 (2015).

----- AuxJ basis set information -----
Your calculation utilizes the auxiliary basis: def2/J
   F. Weigend, Phys. Chem. Chem. Phys. 8, 1057 (2006).

================================================================================
                                        WARNINGS
                       Please study these warnings very carefully!
================================================================================



WARNING: Found flag for RIJCOSX approximation but no HF exchange needed!
  ===> : RIJCOSX  will be disabled and Split-RI-J is turned on

INFO   : the flag for use of the SHARK integral package has been found!

================================================================================
                                       INPUT FILE
================================================================================
NAME = inpS
|  1> ! revTPSS
|  2> ! D4
|  3> ! pcSseg-1
|  4> ! def2/J RIJCOSX
|  5> ! DEFGRID2
|  6> ! scfconv7
|  7> ! smallprint printgap noloewdin
|  8> ! NOSOSCF
|  9> %MaxCore 4000
| 10> %output
| 11>        print[P_BondOrder_M] 1
| 12>        print[P_Mayer] 1
| 13>        print[P_basis] 2
| 14> end
| 15> %pal
| 16>     nprocs 4
| 17> end
| 18> ! CPCM(chloroform)
| 19> *xyz 0 1
| 20> C   -4.9403425600   0.2388672000  -0.4050174500
| 21> C   -6.3989112800  -0.1354880400  -0.5242872600
| 22> C   -7.2636987600   0.7916007400   0.3393859000
| 23> H   -6.5564905000  -1.1788623100  -0.2284683400
| 24> H   -6.7277657200  -0.0254054000  -1.5683173200
| 25> C   -4.6596652300   1.6620504100  -0.6970938500
| 26> C   -5.5499997200   2.6385181500   0.0393468500
| 27> C   -7.0322244500   2.2503685700  -0.0584011700
| 28> H   -5.3921821700   3.6542025000  -0.3388246900
| 29> H   -5.2557695600   2.6416656800   1.0999565400
| 30> H   -7.3800836600   2.3858575600  -1.0915707300
| 31> H   -7.6354128400   2.9045211700   0.5817466500
| 32> O   -7.0034976000   0.5739074800   1.7359856800
| 33> H   -8.3221032400   0.5383663200   0.2013498700
| 34> C   -4.0157731600  -0.6625612100   0.0035326000
| 35> C   -3.7262264000   2.0595626400  -1.5686568100
| 36> H   -3.1082946300   1.3420269600  -2.1019357500
| 37> H   -3.5670785700   3.1153743400  -1.7750305800
| 38> C   -2.6181378700  -0.3954728300   0.2550606300
| 39> H   -4.3766887000  -1.6738187600   0.1873217700
| 40> C   -1.6699639500  -1.3065427300   0.5604788800
| 41> H   -2.3189542700   0.6488168500   0.1994730400
| 42> C   -1.8790555400  -2.7964620800   0.6529257400
| 43> C   -0.9073808100  -3.5599767100  -0.2677267400
| 44> H   -2.9079631500  -3.0876848700   0.4252405500
| 45> H   -1.6783308800  -3.1027673700   1.6918676100
| 46> C    0.5539422300  -3.1362307600  -0.0672219700
| 47> H   -1.2020121600  -3.3960756300  -1.3120328900
| 48> H   -1.0060834200  -4.6363657800  -0.0811247600
| 49> C    0.7337816200  -1.6180074400  -0.2044771800
| 50> H    1.1810588900  -3.6787404100  -0.7819063800
| 51> H    0.8825077600  -3.4352565700   0.9395788800
| 52> C   -0.2396940000  -0.9392029300   0.8124968000
| 53> H    0.0283983800  -1.3823234100   1.7890606900
| 54> C    0.2066982200   0.5192406400   0.8407346900
| 55> H   -6.0459336700   0.4872896300   1.8460133900
| 56> C    1.7444798300   0.4331353600   0.6797551100
| 57> H   -0.0972629900   1.0244902600   1.7633412300
| 58> H   -0.2330708900   1.0775684100   0.0069184300
| 59> C    2.0850469400  -1.0408217100   0.3026629800
| 60> H    2.2662106400   0.7267662200   1.5962186600
| 61> H    2.0858158300   1.1148737900  -0.1084344100
| 62> H    2.3345752600  -1.5880609100   1.2262950800
| 63> C    3.3285407100  -1.1353642300  -0.6152096000
| 64> C    0.4430601200  -1.1525090000  -1.6376535800
| 65> H    0.6761390300  -0.0914157900  -1.7719926500
| 66> H   -0.6110804000  -1.2896947700  -1.8979492400
| 67> H    1.0439683900  -1.7182167300  -2.3581024300
| 68> H    3.0967998100  -0.5646254500  -1.5295084600
| 69> C    3.6753115100  -2.5676240500  -1.0196722800
| 70> C    4.4781815300  -0.4270745500   0.0619761300
| 71> C    5.5704927200  -0.9900076800   0.5778667700
| 72> H    4.3691667800   0.6543569200   0.1630193800
| 73> H    5.7170861900  -2.0703897300   0.5051970700
| 74> C    6.6735344700  -0.2461627600   1.2784610900
| 75> C    7.9939030200  -0.4702750000   0.5247690900
| 76> C    6.7662954900  -0.6728410100   2.7653859000
| 77> H    6.4352388700   0.8294411500   1.2581688300
| 78> H    6.9363049100  -1.7618354900   2.7817548300
| 79> C    5.4570162500  -0.3780398100   3.5028823500
| 80> C    7.9327497100   0.0060003600   3.4891928000
| 81> H    8.3095655300  -1.5182380100   0.6052100700
| 82> H    8.7989275100   0.1588289300   0.9154477600
| 83> H    7.8698714200  -0.2366981000  -0.5377438200
| 84> H    4.6074182500  -0.8880559000   3.0387617900
| 85> H    5.2476183900   0.6998054300   3.4902909400
| 86> H    5.5203893300  -0.6954382400   4.5495133200
| 87> H    8.9047175500  -0.2962952600   3.0893261200
| 88> H    7.9190969800  -0.2475606600   4.5549647500
| 89> H    7.8538998700   1.0977557900   3.4044506100
| 90> H    2.9174018900  -2.9828121100  -1.6869991600
| 91> H    3.7492729400  -3.2238772800  -0.1444339300
| 92> H    4.6351792700  -2.5965260100  -1.5465689600
| 93> *
| 94> %eprnmr
| 95>  Nuclei = all H { shift }
| 96>  origin giao
| 97>  giao_2el giao_2el_same_as_scf
| 98>  giao_1el giao_1el_analytic
| 99> end
|100> 
|101>                          ****END OF INPUT****
================================================================================

                       ****************************
                       * Single Point Calculation *
                       ****************************

---------------------------------
CARTESIAN COORDINATES (ANGSTROEM)
---------------------------------
  C     -4.940343    0.238867   -0.405017
  C     -6.398911   -0.135488   -0.524287
  C     -7.263699    0.791601    0.339386
  H     -6.556490   -1.178862   -0.228468
  H     -6.727766   -0.025405   -1.568317
  C     -4.659665    1.662050   -0.697094
  C     -5.550000    2.638518    0.039347
  C     -7.032224    2.250369   -0.058401
  H     -5.392182    3.654202   -0.338825
  H     -5.255770    2.641666    1.099957
  H     -7.380084    2.385858   -1.091571
  H     -7.635413    2.904521    0.581747
  O     -7.003498    0.573907    1.735986
  H     -8.322103    0.538366    0.201350
  C     -4.015773   -0.662561    0.003533
  C     -3.726226    2.059563   -1.568657
  H     -3.108295    1.342027   -2.101936
  H     -3.567079    3.115374   -1.775031
  C     -2.618138   -0.395473    0.255061
  H     -4.376689   -1.673819    0.187322
  C     -1.669964   -1.306543    0.560479
  H     -2.318954    0.648817    0.199473
  C     -1.879056   -2.796462    0.652926
  C     -0.907381   -3.559977   -0.267727
  H     -2.907963   -3.087685    0.425241
  H     -1.678331   -3.102767    1.691868
  C      0.553942   -3.136231   -0.067222
  H     -1.202012   -3.396076   -1.312033
  H     -1.006083   -4.636366   -0.081125
  C      0.733782   -1.618007   -0.204477
  H      1.181059   -3.678740   -0.781906
  H      0.882508   -3.435257    0.939579
  C     -0.239694   -0.939203    0.812497
  H      0.028398   -1.382323    1.789061
  C      0.206698    0.519241    0.840735
  H     -6.045934    0.487290    1.846013
  C      1.744480    0.433135    0.679755
  H     -0.097263    1.024490    1.763341
  H     -0.233071    1.077568    0.006918
  C      2.085047   -1.040822    0.302663
  H      2.266211    0.726766    1.596219
  H      2.085816    1.114874   -0.108434
  H      2.334575   -1.588061    1.226295
  C      3.328541   -1.135364   -0.615210
  C      0.443060   -1.152509   -1.637654
  H      0.676139   -0.091416   -1.771993
  H     -0.611080   -1.289695   -1.897949
  H      1.043968   -1.718217   -2.358102
  H      3.096800   -0.564625   -1.529508
  C      3.675312   -2.567624   -1.019672
  C      4.478182   -0.427075    0.061976
  C      5.570493   -0.990008    0.577867
  H      4.369167    0.654357    0.163019
  H      5.717086   -2.070390    0.505197
  C      6.673534   -0.246163    1.278461
  C      7.993903   -0.470275    0.524769
  C      6.766295   -0.672841    2.765386
  H      6.435239    0.829441    1.258169
  H      6.936305   -1.761835    2.781755
  C      5.457016   -0.378040    3.502882
  C      7.932750    0.006000    3.489193
  H      8.309566   -1.518238    0.605210
  H      8.798928    0.158829    0.915448
  H      7.869871   -0.236698   -0.537744
  H      4.607418   -0.888056    3.038762
  H      5.247618    0.699805    3.490291
  H      5.520389   -0.695438    4.549513
  H      8.904718   -0.296295    3.089326
  H      7.919097   -0.247561    4.554965
  H      7.853900    1.097756    3.404451
  H      2.917402   -2.982812   -1.686999
  H      3.749273   -3.223877   -0.144434
  H      4.635179   -2.596526   -1.546569

----------------------------
CARTESIAN COORDINATES (A.U.)
----------------------------
  NO LB      ZA    FRAG     MASS         X           Y           Z
   0 C     6.0000    0    12.011   -9.335894    0.451394   -0.765372
   1 C     6.0000    0    12.011  -12.092190   -0.256035   -0.990759
   2 C     6.0000    0    12.011  -13.726401    1.495909    0.641346
   3 H     1.0000    0     1.008  -12.389971   -2.227727   -0.431743
   4 H     1.0000    0     1.008  -12.713635   -0.048009   -2.963690
   5 C     6.0000    0    12.011   -8.805491    3.140820   -1.317316
   6 C     6.0000    0    12.011  -10.487980    4.986077    0.074355
   7 C     6.0000    0    12.011  -13.288978    4.252580   -0.110362
   8 H     1.0000    0     1.008  -10.189748    6.905442   -0.640286
   9 H     1.0000    0     1.008   -9.931965    4.992025    2.078617
  10 H     1.0000    0     1.008  -13.946337    4.508617   -2.062770
  11 H     1.0000    0     1.008  -14.428839    5.488750    1.099342
  12 O     8.0000    0    15.999  -13.234692    1.084528    3.280538
  13 H     1.0000    0     1.008  -15.726496    1.017365    0.380496
  14 C     6.0000    0    12.011   -7.588711   -1.252059    0.006676
  15 C     6.0000    0    12.011   -7.041547    3.892009   -2.964332
  16 H     1.0000    0     1.008   -5.873826    2.536063   -3.972083
  17 H     1.0000    0     1.008   -6.740802    5.887204   -3.354322
  18 C     6.0000    0    12.011   -4.947564   -0.747335    0.481995
  19 H     1.0000    0     1.008   -8.270743   -3.163059    0.353987
  20 C     6.0000    0    12.011   -3.155775   -2.469008    1.059152
  21 H     1.0000    0     1.008   -4.382188    1.226086    0.376949
  22 C     6.0000    0    12.011   -3.550900   -5.284547    1.233851
  23 C     6.0000    0    12.011   -1.714701   -6.727381   -0.505930
  24 H     1.0000    0     1.008   -5.495254   -5.834879    0.803588
  25 H     1.0000    0     1.008   -3.171586   -5.863381    3.197166
  26 C     6.0000    0    12.011    1.046799   -5.926617   -0.127031
  27 H     1.0000    0     1.008   -2.271474   -6.417653   -2.479383
  28 H     1.0000    0     1.008   -1.901222   -8.761462   -0.153304
  29 C     6.0000    0    12.011    1.386646   -3.057591   -0.386406
  30 H     1.0000    0     1.008    2.231878   -6.951812   -1.477589
  31 H     1.0000    0     1.008    1.667698   -6.491694    1.775547
  32 C     6.0000    0    12.011   -0.452956   -1.774836    1.535396
  33 H     1.0000    0     1.008    0.053665   -2.612213    3.380835
  34 C     6.0000    0    12.011    0.390603    0.981223    1.588758
  35 H     1.0000    0     1.008  -11.425159    0.920844    3.488460
  36 C     6.0000    0    12.011    3.296589    0.818507    1.284551
  37 H     1.0000    0     1.008   -0.183800    1.936006    3.332232
  38 H     1.0000    0     1.008   -0.440440    2.036309    0.013074
  39 C     6.0000    0    12.011    3.940168   -1.966868    0.571950
  40 H     1.0000    0     1.008    4.282517    1.373389    3.016416
  41 H     1.0000    0     1.008    3.941621    2.106806   -0.204911
  42 H     1.0000    0     1.008    4.411708   -3.001000    2.317362
  43 C     6.0000    0    12.011    6.290030   -2.145527   -1.162578
  44 C     6.0000    0    12.011    0.837262   -2.177926   -3.094717
  45 H     1.0000    0     1.008    1.277718   -0.172751   -3.348581
  46 H     1.0000    0     1.008   -1.154775   -2.437170   -3.586604
  47 H     1.0000    0     1.008    1.972814   -3.246959   -4.456168
  48 H     1.0000    0     1.008    5.852104   -1.066987   -2.890352
  49 C     6.0000    0    12.011    6.945332   -4.852106   -1.926901
  50 C     6.0000    0    12.011    8.462537   -0.807054    0.117118
  51 C     6.0000    0    12.011   10.526706   -1.870843    1.092010
  52 H     1.0000    0     1.008    8.256529    1.236555    0.308062
  53 H     1.0000    0     1.008   10.803727   -3.912470    0.954684
  54 C     6.0000    0    12.011   12.611152   -0.465180    2.415941
  55 C     6.0000    0    12.011   15.106287   -0.888691    0.991670
  56 C     6.0000    0    12.011   12.786445   -1.271485    5.225822
  57 H     1.0000    0     1.008   12.160839    1.567417    2.377595
  58 H     1.0000    0     1.008   13.107717   -3.329387    5.256755
  59 C     6.0000    0    12.011   10.312266   -0.714392    6.619488
  60 C     6.0000    0    12.011   14.990724    0.011339    6.593619
  61 H     1.0000    0     1.008   15.702803   -2.869054    1.143681
  62 H     1.0000    0     1.008   16.627563    0.300143    1.729946
  63 H     1.0000    0     1.008   14.871902   -0.447295   -1.016189
  64 H     1.0000    0     1.008    8.706759   -1.678182    5.742428
  65 H     1.0000    0     1.008    9.916562    1.322441    6.595694
  66 H     1.0000    0     1.008   10.432024   -1.314188    8.597334
  67 H     1.0000    0     1.008   16.827477   -0.559917    5.837980
  68 H     1.0000    0     1.008   14.964925   -0.467822    8.607636
  69 H     1.0000    0     1.008   14.841720    2.074458    6.433479
  70 H     1.0000    0     1.008    5.513091   -5.636698   -3.187966
  71 H     1.0000    0     1.008    7.085099   -6.092245   -0.272941
  72 H     1.0000    0     1.008    8.759219   -4.906723   -2.922592

--------------------------------
INTERNAL COORDINATES (ANGSTROEM)
--------------------------------
 C      0   0   0     0.000000000000     0.00000000     0.00000000
 C      1   0   0     1.510559447442     0.00000000     0.00000000
 C      2   1   0     1.534041172482   110.49365421     0.00000000
 H      2   1   3     1.095887727509   110.70025772   237.86355835
 H      2   1   3     1.100119173781   109.80201297   118.75089635
 C      1   2   3     1.479709037696   113.94934356   306.17654065
 C      6   1   2     1.512788701690   114.39915384    49.76743230
 C      3   2   1     1.529646524885   110.15881714    56.71493084
 H      7   6   1     1.095232756810   110.22440879   188.73692998
 H      7   6   1     1.100669890803   108.27693202    72.06443521
 H      8   3   2     1.098545691405   108.31721349    64.42151328
 H      8   3   2     1.096148297161   109.51055576   181.42970471
 O      3   2   1     1.437214648064   110.70121281   292.67294852
 H      3   2   1     1.096996654660   109.48422625   177.15572733
 C      1   2   3     1.354368818722   121.20043536   122.95675195
 C      6   1   2     1.337514865560   123.15124727   231.71257500
 H     16   6   1     1.086776680048   121.35518415   359.04238815
 H     16   6   1     1.087500119814   120.95282444   178.41911558
 C     15   1   2     1.444986836085   126.14087184   185.15412254
 H     15   1   2     1.089348575276   116.26853915     3.07944129
 C     19  15   1     1.349949055590   126.44120122   185.56995612
 H     19  15   1     1.087723192005   115.76003346     6.27395610
 C     21  19  15     1.507357085908   125.69925548     2.22439831
 C     23  21  19     1.541008552888   111.44612250   124.55697692
 H     23  21  19     1.093298737343   112.39942986     0.94701450
 H     23  21  19     1.101595900979   107.90297648   243.09932020
 C     24  23  21     1.534675151349   112.67772382    51.21467962
 H     24  23  21     1.097381670776   108.98051915   289.07700048
 H     24  23  21     1.096893766131   109.13704323   173.12744283
 C     27  24  23     1.534986400024   111.89933777   306.27764369
 H     27  24  23     1.094698968434   108.86584782   182.72460129
 H     27  24  23     1.100463399714   109.19605123    66.28489910
 C     21  19  15     1.498039949580   122.89978981   180.27553027
 H     33  21  19     1.105398713253   106.37266952   127.25413535
 C     33  21  19     1.525490425857   121.12684490     4.72495470
 H     13   3   2     0.967748639340   107.64863023    42.70546572
 C     35  33  21     1.548580260908   103.62100390   197.08312457
 H     35  33  21     1.094930328078   112.05687734    75.08041788
 H     35  33  21     1.095616869304   110.83395106   315.45064329
 C     30  27  24     1.554429951408   116.09979656   166.09628325
 H     37  35  33     1.094681487249   111.79815841   248.96106869
 H     37  35  33     1.096594852839   110.44134734   130.37255294
 H     40  30  27     1.102193894308   106.60928821   320.62671660
 C     40  30  27     1.548452491113   118.81817703    80.83202849
 C     30  27  24     1.534666863434   111.18126897   294.10969155
 H     45  30  27     1.094665046635   111.61021013   186.34291439
 H     45  30  27     1.094434101265   111.50288592    66.35093162
 H     45  30  27     1.095519297047   110.70783857   306.22539282
 H     44  40  30     1.102446826439   106.92906839    61.38411458
 C     44  40  30     1.528138815433   113.35016132   302.15926079
 C     44  40  30     1.510605441113   108.46978028   176.23016219
 C     51  44  40     1.332734255990   126.81506915   110.39968577
 H     51  44  40     1.091598817512   115.46774070   292.79589986
 H     52  51  44     1.092701196443   120.12177210     2.04304519
 C     52  51  44     1.503608582201   124.93594105   181.81253586
 C     55  52  51     1.536766421683   109.24658476   239.98389450
 C     55  52  51     1.549711046114   110.77928201   115.80085918
 H     55  52  51     1.101871290125   108.40196327   358.17446050
 H     57  55  52     1.102306727834   107.18646721    57.98709985
 C     57  55  52     1.531346103785   110.97175438   299.85194564
 C     57  55  52     1.531449470752   112.14968387   176.68006824
 H     56  55  52     1.097424276117   110.51469195   292.80771245
 H     56  55  52     1.093830886122   111.91870856   172.21802431
 H     56  55  52     1.094931819763   110.33339750    52.06374216
 H     60  57  55     1.094230811062   111.70572989    58.17496412
 H     60  57  55     1.098069382493   110.27251871   298.40570300
 H     60  57  55     1.095533795918   110.78545972   179.09535809
 H     61  57  55     1.093616699598   112.43312657   295.26507669
 H     61  57  55     1.095604598980   110.34550307   175.10234601
 H     61  57  55     1.097874516950   110.46360803    56.10155247
 H     50  44  40     1.091848561855   111.14019103    68.42542358
 H     50  44  40     1.096440041372   111.40792998   308.07610936
 H     50  44  40     1.095354532274   110.54251849   187.98065405

---------------------------
INTERNAL COORDINATES (A.U.)
---------------------------
 C      0   0   0     0.000000000000     0.00000000     0.00000000
 C      1   0   0     2.854543664672     0.00000000     0.00000000
 C      2   1   0     2.898917694151   110.49365421     0.00000000
 H      2   1   3     2.070927678516   110.70025772   237.86355835
 H      2   1   3     2.078923953122   109.80201297   118.75089635
 C      1   2   3     2.796244839133   113.94934356   306.17654065
 C      6   1   2     2.858756344684   114.39915384    49.76743230
 C      3   2   1     2.890613013737   110.15881714    56.71493084
 H      7   6   1     2.069689963270   110.22440879   188.73692998
 H      7   6   1     2.079964657471   108.27693202    72.06443521
 H      8   3   2     2.075950502354   108.31721349    64.42151328
 H      8   3   2     2.071420083798   109.51055576   181.42970471
 O      3   2   1     2.715942080502   110.70121281   292.67294852
 H      3   2   1     2.073023247135   109.48422625   177.15572733
 C      1   2   3     2.559386151707   121.20043536   122.95675195
 C      6   1   2     2.527536795958   123.15124727   231.71257500
 H     16   6   1     2.053710294023   121.35518415   359.04238815
 H     16   6   1     2.055077397054   120.95282444   178.41911558
 C     15   1   2     2.730629387323   126.14087184   185.15412254
 H     15   1   2     2.058570471648   116.26853915     3.07944129
 C     19  15   1     2.551034009810   126.44120122   185.56995612
 H     19  15   1     2.055498942404   115.76003346     6.27395610
 C     21  19  15     2.848492078392   125.69925548     2.22439831
 C     23  21  19     2.912084134989   111.44612250   124.55697692
 H     23  21  19     2.066035196141   112.39942986     0.94701450
 H     23  21  19     2.081714563100   107.90297648   243.09932020
 C     24  23  21     2.900115740584   112.67772382    51.21467962
 H     24  23  21     2.073750822152   108.98051915   289.07700048
 H     24  23  21     2.072828815992   109.13704323   173.12744283
 C     27  24  23     2.900703915340   111.89933777   306.27764369
 H     27  24  23     2.068681249426   108.86584782   182.72460129
 H     27  24  23     2.079574445864   109.19605123    66.28489910
 C     21  19  15     2.830885242380   122.89978981   180.27553027
 H     33  21  19     2.088900836837   106.37266952   127.25413535
 C     33  21  19     2.882759124789   121.12684490     4.72495470
 H     13   3   2     1.828779894827   107.64863023    42.70546572
 C     35  33  21     2.926392589513   103.62100390   197.08312457
 H     35  33  21     2.069118455792   112.05687734    75.08041788
 H     35  33  21     2.070415830689   110.83395106   315.45064329
 C     30  27  24     2.937446902526   116.09979656   166.09628325
 H     37  35  33     2.068648214775   111.79815841   248.96106869
 H     37  35  33     2.072263951733   110.44134734   130.37255294
 H     40  30  27     2.082844606722   106.60928821   320.62671660
 C     40  30  27     2.926151139591   118.81817703    80.83202849
 C     30  27  24     2.900100078694   111.18126897   294.10969155
 H     45  30  27     2.068617146515   111.61021013   186.34291439
 H     45  30  27     2.068180723015   111.50288592    66.35093162
 H     45  30  27     2.070231445845   110.70783857   306.22539282
 H     44  40  30     2.083322579181   106.92906839    61.38411458
 C     44  40  30     2.887763855783   113.35016132   302.15926079
 C     44  40  30     2.854630580115   108.46978028   176.23016219
 C     51  44  40     2.518502753117   126.81506915   110.39968577
 H     51  44  40     2.062822813211   115.46774070   292.79589986
 H     52  51  44     2.064906007484   120.12177210     2.04304519
 C     52  51  44     2.841408432974   124.93594105   181.81253586
 C     55  52  51     2.904067668786   109.24658476   239.98389450
 C     55  52  51     2.928529463868   110.77928201   115.80085918
 H     55  52  51     2.082234973167   108.40196327   358.17446050
 H     57  55  52     2.083057831186   107.18646721    57.98709985
 C     57  55  52     2.893824752402   110.97175438   299.85194564
 C     57  55  52     2.894020087660   112.14968387   176.68006824
 H     56  55  52     2.073831334578   110.51469195   292.80771245
 H     56  55  52     2.067040811595   111.91870856   172.21802431
 H     56  55  52     2.069121274668   110.33339750    52.06374216
 H     60  57  55     2.067796560206   111.70572989    58.17496412
 H     60  57  55     2.075050408956   110.27251871   298.40570300
 H     60  57  55     2.070258844740   110.78545972   179.09535809
 H     61  57  55     2.066636057723   112.43312657   295.26507669
 H     61  57  55     2.070392643137   110.34550307   175.10234601
 H     61  57  55     2.074682166447   110.46360803    56.10155247
 H     50  44  40     2.063294761622   111.14019103    68.42542358
 H     50  44  40     2.071971400458   111.40792998   308.07610936
 H     50  44  40     2.069920085548   110.54251849   187.98065405

---------------------
BASIS SET INFORMATION
---------------------
There are 3 groups of distinct atoms

 Group   1 Type C   : 8s5p1d contracted to 3s3p1d pattern {521/311/1}
 Group   2 Type H   : 4s2p contracted to 2s1p pattern {31/2}
 Group   3 Type O   : 8s5p1d contracted to 3s3p1d pattern {521/311/1}

Atom   0C    basis set group =>   1
Atom   1C    basis set group =>   1
Atom   2C    basis set group =>   1
Atom   3H    basis set group =>   2
Atom   4H    basis set group =>   2
Atom   5C    basis set group =>   1
Atom   6C    basis set group =>   1
Atom   7C    basis set group =>   1
Atom   8H    basis set group =>   2
Atom   9H    basis set group =>   2
Atom  10H    basis set group =>   2
Atom  11H    basis set group =>   2
Atom  12O    basis set group =>   3
Atom  13H    basis set group =>   2
Atom  14C    basis set group =>   1
Atom  15C    basis set group =>   1
Atom  16H    basis set group =>   2
Atom  17H    basis set group =>   2
Atom  18C    basis set group =>   1
Atom  19H    basis set group =>   2
Atom  20C    basis set group =>   1
Atom  21H    basis set group =>   2
Atom  22C    basis set group =>   1
Atom  23C    basis set group =>   1
Atom  24H    basis set group =>   2
Atom  25H    basis set group =>   2
Atom  26C    basis set group =>   1
Atom  27H    basis set group =>   2
Atom  28H    basis set group =>   2
Atom  29C    basis set group =>   1
Atom  30H    basis set group =>   2
Atom  31H    basis set group =>   2
Atom  32C    basis set group =>   1
Atom  33H    basis set group =>   2
Atom  34C    basis set group =>   1
Atom  35H    basis set group =>   2
Atom  36C    basis set group =>   1
Atom  37H    basis set group =>   2
Atom  38H    basis set group =>   2
Atom  39C    basis set group =>   1
Atom  40H    basis set group =>   2
Atom  41H    basis set group =>   2
Atom  42H    basis set group =>   2
Atom  43C    basis set group =>   1
Atom  44C    basis set group =>   1
Atom  45H    basis set group =>   2
Atom  46H    basis set group =>   2
Atom  47H    basis set group =>   2
Atom  48H    basis set group =>   2
Atom  49C    basis set group =>   1
Atom  50C    basis set group =>   1
Atom  51C    basis set group =>   1
Atom  52H    basis set group =>   2
Atom  53H    basis set group =>   2
Atom  54C    basis set group =>   1
Atom  55C    basis set group =>   1
Atom  56C    basis set group =>   1
Atom  57H    basis set group =>   2
Atom  58H    basis set group =>   2
Atom  59C    basis set group =>   1
Atom  60C    basis set group =>   1
Atom  61H    basis set group =>   2
Atom  62H    basis set group =>   2
Atom  63H    basis set group =>   2
Atom  64H    basis set group =>   2
Atom  65H    basis set group =>   2
Atom  66H    basis set group =>   2
Atom  67H    basis set group =>   2
Atom  68H    basis set group =>   2
Atom  69H    basis set group =>   2
Atom  70H    basis set group =>   2
Atom  71H    basis set group =>   2
Atom  72H    basis set group =>   2

-------------------------
BASIS SET IN INPUT FORMAT
-------------------------

 # Basis set for element : H 
 NewGTO H 
 S 3 
   1      12.2518000000      0.0372173893
   2       1.8687100000      0.2538082070
   3       0.4182080000      0.7973867639
 S 1 
   1       0.1061000000      1.0000000000
 P 2 
   1       9.0000000000      0.0402678705
   2       1.0000000000      0.9880231245
  end;

 # Basis set for element : C 
 NewGTO C 
 S 5 
   1    1243.2000000000      0.0056300977
   2     187.1450000000      0.0419506039
   3      42.5126000000      0.1846643605
   4      11.7393000000      0.4665574214
   5       3.5054800000      0.4482347783
 S 2 
   1       5.3908900000     -0.1481148174
   2       0.4933410000      1.0519817143
 S 1 
   1       0.1497410000      1.0000000000
 P 3 
   1      59.6736000000      0.0113906672
   2       9.1805600000      0.1672414929
   3       1.9365800000      0.9041087436
 P 1 
   1       0.5262960000      1.0000000000
 P 1 
   1       0.1363190000      1.0000000000
 D 1 
   1       0.8000000000      1.0000000000
  end;

 # Basis set for element : O 
 NewGTO O 
 S 5 
   1    2288.6400000000      0.0054511382
   2     344.4160000000      0.0407189228
   3      78.2538000000      0.1813694209
   4      21.7195000000      0.4655368202
   5       6.5590700000      0.4512113212
 S 2 
   1      10.4656000000     -0.1502112012
   2       0.9643510000      1.0528679834
 S 1 
   1       0.2851270000      1.0000000000
 P 3 
   1     110.8840000000      0.0113058003
   2      17.0590000000      0.1699226452
   3       3.6899900000      0.9008060328
 P 1 
   1       0.9929960000      1.0000000000
 P 1 
   1       0.2449240000      1.0000000000
 D 1 
   1       1.0000000000      1.0000000000
  end;

---------------------------------
AUXILIARY/J BASIS SET INFORMATION
---------------------------------
There are 3 groups of distinct atoms

 Group   1 Type C   : 12s5p4d2f1g contracted to 6s4p3d1f1g pattern {711111/2111/211/2/1}
 Group   2 Type H   : 5s2p1d contracted to 3s1p1d pattern {311/2/1}
 Group   3 Type O   : 12s5p4d2f1g contracted to 6s4p3d1f1g pattern {711111/2111/211/2/1}

Atom   0C    basis set group =>   1
Atom   1C    basis set group =>   1
Atom   2C    basis set group =>   1
Atom   3H    basis set group =>   2
Atom   4H    basis set group =>   2
Atom   5C    basis set group =>   1
Atom   6C    basis set group =>   1
Atom   7C    basis set group =>   1
Atom   8H    basis set group =>   2
Atom   9H    basis set group =>   2
Atom  10H    basis set group =>   2
Atom  11H    basis set group =>   2
Atom  12O    basis set group =>   3
Atom  13H    basis set group =>   2
Atom  14C    basis set group =>   1
Atom  15C    basis set group =>   1
Atom  16H    basis set group =>   2
Atom  17H    basis set group =>   2
Atom  18C    basis set group =>   1
Atom  19H    basis set group =>   2
Atom  20C    basis set group =>   1
Atom  21H    basis set group =>   2
Atom  22C    basis set group =>   1
Atom  23C    basis set group =>   1
Atom  24H    basis set group =>   2
Atom  25H    basis set group =>   2
Atom  26C    basis set group =>   1
Atom  27H    basis set group =>   2
Atom  28H    basis set group =>   2
Atom  29C    basis set group =>   1
Atom  30H    basis set group =>   2
Atom  31H    basis set group =>   2
Atom  32C    basis set group =>   1
Atom  33H    basis set group =>   2
Atom  34C    basis set group =>   1
Atom  35H    basis set group =>   2
Atom  36C    basis set group =>   1
Atom  37H    basis set group =>   2
Atom  38H    basis set group =>   2
Atom  39C    basis set group =>   1
Atom  40H    basis set group =>   2
Atom  41H    basis set group =>   2
Atom  42H    basis set group =>   2
Atom  43C    basis set group =>   1
Atom  44C    basis set group =>   1
Atom  45H    basis set group =>   2
Atom  46H    basis set group =>   2
Atom  47H    basis set group =>   2
Atom  48H    basis set group =>   2
Atom  49C    basis set group =>   1
Atom  50C    basis set group =>   1
Atom  51C    basis set group =>   1
Atom  52H    basis set group =>   2
Atom  53H    basis set group =>   2
Atom  54C    basis set group =>   1
Atom  55C    basis set group =>   1
Atom  56C    basis set group =>   1
Atom  57H    basis set group =>   2
Atom  58H    basis set group =>   2
Atom  59C    basis set group =>   1
Atom  60C    basis set group =>   1
Atom  61H    basis set group =>   2
Atom  62H    basis set group =>   2
Atom  63H    basis set group =>   2
Atom  64H    basis set group =>   2
Atom  65H    basis set group =>   2
Atom  66H    basis set group =>   2
Atom  67H    basis set group =>   2
Atom  68H    basis set group =>   2
Atom  69H    basis set group =>   2
Atom  70H    basis set group =>   2
Atom  71H    basis set group =>   2
Atom  72H    basis set group =>   2

-------------------------------------
AUXILIARY/J BASIS SET IN INPUT FORMAT
-------------------------------------

 # Auxiliary/J basis set for element : H 
 NewAuxJGTO H 
 S 3 
   1      15.6752927000      0.1007184237
   2       3.6063578000      0.3404257499
   3       1.2080016000      0.6491996172
 S 1 
   1       0.4726794000      1.0000000000
 S 1 
   1       0.2018100000      1.0000000000
 P 2 
   1       2.0281365000      0.5596620919
   2       0.5358730000      0.5596620919
 D 1 
   1       2.2165124000      1.0000000000
  end;

 # Auxiliary/J basis set for element : C 
 NewAuxJGTO C 
 S 7 
   1    1861.0916331000      0.0134602335
   2     642.9939764000      0.0299160374
   3     235.1105725000      0.1008649584
   4      90.7028894000      0.2370970548
   5      36.7794552000      0.3924037254
   6      15.6046273000      0.3195862154
   7       6.8907294000      0.0530104441
 S 1 
   1       3.1478850000     -1.0000000000
 S 1 
   1       1.4777287000      1.0000000000
 S 1 
   1       0.7076466000      1.0000000000
 S 1 
   1       0.3430122000      1.0000000000
 S 1 
   1       0.1669453000      1.0000000000
 P 2 
   1      13.5472892000     -0.6769313712
   2       5.4669419000     -0.3779500978
 P 1 
   1       2.1751721000      1.0000000000
 P 1 
   1       0.8582194000      1.0000000000
 P 1 
   1       0.3376720000      1.0000000000
 D 2 
   1       5.9287253000     -0.3533329857
   2       1.9809209000     -0.7456525731
 D 1 
   1       0.8055417000     -1.0000000000
 D 1 
   1       0.3531244000     -1.0000000000
 F 2 
   1       1.6755626000      0.6311076882
   2       0.5997536000      0.4968166032
 G 1 
   1       1.0024600000     -1.0000000000
  end;

 # Auxiliary/J basis set for element : O 
 NewAuxJGTO O 
 S 7 
   1    2876.8216605000      0.0168151159
   2    1004.7443032000      0.0340137548
   3     369.7579954000      0.1194951309
   4     142.9442404000      0.2664627624
   5      57.8366425000      0.4202764046
   6      24.3864983000      0.2765077335
   7      10.6622662000      0.0057008815
 S 1 
   1       4.8070437000     -1.0000000000
 S 1 
   1       2.2210770000      1.0000000000
 S 1 
   1       1.0447795000      1.0000000000
 S 1 
   1       0.4968425000      1.0000000000
 S 1 
   1       0.2371384000      1.0000000000
 P 2 
   1      64.2613382000     -0.2731534179
   2      16.3006076000     -0.8168011598
 P 1 
   1       4.3550542000      1.0000000000
 P 1 
   1       1.2019554000      1.0000000000
 P 1 
   1       0.3354196000      1.0000000000
 D 2 
   1       9.2146611000     -0.4661230638
   2       2.8435251000     -0.6600908911
 D 1 
   1       0.9955759000     -1.0000000000
 D 1 
   1       0.3649441000     -1.0000000000
 F 2 
   1       2.6420115000      0.5931563945
   2       0.7345613000      0.5931563945
 G 1 
   1       1.3931000000     -1.0000000000
  end;



           ************************************************************
           *        Program running with 4 parallel MPI-processes     *
           *              working on a common directory               *
           ************************************************************
------------------------------------------------------------------------------
                           ORCA GTO INTEGRAL CALCULATION
                           -- RI-GTO INTEGRALS CHOSEN --
------------------------------------------------------------------------------
------------------------------------------------------------------------------
                   ___                                                        
                  /   \      - P O W E R E D   B Y -                         
                 /     \                                                     
                 |  |  |   _    _      __       _____    __    __             
                 |  |  |  | |  | |    /  \     |  _  \  |  |  /  |          
                  \  \/   | |  | |   /    \    | | | |  |  | /  /          
                 / \  \   | |__| |  /  /\  \   | |_| |  |  |/  /          
                |  |  |   |  __  | /  /__\  \  |    /   |      \           
                |  |  |   | |  | | |   __   |  |    \   |  |\   \          
                \     /   | |  | | |  |  |  |  | |\  \  |  | \   \       
                 \___/    |_|  |_| |__|  |__|  |_| \__\ |__|  \__/        
                                                                              
                      - O R C A' S   B I G   F R I E N D -                    
                                      &                                       
                       - I N T E G R A L  F E E D E R -                       
                                                                              
 v1 FN, 2020, v2 2021                                                         
------------------------------------------------------------------------------


Reading SHARK input file inpS.SHARKINP.tmp ... ok
----------------------
SHARK INTEGRAL PACKAGE
----------------------

Number of atoms                             ...     73
Number of basis functions                   ...    713
Number of shells                            ...    335
Maximum angular momentum                    ...      2
Integral batch strategy                     ... SHARK/LIBINT Hybrid
RI-J (if used) integral strategy            ... SPLIT-RIJ (Revised 2003 algorithm where possible)
Printlevel                                  ...      1
Contraction scheme used                     ... SEGMENTED contraction
Coulomb Range Separation                    ... NOT USED
Exchange Range Separation                   ... NOT USED
Finite Nucleus Model                        ... NOT USED
Auxiliary Coulomb fitting basis             ... AVAILABLE
   # of basis functions in Aux-J            ...   1905
   # of shells in Aux-J                     ...    655
   Maximum angular momentum in Aux-J        ...      4
Auxiliary J/K fitting basis                 ... NOT available
Auxiliary Correlation fitting basis         ... NOT available
Auxiliary 'external' fitting basis          ... NOT available
Integral threshold                          ...     3.000000e-11
Primitive cut-off                           ...     1.000000e-12
Primitive pair pre-selection threshold      ...     1.000000e-12

Calculating pre-screening integrals         ... done (  0.0 sec) Dimension = 335
Organizing shell pair data                  ... done (  0.2 sec)
Shell pair information
Total number of shell pairs                 ...     56280
Shell pairs after pre-screening             ...     31739
Total number of primitive shell pairs       ...    225367
Primitive shell pairs kept                  ...     74609
          la=0 lb=0:   9697 shell pairs
          la=1 lb=0:  13059 shell pairs
          la=1 lb=1:   4251 shell pairs
          la=2 lb=0:   2772 shell pairs
          la=2 lb=1:   1764 shell pairs
          la=2 lb=2:    196 shell pairs

Calculating one electron integrals          ... done (  0.1 sec)
Calculating RI/J V-Matrix + Cholesky decomp.... done (  0.1 sec)
Calculating Nuclear repulsion               ... done (  0.0 sec) ENN=   2784.401789644583 Eh

SHARK setup successfully completed in   0.6 seconds

Maximum memory used throughout the entire GTOINT-calculation: 61.2 MB


           ************************************************************
           *        Program running with 4 parallel MPI-processes     *
           *              working on a common directory               *
           ************************************************************
-------------------------------------------------------------------------------
                                 ORCA SCF
-------------------------------------------------------------------------------

------------
SCF SETTINGS
------------
Hamiltonian:
 Density Functional     Method          .... DFT(GTOs)
 Exchange Functional    Exchange        .... revTPSS
 Correlation Functional Correlation     .... revTPSS
 LDA part of GGA corr.  LDAOpt          .... PW91-LDA
 Gradients option       PostSCFGGA      .... off
   Density functional embedding theory  .... OFF
 RI-approximation to the Coulomb term is turned on
   Number of AuxJ basis functions       .... 1905


General Settings:
 Integral files         IntName         .... inpS
 Hartree-Fock type      HFTyp           .... RHF
 Total Charge           Charge          ....    0
 Multiplicity           Mult            ....    1
 Number of Electrons    NEL             ....  220
 Basis Dimension        Dim             ....  713
 Nuclear Repulsion      ENuc            ....   2784.4017896446 Eh

Convergence Acceleration:
 DIIS                   CNVDIIS         .... on
   Start iteration      DIISMaxIt       ....    12
   Startup error        DIISStart       ....  0.200000
   # of expansion vecs  DIISMaxEq       ....     5
   Bias factor          DIISBfac        ....   1.050
   Max. coefficient     DIISMaxC        ....  10.000
 Trust-Rad. Augm. Hess. CNVTRAH         .... auto
   Auto Start mean grad. ratio tolernc. ....  1.125000
   Auto Start start iteration           ....    20
   Auto Start num. interpolation iter.  ....    10
   Max. Number of Micro iterations      ....    16
   Max. Number of Macro iterations      .... Maxiter - #DIIS iter
   Number of Davidson start vectors     ....     2
   Converg. threshold I  (grad. norm)   ....   1.000e-04
   Converg. threshold II (energy diff.) ....   1.000e-07
   Grad. Scal. Fac. for Micro threshold ....   0.100
   Minimum threshold for Micro iter.    ....   0.010
   NR start threshold (gradient norm)   ....   0.001
   Initial trust radius                 ....   0.400
   Minimum AH scaling param. (alpha)    ....   1.000
   Maximum AH scaling param. (alpha)    .... 1000.000
   Orbital update algorithm             .... Taylor
   White noise on init. David. guess    .... on
   Maximum white noise                  ....   0.010
   Quad. conv. algorithm                .... NR
 SOSCF                  CNVSOSCF        .... off
 Level Shifting         CNVShift        .... on
   Level shift para.    LevelShift      ....    0.2500
   Turn off err/grad.   ShiftErr        ....    0.0010
 Zerner damping         CNVZerner       .... off
 Static damping         CNVDamp         .... on
   Fraction old density DampFac         ....    0.7000
   Max. Damping (<1)    DampMax         ....    0.9800
   Min. Damping (>=0)   DampMin         ....    0.0000
   Turn off err/grad.   DampErr         ....    0.1000
 Fernandez-Rico         CNVRico         .... off

SCF Procedure:
 Maximum # iterations   MaxIter         ....   125
 SCF integral mode      SCFMode         .... Direct
   Integral package                     .... SHARK and LIBINT hybrid scheme
 Reset frequency        DirectResetFreq ....    20
 Integral Threshold     Thresh          ....  3.000e-11 Eh
 Primitive CutOff       TCut            ....  1.000e-12 Eh

Convergence Tolerance:
 Convergence Check Mode ConvCheckMode   .... Total+1el-Energy
 Convergence forced     ConvForced      .... 0
 Energy Change          TolE            ....  1.000e-07 Eh
 1-El. energy change                    ....  1.000e-04 Eh
 DIIS Error             TolErr          ....  1.000e-07


Diagonalization of the overlap matrix:
Smallest eigenvalue                        ... 5.179e-04
Time for diagonalization                   ...    0.062 sec
Threshold for overlap eigenvalues          ... 1.000e-08
Number of eigenvalues below threshold      ... 0
Time for construction of square roots      ...    0.055 sec
Total time needed                          ...    0.119 sec

Time for model grid setup =    0.843 sec

------------------------------
INITIAL GUESS: MODEL POTENTIAL
------------------------------
Loading Hartree-Fock densities                     ... done
Calculating cut-offs                               ... done
Initializing the effective Hamiltonian             ... done
Setting up the integral package (SHARK)            ... done
Starting the Coulomb interaction                   ... done (   0.7 sec)
Reading the grid                                   ... done
Mapping shells                                     ... done
Starting the XC term evaluation                    ... done (   0.3 sec)
  promolecular density results
     # of electrons  =    219.978515785
     EX              =   -164.430764849
     EC              =     -7.326850062
     EX+EC           =   -171.757614911
Transforming the Hamiltonian                       ... done (   0.0 sec)
Diagonalizing the Hamiltonian                      ... done (   0.1 sec)
Back transforming the eigenvectors                 ... done (   0.0 sec)
Now organizing SCF variables                       ... done
                      ------------------
                      INITIAL GUESS DONE (   2.0 sec)
                      ------------------
-------------------
DFT GRID GENERATION
-------------------

General Integration Accuracy     IntAcc      ... 4.388
Radial Grid Type                 RadialGrid  ... OptM3 with GC (2021)
Angular Grid (max. ang.)         AngularGrid ... 4 (Lebedev-302)
Angular grid pruning method      GridPruning ... 4 (adaptive)
Weight generation scheme         WeightScheme... Becke
Basis function cutoff            BFCut       ... 1.0000e-11
Integration weight cutoff        WCut        ... 1.0000e-14
Angular grids for H and He will be reduced by one unit
Partially contracted basis set               ... off
Rotationally invariant grid construction     ... off

Total number of grid points                  ...   309819
Total number of batches                      ...     4877
Average number of points per batch           ...       63
Average number of grid points per atom       ...     4244
Time for grid setup =    3.332 sec


--------------------
CPCM SOLVATION MODEL
--------------------
CPCM parameters:
  Epsilon                                         ...       4.9000
  Refrac                                          ...       1.4500
  Rsolv                                           ...       1.3000
  Surface type                                    ... GAUSSIAN VDW
  Epsilon function type                           ...         CPCM
Radii:
 Radius for C  used is    3.8550 Bohr (=   2.0400 Ang.)
 Radius for H  used is    2.4944 Bohr (=   1.3200 Ang.)
 Radius for O  used is    3.4469 Bohr (=   1.8240 Ang.)
Calculating surface                               ...        done! (  0.0s)
GEPOL surface points                              ...         3609
GEPOL Volume                                      ...    3591.6239
GEPOL Surface-area                                ...    1781.2680
Calculating surface distance matrix               ...        done! (  0.1s)
Performing Cholesky decomposition & store         ...        done! (  0.5s)
Overall time for CPCM initialization              ...                 0.6s
--------------
SCF ITERATIONS
--------------
ITER       Energy         Delta-E        Max-DP      RMS-DP      [F,P]     Damp
               ***  Starting incremental Fock matrix formation  ***

  HOMO= 109 E= -1.917 eV LUMO=  7.768 eV gap=   9.686 eV
  0  -1167.5247645878   0.000000000000 0.05502526  0.00082835  0.2624364 0.7000

  HOMO= 109 E= -3.439 eV LUMO=  6.666 eV gap=  10.105 eV
  1  -1167.8980769651  -0.373312377217 0.02889687  0.00061194  0.1012196 0.7000
                               ***Turning on DIIS***

  HOMO= 109 E= -4.415 eV LUMO=  5.783 eV gap=  10.198 eV
  2  -1168.0444507548  -0.146373789723 0.04825783  0.00100981  0.0318638 0.0000

  HOMO= 109 E= -5.035 eV LUMO=  5.201 eV gap=  10.235 eV
  3  -1168.2418753821  -0.197424627331 0.02324425  0.00047217  0.0551091 0.0000

  HOMO= 109 E= -5.057 eV LUMO=  5.178 eV gap=  10.235 eV
  4  -1168.3088252180  -0.066949835850 0.00755937  0.00015195  0.0104002 0.0000

  HOMO= 109 E= -5.014 eV LUMO=  5.228 eV gap=  10.242 eV
  5  -1168.3119031443  -0.003077926351 0.00344951  0.00005705  0.0104517 0.0000

  HOMO= 109 E= -4.994 eV LUMO=  5.245 eV gap=  10.240 eV
  6  -1168.3121829917  -0.000279847357 0.00123059  0.00001920  0.0028753 0.0000

  HOMO= 109 E= -4.996 eV LUMO= -1.559 eV gap=   3.436 eV
  7  -1168.3122022245  -0.000019232877 0.00070513  0.00001164  0.0005158 0.0000

  HOMO= 109 E= -4.994 eV LUMO= -1.557 eV gap=   3.436 eV
  8  -1168.3122052651  -0.000003040572 0.00025146  0.00000282  0.0003848 0.0000

  HOMO= 109 E= -4.992 eV LUMO= -1.556 eV gap=   3.437 eV
  9  -1168.3122058741  -0.000000609010 0.00015018  0.00000151  0.0002480 0.0000

  HOMO= 109 E= -4.992 eV LUMO= -1.556 eV gap=   3.436 eV
 10  -1168.3122061225  -0.000000248349 0.00007259  0.00000071  0.0000936 0.0000

  HOMO= 109 E= -4.993 eV LUMO= -1.556 eV gap=   3.436 eV
 11  -1168.3122061447  -0.000000022184 0.00003375  0.00000030  0.0000339 0.0000

  HOMO= 109 E= -4.993 eV LUMO= -1.556 eV gap=   3.436 eV
 12  -1168.3122061332   0.000000011456 0.00001602  0.00000014  0.0000187 0.0000

  HOMO= 109 E= -4.993 eV LUMO= -1.556 eV gap=   3.436 eV
 13  -1168.3122061783  -0.000000045126 0.00000666  0.00000006  0.0000074 0.0000
                 **** Energy Check signals convergence ****

               *****************************************************
               *                     SUCCESS                       *
               *           SCF CONVERGED AFTER  14 CYCLES          *
               *****************************************************


----------------
TOTAL SCF ENERGY
----------------

Total Energy       :        -1168.31220619 Eh          -31791.39137 eV

Components:
Nuclear Repulsion  :         2784.40178964 Eh           75767.42464 eV
Electronic Energy  :        -3952.71399584 Eh         -107558.81601 eV
One Electron Energy:        -7114.89496382 Eh         -193606.13471 eV
Two Electron Energy:         3162.18096798 Eh           86047.31870 eV
CPCM Dielectric    :           -0.00893618 Eh              -0.24317 eV

Virial components:
Potential Energy   :        -2330.41506758 Eh          -63413.81789 eV
Kinetic Energy     :         1162.10286139 Eh           31622.42651 eV
Virial Ratio       :            2.00534320


DFT components:
N(Alpha)           :      110.000168945956 electrons
N(Beta)            :      110.000168945956 electrons
N(Total)           :      220.000337891912 electrons
E(X)               :     -169.583236817292 Eh       
E(C)               :       -7.443692664377 Eh       
E(XC)              :     -177.026929481669 Eh       
DFET-embed. en.    :        0.000000000000 Eh       
CPCM Solvation Model Properties:
Surface-charge          :           -0.04545740
Charge-correction       :           -0.00006189 Eh              -0.00168 eV
Free-energy (cav+disp)  :  This term is not implemented in the current solvation scheme

---------------
SCF CONVERGENCE
---------------

  Last Energy change         ...   -1.5054e-08  Tolerance :   1.0000e-07
  Last MAX-Density change    ...    3.0864e-06  Tolerance :   1.0000e-05
  Last RMS-Density change    ...    2.9252e-08  Tolerance :   1.0000e-06
  Last DIIS Error            ...    3.5336e-06  Tolerance :   1.0000e-07

             **** THE GBW FILE WAS UPDATED (inpS.gbw) ****
             **** DENSITY inpS.scfp WAS UPDATED ****
             **** ENERGY FILE WAS UPDATED (inpS.en.tmp) ****
             **** THE GBW FILE WAS UPDATED (inpS.gbw) ****
             **** DENSITY inpS.scfp WAS UPDATED ****
----------------
ORBITAL ENERGIES
----------------

  NO   OCC          E(Eh)            E(eV) 
   0   2.0000     -18.903786      -514.3982 
   1   2.0000     -10.057279      -273.6725 
   2   2.0000     -10.016568      -272.5647 
   3   2.0000     -10.014790      -272.5163 
   4   2.0000     -10.012567      -272.4558 
   5   2.0000     -10.012336      -272.4495 
   6   2.0000     -10.012039      -272.4414 
   7   2.0000     -10.011887      -272.4373 
   8   2.0000     -10.010063      -272.3877 
   9   2.0000     -10.009778      -272.3799 
  10   2.0000     -10.008916      -272.3564 
  11   2.0000     -10.007647      -272.3219 
  12   2.0000     -10.007607      -272.3208 
  13   2.0000     -10.007599      -272.3206 
  14   2.0000     -10.006861      -272.3005 
  15   2.0000     -10.006376      -272.2873 
  16   2.0000     -10.005167      -272.2544 
  17   2.0000     -10.001120      -272.1443 
  18   2.0000     -10.000870      -272.1375 
  19   2.0000     -10.000810      -272.1359 
  20   2.0000     -10.000373      -272.1240 
  21   2.0000      -9.999746      -272.1069 
  22   2.0000      -9.997392      -272.0429 
  23   2.0000      -9.997070      -272.0341 
  24   2.0000      -9.996168      -272.0096 
  25   2.0000      -9.995920      -272.0028 
  26   2.0000      -9.995844      -272.0007 
  27   2.0000      -9.995775      -271.9989 
  28   2.0000      -9.993502      -271.9370 
  29   2.0000      -0.954464       -25.9723 
  30   2.0000      -0.808322       -21.9956 
  31   2.0000      -0.789601       -21.4861 
  32   2.0000      -0.770588       -20.9688 
  33   2.0000      -0.757313       -20.6075 
  34   2.0000      -0.734713       -19.9925 
  35   2.0000      -0.728487       -19.8231 
  36   2.0000      -0.709057       -19.2944 
  37   2.0000      -0.708936       -19.2911 
  38   2.0000      -0.693418       -18.8689 
  39   2.0000      -0.676699       -18.4139 
  40   2.0000      -0.659869       -17.9560 
  41   2.0000      -0.654267       -17.8035 
  42   2.0000      -0.636946       -17.3322 
  43   2.0000      -0.626752       -17.0548 
  44   2.0000      -0.625555       -17.0222 
  45   2.0000      -0.619917       -16.8688 
  46   2.0000      -0.591877       -16.1058 
  47   2.0000      -0.585612       -15.9353 
  48   2.0000      -0.559244       -15.2178 
  49   2.0000      -0.548033       -14.9127 
  50   2.0000      -0.542068       -14.7504 
  51   2.0000      -0.536175       -14.5901 
  52   2.0000      -0.527226       -14.3466 
  53   2.0000      -0.507336       -13.8053 
  54   2.0000      -0.497531       -13.5385 
  55   2.0000      -0.481461       -13.1012 
  56   2.0000      -0.472418       -12.8551 
  57   2.0000      -0.463655       -12.6167 
  58   2.0000      -0.451360       -12.2821 
  59   2.0000      -0.445431       -12.1208 
  60   2.0000      -0.434802       -11.8316 
  61   2.0000      -0.429881       -11.6977 
  62   2.0000      -0.417164       -11.3516 
  63   2.0000      -0.416009       -11.3202 
  64   2.0000      -0.410681       -11.1752 
  65   2.0000      -0.405782       -11.0419 
  66   2.0000      -0.404286       -11.0012 
  67   2.0000      -0.400596       -10.9008 
  68   2.0000      -0.397912       -10.8277 
  69   2.0000      -0.391055       -10.6411 
  70   2.0000      -0.388740       -10.5782 
  71   2.0000      -0.384872       -10.4729 
  72   2.0000      -0.378509       -10.2997 
  73   2.0000      -0.376070       -10.2334 
  74   2.0000      -0.371441       -10.1074 
  75   2.0000      -0.368627       -10.0308 
  76   2.0000      -0.361138        -9.8271 
  77   2.0000      -0.357671        -9.7327 
  78   2.0000      -0.356228        -9.6934 
  79   2.0000      -0.347843        -9.4653 
  80   2.0000      -0.344761        -9.3814 
  81   2.0000      -0.344465        -9.3734 
  82   2.0000      -0.343272        -9.3409 
  83   2.0000      -0.337575        -9.1859 
  84   2.0000      -0.327310        -8.9066 
  85   2.0000      -0.326117        -8.8741 
  86   2.0000      -0.323701        -8.8084 
  87   2.0000      -0.321298        -8.7430 
  88   2.0000      -0.313553        -8.5322 
  89   2.0000      -0.310882        -8.4595 
  90   2.0000      -0.309650        -8.4260 
  91   2.0000      -0.307250        -8.3607 
  92   2.0000      -0.299981        -8.1629 
  93   2.0000      -0.297820        -8.1041 
  94   2.0000      -0.291163        -7.9230 
  95   2.0000      -0.288187        -7.8420 
  96   2.0000      -0.286764        -7.8032 
  97   2.0000      -0.285545        -7.7701 
  98   2.0000      -0.282908        -7.6983 
  99   2.0000      -0.280987        -7.6460 
 100   2.0000      -0.275186        -7.4882 
 101   2.0000      -0.272992        -7.4285 
 102   2.0000      -0.272074        -7.4035 
 103   2.0000      -0.270210        -7.3528 
 104   2.0000      -0.260449        -7.0872 
 105   2.0000      -0.250898        -6.8273 
 106   2.0000      -0.230295        -6.2666 
 107   2.0000      -0.228717        -6.2237 
 108   2.0000      -0.211864        -5.7651 
 109   2.0000      -0.183472        -4.9925 
 110   0.0000      -0.057185        -1.5561 
 111   0.0000      -0.014317        -0.3896 
 112   0.0000      -0.004113        -0.1119 
 113   0.0000       0.028291         0.7698 
 114   0.0000       0.037667         1.0250 
 115   0.0000       0.041129         1.1192 
 116   0.0000       0.047156         1.2832 
 117   0.0000       0.048299         1.3143 
 118   0.0000       0.053379         1.4525 
 119   0.0000       0.054708         1.4887 
 120   0.0000       0.060394         1.6434 
 121   0.0000       0.065150         1.7728 
 122   0.0000       0.070757         1.9254 
 123   0.0000       0.071757         1.9526 
 124   0.0000       0.078898         2.1469 
 125   0.0000       0.080729         2.1967 
 126   0.0000       0.082090         2.2338 
 127   0.0000       0.087247         2.3741 
 128   0.0000       0.089260         2.4289 
 129   0.0000       0.089980         2.4485 
 130   0.0000       0.097703         2.6586 
 131   0.0000       0.102224         2.7817 
 132   0.0000       0.105162         2.8616 
 133   0.0000       0.106802         2.9062 
 134   0.0000       0.108996         2.9659 
 135   0.0000       0.112109         3.0507 
 136   0.0000       0.115242         3.1359 
 137   0.0000       0.118425         3.2225 
 138   0.0000       0.119643         3.2557 
 139   0.0000       0.123914         3.3719 
 140   0.0000       0.125485         3.4146 
 141   0.0000       0.126719         3.4482 
 142   0.0000       0.130705         3.5567 
 143   0.0000       0.131370         3.5748 
 144   0.0000       0.137055         3.7295 
 145   0.0000       0.139252         3.7892 
 146   0.0000       0.142088         3.8664 
 147   0.0000       0.143533         3.9057 
 148   0.0000       0.144818         3.9407 
 149   0.0000       0.149592         4.0706 
 150   0.0000       0.153436         4.1752 
 151   0.0000       0.155315         4.2263 
 152   0.0000       0.157102         4.2750 
 153   0.0000       0.160337         4.3630 
 154   0.0000       0.164995         4.4897 
 155   0.0000       0.169129         4.6022 
 156   0.0000       0.173808         4.7296 
 157   0.0000       0.178112         4.8467 
 158   0.0000       0.178689         4.8624 
 159   0.0000       0.186047         5.0626 
 160   0.0000       0.189047         5.1442 
 161   0.0000       0.192377         5.2348 
 162   0.0000       0.197263         5.3678 
 163   0.0000       0.199721         5.4347 
 164   0.0000       0.203358         5.5336 
 165   0.0000       0.205925         5.6035 
 166   0.0000       0.209135         5.6909 
 167   0.0000       0.210666         5.7325 
 168   0.0000       0.213646         5.8136 
 169   0.0000       0.216227         5.8838 
 170   0.0000       0.217768         5.9258 
 171   0.0000       0.221169         6.0183 
 172   0.0000       0.226008         6.1500 
 173   0.0000       0.230641         6.2761 
 174   0.0000       0.232785         6.3344 
 175   0.0000       0.242748         6.6055 
 176   0.0000       0.250598         6.8191 
 177   0.0000       0.258784         7.0419 
 178   0.0000       0.263015         7.1570 
 179   0.0000       0.269219         7.3258 
 180   0.0000       0.275946         7.5089 
 181   0.0000       0.284995         7.7551 
 182   0.0000       0.286771         7.8034 
 183   0.0000       0.295128         8.0309 
 184   0.0000       0.298466         8.1217 
 185   0.0000       0.324630         8.8336 
 186   0.0000       0.330987         9.0066 
 187   0.0000       0.336542         9.1578 
 188   0.0000       0.345375         9.3981 
 189   0.0000       0.353940         9.6312 
 190   0.0000       0.359270         9.7762 
 191   0.0000       0.362825         9.8730 
 192   0.0000       0.364036         9.9059 
 193   0.0000       0.370782        10.0895 
 194   0.0000       0.377558        10.2739 
 195   0.0000       0.379118        10.3163 
 196   0.0000       0.383389        10.4326 
 197   0.0000       0.387461        10.5433 
 198   0.0000       0.398124        10.8335 
 199   0.0000       0.400633        10.9018 
 200   0.0000       0.406345        11.0572 
 201   0.0000       0.407917        11.1000 
 202   0.0000       0.411433        11.1957 
 203   0.0000       0.415112        11.2958 
 204   0.0000       0.421637        11.4733 
 205   0.0000       0.425112        11.5679 
 206   0.0000       0.435308        11.8453 
 207   0.0000       0.442270        12.0348 
 208   0.0000       0.451690        12.2911 
 209   0.0000       0.457443        12.4476 
 210   0.0000       0.459315        12.4986 
 211   0.0000       0.466118        12.6837 
 212   0.0000       0.467819        12.7300 
 213   0.0000       0.473617        12.8878 
 214   0.0000       0.476640        12.9700 
 215   0.0000       0.480596        13.0777 
 216   0.0000       0.482990        13.1428 
 217   0.0000       0.494931        13.4678 
 218   0.0000       0.497594        13.5402 
 219   0.0000       0.499019        13.5790 
 220   0.0000       0.503901        13.7118 
 221   0.0000       0.505382        13.7521 
 222   0.0000       0.512705        13.9514 
 223   0.0000       0.516581        14.0569 
 224   0.0000       0.524567        14.2742 
 225   0.0000       0.529199        14.4002 
 226   0.0000       0.534033        14.5318 
 227   0.0000       0.539127        14.6704 
 228   0.0000       0.541084        14.7236 
 229   0.0000       0.542466        14.7612 
 230   0.0000       0.552963        15.0469 
 231   0.0000       0.554397        15.0859 
 232   0.0000       0.557973        15.1832 
 233   0.0000       0.562540        15.3075 
 234   0.0000       0.564900        15.3717 
 235   0.0000       0.567533        15.4433 
 236   0.0000       0.572146        15.5689 
 237   0.0000       0.572992        15.5919 
 238   0.0000       0.576429        15.6854 
 239   0.0000       0.576999        15.7009 
 240   0.0000       0.583029        15.8650 
 241   0.0000       0.584875        15.9152 
 242   0.0000       0.591295        16.0899 
 243   0.0000       0.592538        16.1238 
 244   0.0000       0.593447        16.1485 
 245   0.0000       0.597163        16.2496 
 246   0.0000       0.599580        16.3154 
 247   0.0000       0.600678        16.3453 
 248   0.0000       0.603192        16.4137 
 249   0.0000       0.606081        16.4923 
 250   0.0000       0.607400        16.5282 
 251   0.0000       0.607749        16.5377 
 252   0.0000       0.609258        16.5787 
 253   0.0000       0.612748        16.6737 
 254   0.0000       0.615284        16.7427 
 255   0.0000       0.616554        16.7773 
 256   0.0000       0.620742        16.8912 
 257   0.0000       0.624432        16.9916 
 258   0.0000       0.627316        17.0701 
 259   0.0000       0.629170        17.1206 
 260   0.0000       0.630761        17.1639 
 261   0.0000       0.634511        17.2659 
 262   0.0000       0.641372        17.4526 
 263   0.0000       0.644117        17.5273 
 264   0.0000       0.647197        17.6111 
 265   0.0000       0.648417        17.6443 
 266   0.0000       0.649910        17.6850 
 267   0.0000       0.651787        17.7360 
 268   0.0000       0.654787        17.8177 
 269   0.0000       0.657700        17.8969 
 270   0.0000       0.662810        18.0360 
 271   0.0000       0.665510        18.1095 
 272   0.0000       0.668571        18.1927 
 273   0.0000       0.673967        18.3396 
 274   0.0000       0.676153        18.3991 
 275   0.0000       0.678763        18.4701 
 276   0.0000       0.681463        18.5435 
 277   0.0000       0.683730        18.6052 
 278   0.0000       0.688767        18.7423 
 279   0.0000       0.694142        18.8886 
 280   0.0000       0.695127        18.9154 
 281   0.0000       0.697100        18.9691 
 282   0.0000       0.699176        19.0255 
 283   0.0000       0.708235        19.2720 
 284   0.0000       0.711252        19.3542 
 285   0.0000       0.713017        19.4022 
 286   0.0000       0.717858        19.5339 
 287   0.0000       0.727340        19.7919 
 288   0.0000       0.731404        19.9025 
 289   0.0000       0.735391        20.0110 
 290   0.0000       0.744365        20.2552 
 291   0.0000       0.748831        20.3767 
 292   0.0000       0.749841        20.4042 
 293   0.0000       0.757558        20.6142 
 294   0.0000       0.765598        20.8330 
 295   0.0000       0.769644        20.9431 
 296   0.0000       0.774355        21.0713 
 297   0.0000       0.779705        21.2169 
 298   0.0000       0.783533        21.3210 
 299   0.0000       0.793608        21.5952 
 300   0.0000       0.796998        21.6874 
 301   0.0000       0.804641        21.8954 
 302   0.0000       0.806263        21.9395 
 303   0.0000       0.812901        22.1202 
 304   0.0000       0.836956        22.7747 
 305   0.0000       0.848400        23.0861 
 306   0.0000       0.863916        23.5084 
 307   0.0000       0.874267        23.7900 
 308   0.0000       0.891538        24.2600 
 309   0.0000       0.900136        24.4939 
 310   0.0000       0.925772        25.1915 
 311   0.0000       0.934154        25.4196 
 312   0.0000       0.948705        25.8156 
 313   0.0000       0.961558        26.1653 
 314   0.0000       0.973559        26.4919 
 315   0.0000       0.989267        26.9193 
 316   0.0000       1.003749        27.3134 
 317   0.0000       1.019528        27.7428 
 318   0.0000       1.026329        27.9278 
 319   0.0000       1.038279        28.2530 
 320   0.0000       1.049650        28.5624 
 321   0.0000       1.065428        28.9918 
 322   0.0000       1.077051        29.3080 
 323   0.0000       1.091624        29.7046 
 324   0.0000       1.107677        30.1414 
 325   0.0000       1.115266        30.3479 
 326   0.0000       1.145078        31.1592 
 327   0.0000       1.154486        31.4152 
 328   0.0000       1.176361        32.0104 
 329   0.0000       1.187221        32.3059 
 330   0.0000       1.191992        32.4357 
 331   0.0000       1.210079        32.9279 
 332   0.0000       1.230572        33.4856 
 333   0.0000       1.246097        33.9080 
 334   0.0000       1.250349        34.0237 
 335   0.0000       1.264367        34.4052 
 336   0.0000       1.276671        34.7400 
 337   0.0000       1.293043        35.1855 
 338   0.0000       1.306244        35.5447 
 339   0.0000       1.311971        35.7006 
 340   0.0000       1.331811        36.2404 
 341   0.0000       1.338135        36.4125 
 342   0.0000       1.346995        36.6536 
 343   0.0000       1.351572        36.7781 
 344   0.0000       1.362301        37.0701 
 345   0.0000       1.368877        37.2490 
 346   0.0000       1.373817        37.3835 
 347   0.0000       1.379520        37.5387 
 348   0.0000       1.404667        38.2229 
 349   0.0000       1.416588        38.5473 
 350   0.0000       1.419464        38.6256 
 351   0.0000       1.433221        38.9999 
 352   0.0000       1.434311        39.0296 
 353   0.0000       1.452830        39.5335 
 354   0.0000       1.457089        39.6494 
 355   0.0000       1.464661        39.8554 
 356   0.0000       1.473986        40.1092 
 357   0.0000       1.495925        40.7062 
 358   0.0000       1.501293        40.8523 
 359   0.0000       1.505519        40.9673 
 360   0.0000       1.513342        41.1801 
 361   0.0000       1.522312        41.4242 
 362   0.0000       1.525265        41.5046 
 363   0.0000       1.532853        41.7111 
 364   0.0000       1.550690        42.1964 
 365   0.0000       1.564891        42.5828 
 366   0.0000       1.578832        42.9622 
 367   0.0000       1.587779        43.2057 
 368   0.0000       1.592384        43.3310 
 369   0.0000       1.600549        43.5531 
 370   0.0000       1.610930        43.8356 
 371   0.0000       1.620345        44.0918 
 372   0.0000       1.628972        44.3266 
 373   0.0000       1.638772        44.5933 
 374   0.0000       1.644398        44.7463 
 375   0.0000       1.660779        45.1921 
 376   0.0000       1.665484        45.3201 
 377   0.0000       1.669198        45.4212 
 378   0.0000       1.678897        45.6851 
 379   0.0000       1.683710        45.8161 
 380   0.0000       1.687424        45.9171 
 381   0.0000       1.690054        45.9887 
 382   0.0000       1.697010        46.1780 
 383   0.0000       1.705149        46.3995 
 384   0.0000       1.712209        46.5916 
 385   0.0000       1.713756        46.6337 
 386   0.0000       1.718817        46.7714 
 387   0.0000       1.720238        46.8101 
 388   0.0000       1.732534        47.1446 
 389   0.0000       1.735238        47.2182 
 390   0.0000       1.744564        47.4720 
 391   0.0000       1.751223        47.6532 
 392   0.0000       1.758298        47.8457 
 393   0.0000       1.768425        48.1213 
 394   0.0000       1.770330        48.1731 
 395   0.0000       1.777228        48.3608 
 396   0.0000       1.781228        48.4697 
 397   0.0000       1.782730        48.5105 
 398   0.0000       1.787660        48.6447 
 399   0.0000       1.795358        48.8542 
 400   0.0000       1.800180        48.9854 
 401   0.0000       1.810121        49.2559 
 402   0.0000       1.813284        49.3420 
 403   0.0000       1.817743        49.4633 
 404   0.0000       1.820279        49.5323 
 405   0.0000       1.825026        49.6615 
 406   0.0000       1.833729        49.8983 
 407   0.0000       1.840363        50.0788 
 408   0.0000       1.844628        50.1949 
 409   0.0000       1.853036        50.4237 
 410   0.0000       1.863902        50.7193 
 411   0.0000       1.867475        50.8166 
 412   0.0000       1.874557        51.0093 
 413   0.0000       1.882134        51.2155 
 414   0.0000       1.891306        51.4650 
 415   0.0000       1.893017        51.5116 
 416   0.0000       1.895156        51.5698 
 417   0.0000       1.902913        51.7809 
 418   0.0000       1.912647        52.0458 
 419   0.0000       1.919358        52.2284 
 420   0.0000       1.928312        52.4720 
 421   0.0000       1.933377        52.6099 
 422   0.0000       1.939743        52.7831 
 423   0.0000       1.950903        53.0868 
 424   0.0000       1.952720        53.1362 
 425   0.0000       1.958566        53.2953 
 426   0.0000       1.964711        53.4625 
 427   0.0000       1.969081        53.5814 
 428   0.0000       1.974213        53.7211 
 429   0.0000       1.975717        53.7620 
 430   0.0000       1.983661        53.9781 
 431   0.0000       1.987174        54.0738 
 432   0.0000       1.990617        54.1675 
 433   0.0000       1.992480        54.2181 
 434   0.0000       1.999025        54.3962 
 435   0.0000       2.001572        54.4655 
 436   0.0000       2.008513        54.6544 
 437   0.0000       2.011191        54.7273 
 438   0.0000       2.015431        54.8427 
 439   0.0000       2.017940        54.9109 
 440   0.0000       2.021393        55.0049 
 441   0.0000       2.029940        55.2375 
 442   0.0000       2.033009        55.3210 
 443   0.0000       2.037423        55.4411 
[...]

 --------------
 Nucleus  47H :
 --------------

Diamagnetic contribution to the shielding tensor (ppm) : 
            32.930         -2.310        -5.865
            -2.529         32.113         6.914
            -8.407          6.407        51.048

Paramagnetic contribution to the shielding tensor (ppm): 
            -1.807          0.487         3.805
             0.560         -4.760        -4.591
             5.683         -3.297       -15.640

Total shielding tensor (ppm): 
            31.123         -1.824        -2.059
            -1.969         27.353         2.323
            -2.724          3.110        35.408


 Diagonalized sT*s matrix:
 
 sDSO            29.961           30.809           55.322  iso=      38.697
 sPSO            -3.741           -0.667          -17.800  iso=      -7.402
        ---------------  ---------------  ---------------
 Total           26.220           30.142           37.523  iso=      31.295

 --------------
 Nucleus  48H :
 --------------

Diamagnetic contribution to the shielding tensor (ppm) : 
            36.507         -0.397        -3.547
             0.662         27.841        -6.825
           -10.688         -6.081        52.091

Paramagnetic contribution to the shielding tensor (ppm): 
            -5.823          0.911         3.681
            -0.670          0.257         4.567
            11.838          3.386       -21.360

Total shielding tensor (ppm): 
            30.685          0.514         0.134
            -0.008         28.098        -2.258
             1.150         -2.694        30.731


 Diagonalized sT*s matrix:
 
 sDSO            29.881           39.114           47.445  iso=      38.813
 sPSO            -3.343           -8.467          -15.115  iso=      -8.975
        ---------------  ---------------  ---------------
 Total           26.538           30.647           32.330  iso=      29.838

 --------------
 Nucleus  52H :
 --------------

Diamagnetic contribution to the shielding tensor (ppm) : 
            41.658         -0.314        -2.730
             3.961         39.295        -5.656
            -4.854         -1.600        37.059

Paramagnetic contribution to the shielding tensor (ppm): 
            -9.658          1.143         4.952
            -2.765        -17.149         5.348
             6.993          1.174       -13.477

Total shielding tensor (ppm): 
            32.000          0.829         2.222
             1.196         22.146        -0.308
             2.138         -0.426        23.583


 Diagonalized sT*s matrix:
 
 sDSO            36.367           41.798           39.846  iso=      39.337
 sPSO           -14.578          -18.468           -7.238  iso=     -13.428
        ---------------  ---------------  ---------------
 Total           21.789           23.331           32.608  iso=      25.910

 --------------
 Nucleus  53H :
 --------------

Diamagnetic contribution to the shielding tensor (ppm) : 
            39.536         -5.782        -0.922
             1.418         41.711         1.197
            -7.677         -1.614        45.203

Paramagnetic contribution to the shielding tensor (ppm): 
            -8.189          6.265         4.313
             0.767        -19.201         0.946
            10.959          2.794       -18.998

Total shielding tensor (ppm): 
            31.347          0.482         3.391
             2.185         22.509         2.143
             3.282          1.180        26.205


 Diagonalized sT*s matrix:
 
 sDSO            42.255           47.498           36.697  iso=      42.150
 sPSO           -20.379          -22.644           -3.365  iso=     -15.463
        ---------------  ---------------  ---------------
 Total           21.875           24.854           33.332  iso=      26.687

 --------------
 Nucleus  57H :
 --------------

Diamagnetic contribution to the shielding tensor (ppm) : 
            38.020         -0.087         0.224
            -4.307         45.646        -1.000
            -7.570         -1.478        25.687

Paramagnetic contribution to the shielding tensor (ppm): 
            -6.892         -0.144         0.754
             2.930        -13.989        -0.058
             8.352          0.807         2.700

Total shielding tensor (ppm): 
            31.127         -0.231         0.978
            -1.377         31.657        -1.058
             0.783         -0.671        28.387


 Diagonalized sT*s matrix:
 
 sDSO            28.332           38.371           42.649  iso=      36.451
 sPSO            -0.313           -7.811          -10.057  iso=      -6.060
        ---------------  ---------------  ---------------
 Total           28.020           30.560           32.592  iso=      30.391

 --------------
 Nucleus  58H :
 --------------

Diamagnetic contribution to the shielding tensor (ppm) : 
            28.825         -3.316         1.127
            -1.340         43.677        -6.806
            16.417          1.011        29.487

Paramagnetic contribution to the shielding tensor (ppm): 
             0.575          2.525        -0.480
             0.246         -9.353         6.669
           -15.059         -1.554        -0.934

Total shielding tensor (ppm): 
            29.400         -0.791         0.647
            -1.094         34.324        -0.137
             1.358         -0.544        28.554


 Diagonalized sT*s matrix:
 
 sDSO            21.256           36.070           44.663  iso=      33.996
 sPSO             6.623           -6.215          -10.120  iso=      -3.237
        ---------------  ---------------  ---------------
 Total           27.879           29.854           34.544  iso=      30.759

 --------------
 Nucleus  61H :
 --------------

Diamagnetic contribution to the shielding tensor (ppm) : 
            35.961         -6.325         0.811
            -9.361         37.812         1.755
           -11.889         -2.777         8.915

Paramagnetic contribution to the shielding tensor (ppm): 
            -4.061          2.206        -1.922
             5.994         -5.172        -0.502
            10.173          4.493        19.532

Total shielding tensor (ppm): 
            31.900         -4.119        -1.111
            -3.366         32.640         1.253
            -1.715          1.716        28.447


 Diagonalized sT*s matrix:
 
 sDSO             8.833           29.582           44.272  iso=      27.562
 sPSO            19.092           -1.069           -7.723  iso=       3.433
        ---------------  ---------------  ---------------
 Total           27.925           28.513           36.548  iso=      30.996

 --------------
 Nucleus  62H :
 --------------

Diamagnetic contribution to the shielding tensor (ppm) : 
            42.797          6.983         5.625
            10.832         35.239        -1.374
            -8.020         -3.801         1.024

Paramagnetic contribution to the shielding tensor (ppm): 
            -7.803         -2.435        -5.292
            -6.868         -8.345         2.153
             7.040          4.682        28.064

Total shielding tensor (ppm): 
            34.994          4.548         0.333
             3.964         26.894         0.779
            -0.980          0.881        29.089


 Diagonalized sT*s matrix:
 
 sDSO            29.429            1.587           48.045  iso=      26.354
 sPSO            -4.547           27.690          -11.226  iso=       3.972
        ---------------  ---------------  ---------------
 Total           24.881           29.277           36.819  iso=      30.326

 --------------
 Nucleus  63H :
 --------------

Diamagnetic contribution to the shielding tensor (ppm) : 
            35.548         -0.460        -1.522
             3.563         23.977        -3.924
           -27.720         -5.093        25.804

Paramagnetic contribution to the shielding tensor (ppm): 
            -4.917          0.943        -0.735
            -2.927          2.424         2.346
            25.523          3.084         9.949

Total shielding tensor (ppm): 
            30.631          0.483        -2.257
             0.636         26.400        -1.578
            -2.197         -2.009        35.753


 Diagonalized sT*s matrix:
 
 sDSO            22.547           24.993           37.788  iso=      28.443
 sPSO             3.516            4.808           -0.868  iso=       2.485
        ---------------  ---------------  ---------------
 Total           26.063           29.801           36.920  iso=      30.928

 --------------
 Nucleus  64H :
 --------------

Diamagnetic contribution to the shielding tensor (ppm) : 
            40.012          1.616        -6.327
             6.671         27.327         4.249
            14.328          9.168        54.800

Paramagnetic contribution to the shielding tensor (ppm): 
            -4.762          2.061         9.042
            -3.653         -2.413        -3.213
           -12.451         -7.993       -23.848

Total shielding tensor (ppm): 
            35.250          3.677         2.715
             3.018         24.915         1.036
             1.877          1.176        30.952


 Diagonalized sT*s matrix:
 
 sDSO            25.517           49.379           47.243  iso=      40.713
 sPSO            -1.617          -19.408           -9.997  iso=     -10.341
        ---------------  ---------------  ---------------
 Total           23.900           29.971           37.246  iso=      30.372

 --------------
 Nucleus  65H :
 --------------

Diamagnetic contribution to the shielding tensor (ppm) : 
            28.513         -5.659        -8.451
            -0.186         42.134         2.646
            13.588          7.160        44.847

Paramagnetic contribution to the shielding tensor (ppm): 
             2.834          2.307         8.061
            -2.582         -9.269        -0.880
           -13.654         -4.674       -15.152

Total shielding tensor (ppm): 
            31.347         -3.352        -0.390
            -2.768         32.866         1.766
            -0.066          2.486        29.695


 Diagonalized sT*s matrix:
 
 sDSO            33.119           40.147           42.228  iso=      38.498
 sPSO            -5.159          -10.013           -6.414  iso=      -7.196
        ---------------  ---------------  ---------------
 Total           27.960           30.134           35.813  iso=      31.302

 --------------
 Nucleus  66H :
 --------------

Diamagnetic contribution to the shielding tensor (ppm) : 
            20.272         -1.436        -7.126
            -1.654         32.531        -2.447
            21.345          0.411        52.709

Paramagnetic contribution to the shielding tensor (ppm): 
             9.232          1.860         4.902
             2.191         -5.951         0.324
           -22.372         -2.821       -15.955

Total shielding tensor (ppm): 
            29.504          0.424        -2.224
             0.537         26.580        -2.123
            -1.027         -2.410        36.754


 Diagonalized sT*s matrix:
 
 sDSO            32.953           24.363           48.196  iso=      35.171
 sPSO            -6.861            4.794          -10.607  iso=      -4.225
        ---------------  ---------------  ---------------
 Total           26.093           29.157           37.589  iso=      30.946

 --------------
 Nucleus  67H :
 --------------

Diamagnetic contribution to the shielding tensor (ppm) : 
            39.243         -0.268         7.824
            -4.846         26.278        -1.429
            12.544         -2.540         0.856

Paramagnetic contribution to the shielding tensor (ppm): 
            -2.472         -0.829        -7.773
             4.494         -1.105         2.291
           -11.326          3.757        28.424

Total shielding tensor (ppm): 
            36.771         -1.097         0.051
            -0.351         25.173         0.862
             1.217          1.217        29.279


 Diagonalized sT*s matrix:
 
 sDSO            25.043            0.627           40.707  iso=      22.126
 sPSO            -0.179           28.874           -3.848  iso=       8.282
        ---------------  ---------------  ---------------
 Total           24.864           29.501           36.859  iso=      30.408

 --------------
 Nucleus  68H :
 --------------

Diamagnetic contribution to the shielding tensor (ppm) : 
            19.567         -0.378         8.374
            -2.006         16.372        -2.445
            29.102          1.758        29.084

Paramagnetic contribution to the shielding tensor (ppm): 
            10.080          0.901        -4.611
             2.519          9.985         1.815
           -25.966         -2.890         7.387

Total shielding tensor (ppm): 
            29.647          0.523         3.763
             0.512         26.357        -0.630
             3.136         -1.131        36.472


 Diagonalized sT*s matrix:
 
 sDSO            15.576            8.626           40.822  iso=      21.675
 sPSO            10.444           19.886           -2.878  iso=       9.151
        ---------------  ---------------  ---------------
 Total           26.020           28.512           37.944  iso=      30.825

 --------------
 Nucleus  69H :
 --------------

Diamagnetic contribution to the shielding tensor (ppm) : 
            25.532          2.964         7.677
             9.927         39.410         5.983
            15.847          0.571        12.915

Paramagnetic contribution to the shielding tensor (ppm): 
             3.910         -0.177        -6.056
            -7.598         -4.078        -4.303
           -14.349          1.525        16.060

Total shielding tensor (ppm): 
            29.442          2.787         1.621
             2.330         35.332         1.679
             1.498          2.096        28.975


 Diagonalized sT*s matrix:
 
 sDSO             7.085           27.113           43.658  iso=      25.952
 sPSO            20.533            2.053           -6.693  iso=       5.298
        ---------------  ---------------  ---------------
 Total           27.619           29.165           36.965  iso=      31.250

 --------------
 Nucleus  70H :
 --------------

Diamagnetic contribution to the shielding tensor (ppm) : 
            31.349          1.557         4.162
            -4.193         34.305        10.827
            -4.749          7.463        43.922

Paramagnetic contribution to the shielding tensor (ppm): 
             1.609         -1.128        -3.134
             5.108         -4.949        -5.831
             5.993         -2.728       -15.277

Total shielding tensor (ppm): 
            32.958          0.429         1.028
             0.915         29.356         4.996
             1.244          4.735        28.646


 Diagonalized sT*s matrix:
 
 sDSO            30.324           37.788           41.465  iso=      36.525
 sPSO            -6.218           -5.704           -6.695  iso=      -6.206
        ---------------  ---------------  ---------------
 Total           24.106           32.083           34.769  iso=      30.320

 --------------
 Nucleus  71H :
 --------------

Diamagnetic contribution to the shielding tensor (ppm) : 
            28.519         -6.180        -1.397
            -6.637         37.261        -0.088
            -3.695         -7.937        45.812

Paramagnetic contribution to the shielding tensor (ppm): 
             2.568          5.027         2.597
             5.205         -4.261        -2.690
             4.572          5.348       -17.277

Total shielding tensor (ppm): 
            31.087         -1.153         1.200
            -1.432         33.000        -2.778
             0.877         -2.588        28.535


 Diagonalized sT*s matrix:
 
 sDSO            42.424           25.765           43.402  iso=      37.197
 sPSO           -15.191            4.688           -8.467  iso=      -6.323
        ---------------  ---------------  ---------------
 Total           27.233           30.453           34.936  iso=      30.874

 --------------
 Nucleus  72H :
 --------------

Diamagnetic contribution to the shielding tensor (ppm) : 
            36.688         -8.335        -9.105
            -8.058         21.846         6.525
           -21.879          2.411        39.513

Paramagnetic contribution to the shielding tensor (ppm): 
            -2.019          6.813         5.388
             6.113          5.874        -3.673
            17.878          1.199        -9.635

Total shielding tensor (ppm): 
            34.669         -1.522        -3.717
            -1.945         27.720         2.853
            -4.001          3.609        29.878


 Diagonalized sT*s matrix:
 
 sDSO            24.106           19.763           54.178  iso=      32.682
 sPSO             1.183            9.418          -16.379  iso=      -1.926
        ---------------  ---------------  ---------------
 Total           25.289           29.181           37.798  iso=      30.756



--------------------------------
CHEMICAL SHIELDING SUMMARY (ppm)
--------------------------------


  Nucleus  Element    Isotropic     Anisotropy
  -------  -------  ------------   ------------
      3       H           29.367          6.453 
      4       H           29.048          7.417 
      8       H           29.565          7.962 
      9       H           29.335          5.445 
     10       H           30.102          8.338 
     11       H           29.856         10.226 
     13       H           27.734          7.769 
     16       H           26.786          4.651 
     17       H           26.502          4.783 
     19       H           25.406         10.459 
     21       H           25.581         14.732 
     24       H           28.909         10.164 
     25       H           30.051          9.429 
     27       H           30.245          7.093 
     28       H           30.113         11.774 
     30       H           29.734          8.329 
     31       H           30.460          6.754 
     33       H           29.841          4.057 
     35       H           30.162         14.744 
     37       H           30.333         10.609 
     38       H           30.183         10.134 
     40       H           29.870         10.270 
     41       H           30.248          7.829 
     42       H           30.695          6.196 
     45       H           31.242          7.495 
     46       H           31.015          8.071 
     47       H           31.295          9.342 
     48       H           29.838          3.737 
     52       H           25.910         10.048 
     53       H           26.687          9.967 
     57       H           30.391          3.303 
     58       H           30.759          5.677 
     61       H           30.996          8.329 
     62       H           30.326          9.739 
     63       H           30.928          8.989 
     64       H           30.372         10.311 
     65       H           31.302          6.767 
     66       H           30.946          9.964 
     67       H           30.408          9.676 
     68       H           30.825         10.678 
     69       H           31.250          8.573 
     70       H           30.320          6.675 
     71       H           30.874          6.092 
     72       H           30.756         10.563 



Maximum memory used throughout the entire EPRNMR-calculation: 140.9 MB

Timings for individual modules:

Sum of individual times         ...      141.707 sec (=   2.362 min)
GTO integral calculation        ...        0.826 sec (=   0.014 min)   0.6 %
SCF iterations                  ...       94.075 sec (=   1.568 min)  66.4 %
EPR/NMR calculation             ...       46.806 sec (=   0.780 min)  33.0 %
                             ****ORCA TERMINATED NORMALLY****
TOTAL RUN TIME: 0 days 0 hours 2 minutes 22 seconds 313 msec
