
                                 *****************
                                 * O   R   C   A *
                                 *****************

                                            #,                                       
                                            ###                                      
                                            ####                                     
                                            #####                                    
                                            ######                                   
                                           ########,                                 
                                     ,,################,,,,,                         
                               ,,#################################,,                 
                          ,,##########################################,,             
                       ,#########################################, ''#####,          
                    ,#############################################,,   '####,        
                  ,##################################################,,,,####,       
                ,###########''''           ''''###############################       
              ,#####''   ,,,,##########,,,,          '''####'''          '####       
            ,##' ,,,,###########################,,,                        '##       
           ' ,,###''''                  '''############,,,                           
         ,,##''                                '''############,,,,        ,,,,,,###''
      ,#''                                            '''#######################'''  
     '                                                          ''''####''''         
             ,#######,   #######,   ,#######,      ##                                
            ,#'     '#,  ##    ##  ,#'     '#,    #''#        ######   ,####,        
            ##       ##  ##   ,#'  ##            #'  '#       #        #'  '#        
            ##       ##  #######   ##           ,######,      #####,   #    #        
            '#,     ,#'  ##    ##  '#,     ,#' ,#      #,         ##   #,  ,#        
             '#######'   ##     ##  '#######'  #'      '#     #####' # '####'        



                  #######################################################
                  #                        -***-                        #
                  #          Department of theory and spectroscopy      #
                  #    Directorship and core code : Frank Neese         #
                  #        Max Planck Institute fuer Kohlenforschung    #
                  #                Kaiser Wilhelm Platz 1               #
                  #                 D-45470 Muelheim/Ruhr               #
                  #                      Germany                        #
                  #                                                     #
                  #                  All rights reserved                #
                  #                        -***-                        #
                  #######################################################


                         Program Version 5.0.2 -  RELEASE  -


 With contributions from (in alphabetic order):
   Daniel Aravena         : Magnetic Suceptibility
   Michael Atanasov       : Ab Initio Ligand Field Theory (pilot matlab implementation)
   Alexander A. Auer      : GIAO ZORA, VPT2 properties, NMR spectrum
   Ute Becker             : Parallelization
   Giovanni Bistoni       : ED, misc. LED, open-shell LED, HFLD
   Martin Brehm           : Molecular dynamics
   Dmytro Bykov           : SCF Hessian
   Vijay G. Chilkuri      : MRCI spin determinant printing, contributions to CSF-ICE
   Dipayan Datta          : RHF DLPNO-CCSD density
   Achintya Kumar Dutta   : EOM-CC, STEOM-CC
   Dmitry Ganyushin       : Spin-Orbit,Spin-Spin,Magnetic field MRCI
   Miquel Garcia          : C-PCM and meta-GGA Hessian, CC/C-PCM, Gaussian charge scheme
   Yang Guo               : DLPNO-NEVPT2, F12-NEVPT2, CIM, IAO-localization
   Andreas Hansen         : Spin unrestricted coupled pair/coupled cluster methods
   Benjamin Helmich-Paris : MC-RPA, TRAH-SCF, COSX integrals
   Lee Huntington         : MR-EOM, pCC
   Robert Izsak           : Overlap fitted RIJCOSX, COSX-SCS-MP3, EOM
   Marcus Kettner         : VPT2
   Christian Kollmar      : KDIIS, OOCD, Brueckner-CCSD(T), CCSD density, CASPT2, CASPT2-K
   Simone Kossmann        : Meta GGA functionals, TD-DFT gradient, OOMP2, MP2 Hessian
   Martin Krupicka        : Initial AUTO-CI
   Lucas Lang             : DCDCAS
   Marvin Lechner         : AUTO-CI (C++ implementation), FIC-MRCC
   Dagmar Lenk            : GEPOL surface, SMD
   Dimitrios Liakos       : Extrapolation schemes; Compound Job, initial MDCI parallelization
   Dimitrios Manganas     : Further ROCIS development; embedding schemes
   Dimitrios Pantazis     : SARC Basis sets
   Anastasios Papadopoulos: AUTO-CI, single reference methods and gradients
   Taras Petrenko         : DFT Hessian,TD-DFT gradient, ASA, ECA, R-Raman, ABS, FL, XAS/XES, NRVS
   Peter Pinski           : DLPNO-MP2, DLPNO-MP2 Gradient
   Christoph Reimann      : Effective Core Potentials
   Marius Retegan         : Local ZFS, SOC
   Christoph Riplinger    : Optimizer, TS searches, QM/MM, DLPNO-CCSD(T), (RO)-DLPNO pert. Triples
   Tobias Risthaus        : Range-separated hybrids, TD-DFT gradient, RPA, STAB
   Michael Roemelt        : Original ROCIS implementation
   Masaaki Saitow         : Open-shell DLPNO-CCSD energy and density
   Barbara Sandhoefer     : DKH picture change effects
   Avijit Sen             : IP-ROCIS
   Kantharuban Sivalingam : CASSCF convergence, NEVPT2, FIC-MRCI
   Bernardo de Souza      : ESD, SOC TD-DFT
   Georgi Stoychev        : AutoAux, RI-MP2 NMR, DLPNO-MP2 response
   Willem Van den Heuvel  : Paramagnetic NMR
   Boris Wezisla          : Elementary symmetry handling
   Frank Wennmohs         : Technical directorship


 We gratefully acknowledge several colleagues who have allowed us to
 interface, adapt or use parts of their codes:
   Stefan Grimme, W. Hujo, H. Kruse, P. Pracht,  : VdW corrections, initial TS optimization,
                  C. Bannwarth, S. Ehlert          DFT functionals, gCP, sTDA/sTD-DF
   Ed Valeev, F. Pavosevic, A. Kumar             : LibInt (2-el integral package), F12 methods
   Garnet Chan, S. Sharma, J. Yang, R. Olivares  : DMRG
   Ulf Ekstrom                                   : XCFun DFT Library
   Mihaly Kallay                                 : mrcc  (arbitrary order and MRCC methods)
   Jiri Pittner, Ondrej Demel                    : Mk-CCSD
   Frank Weinhold                                : gennbo (NPA and NBO analysis)
   Christopher J. Cramer and Donald G. Truhlar   : smd solvation model
   Lars Goerigk                                  : TD-DFT with DH, B97 family of functionals
   V. Asgeirsson, H. Jonsson                     : NEB implementation
   FAccTs GmbH                                   : IRC, NEB, NEB-TS, DLPNO-Multilevel, CI-OPT
                                                   MM, QMMM, 2- and 3-layer-ONIOM, Crystal-QMMM,
                                                   LR-CPCM, SF, NACMEs, symmetry and pop. for TD-DFT,
                                                   nearIR, NL-DFT gradient (VV10), updates on ESD,
                                                   ML-optimized integration grids
   S Lehtola, MJT Oliveira, MAL Marques          : LibXC Library
   Liviu Ungur et al                             : ANISO software


 Your calculation uses the libint2 library for the computation of 2-el integrals
 For citations please refer to: http://libint.valeyev.net

 Your ORCA version has been built with support for libXC version: 5.1.0
 For citations please refer to: https://tddft.org/programs/libxc/

 This ORCA versions uses:
   CBLAS   interface :  Fast vector & matrix operations
   LAPACKE interface :  Fast linear algebra routines
   SCALAPACK package :  Parallel linear algebra routines
   Shared memory     :  Shared parallel matrices
   BLAS/LAPACK       :  OpenBLAS 0.3.15  USE64BITINT DYNAMIC_ARCH NO_AFFINITY Zen SINGLE_THREADED
        Core in use  :  Zen
   Copyright (c) 2011-2014, The OpenBLAS Project


Your calculation utilizes the atom-pairwise dispersion correction
based on tight binding partial charges (D4)
Cite in your paper:
E.Caldeweyher, C.Bannwarth, S.Grimme, J.Chem.Phys., (2017), 147, 034112.
E.Caldeweyher, S.Ehlert, A.Hansen, H.Neugebauer, S.Grimme, J.Chem.Phys., (2018), in progress.
   

================================================================================

----- Orbital basis set information -----
Your calculation utilizes the basis: pcJ-0
   F. Jensen, Theor. Chem. Acc. 126, 371 (2010).

----- AuxJ basis set information -----
Your calculation utilizes the auxiliary basis: def2/J
   F. Weigend, Phys. Chem. Chem. Phys. 8, 1057 (2006).

================================================================================
                                        WARNINGS
                       Please study these warnings very carefully!
================================================================================


INFO   : the flag for use of the SHARK integral package has been found!

================================================================================
                                       INPUT FILE
================================================================================
NAME = inpJ
|  1> ! pbe0
|  2> ! D4
|  3> ! pcJ-0
|  4> ! def2/J RIJCOSX
|  5> ! DEFGRID2
|  6> ! scfconv7
|  7> ! smallprint printgap noloewdin
|  8> ! NOSOSCF
|  9> %MaxCore 4000
| 10> %output
| 11>        print[P_BondOrder_M] 1
| 12>        print[P_Mayer] 1
| 13>        print[P_basis] 2
| 14> end
| 15> %pal
| 16>     nprocs 4
| 17> end
| 18> ! CPCM(chloroform)
| 19> *xyz 0 1
| 20> C   -5.0120824500   0.3114420700   0.3401870100
| 21> C   -6.4244469800  -0.1014864500  -0.0009189300
| 22> C   -6.9662728700   0.6725424500  -1.2088887600
| 23> H   -7.0870956200   0.1204178000   0.8528694300
| 24> H   -6.4770098800  -1.1787051000  -0.1934565100
| 25> C   -4.8211603800   1.7722195000   0.4642086700
| 26> C   -5.4078354500   2.5783026700  -0.6726518000
| 27> C   -6.8588128700   2.1739267000  -0.9668672600
| 28> H   -4.8061662800   2.3936287600  -1.5755927100
| 29> H   -5.3428485800   3.6486380000  -0.4503742000
| 30> H   -7.2343396900   2.7171208800  -1.8420511300
| 31> H   -7.4969779500   2.4390100800  -0.1103808900
| 32> O   -8.3089856500   0.2770964100  -1.5188226500
| 33> H   -6.3802473500   0.4034970200  -2.0988570000
| 34> C   -4.0290684200  -0.6115044600   0.4646118400
| 35> C   -4.2218558000   2.3500389400   1.5115974400
| 36> H   -3.8286681000   1.7603081100   2.3349620300
| 37> H   -4.1217921100   3.4311636700   1.5719632900
| 38> C   -2.6271054000  -0.3471018700   0.6907939300
| 39> H   -4.3281032700  -1.6513068700   0.3396688300
| 40> C   -1.6587273700  -1.2680164300   0.8849130700
| 41> H   -2.3351729400   0.7005470100   0.6904551800
| 42> C   -1.8648602400  -2.7594689700   0.9615446900
| 43> C   -0.9360326400  -3.5143505100  -0.0077151800
| 44> H   -2.9045043800  -3.0454470600   0.7800890800
| 45> H   -1.6226990900  -3.0796888500   1.9876464000
| 46> C    0.5334120500  -3.0937388500   0.1322363300
| 47> H   -1.2748084200  -3.3401120900  -1.0368137200
| 48> H   -1.0276402300  -4.5925534600   0.1720378000
| 49> C    0.7080947400  -1.5743853200  -0.0027737900
| 50> H    1.1285977200  -3.6324521300  -0.6119733200
| 51> H    0.9047457000  -3.3991296000   1.1221519800
| 52> C   -0.2164084700  -0.9036899100   1.0629102900
| 53> H    0.1002424200  -1.3509349600   2.0233294700
| 54> C    0.2291577000   0.5547248300   1.0790488700
| 55> H   -8.8621317200   0.5033069500  -0.7591184600
| 56> C    1.7583746700   0.4697805200   0.8507963200
| 57> H   -0.0339592600   1.0562177200   2.0162749000
| 58> H   -0.2481388200   1.1153746000   0.2676764800
| 59> C    2.0819647400  -1.0014656000   0.4467841800
| 60> H    2.3180190700   0.7575908300   1.7463424000
| 61> H    2.0657865600   1.1578764600   0.0539602300
| 62> H    2.3702789300  -1.5572122100   1.3535918700
| 63> C    3.2812388300  -1.0864849200  -0.5285536400
| 64> C    0.3504189100  -1.0991063400  -1.4171709600
| 65> H   -0.7159009100  -1.2304834600  -1.6252582500
| 66> H    0.9126553600  -1.6631609800  -2.1693603300
| 67> H    0.5812959100  -0.0383173600  -1.5569916300
| 68> H    3.0086235300  -0.4960788400  -1.4196763500
| 69> C    3.5980633400  -2.5104698400  -0.9820067500
| 70> C    4.4675796300  -0.3913159200   0.0984288200
| 71> C    5.6209068100  -0.9580565400   0.4568809100
| 72> H    4.3302658600   0.6739622800   0.2781011200
| 73> H    5.7580983100  -2.0249998400   0.2837536700
| 74> C    6.7970903500  -0.2633645200   1.0927870800
| 75> C    6.5199784400   1.1832845100   1.5002902800
| 76> C    8.0776126900  -0.3755032000   0.2144313800
| 77> H    7.0302670800  -0.8234669100   2.0142684000
| 78> H    8.8691908100   0.1484420900   0.7716363800
| 79> C    7.9241769200   0.3047439700  -1.1474291400
| 80> C    8.5252767800  -1.8287253800   0.0338607800
| 81> H    5.6887891200   1.2376952500   2.2115305300
| 82> H    6.2629468200   1.8109759700   0.6408944400
| 83> H    7.4055096800   1.6163499700   1.9779350800
| 84> H    8.8540810800   0.2229923800  -1.7211592200
| 85> H    7.6826631500   1.3682574700  -1.0542545100
| 86> H    7.1259358000  -0.1727897700  -1.7280569900
| 87> H    7.8297041200  -2.3846745100  -0.6052443100
| 88> H    8.5933599700  -2.3493070400   0.9961677200
| 89> H    9.5106614800  -1.8683208400  -0.4434383700
| 90> H    4.5199624500  -2.5312243000  -1.5734747800
| 91> H    2.7967673600  -2.9114411300  -1.6056912000
| 92> H    3.7285272700  -3.1827554100  -0.1256978600
| 93> *
| 94> %eprnmr
| 95>  Nuclei = all H { ssfc }
| 96>  SpinSpinRThresh 8.0
| 97> end
| 98> 
| 99>                          ****END OF INPUT****
================================================================================

                       ****************************
                       * Single Point Calculation *
                       ****************************

---------------------------------
CARTESIAN COORDINATES (ANGSTROEM)
---------------------------------
  C     -5.012082    0.311442    0.340187
  C     -6.424447   -0.101486   -0.000919
  C     -6.966273    0.672542   -1.208889
  H     -7.087096    0.120418    0.852869
  H     -6.477010   -1.178705   -0.193457
  C     -4.821160    1.772219    0.464209
  C     -5.407835    2.578303   -0.672652
  C     -6.858813    2.173927   -0.966867
  H     -4.806166    2.393629   -1.575593
  H     -5.342849    3.648638   -0.450374
  H     -7.234340    2.717121   -1.842051
  H     -7.496978    2.439010   -0.110381
  O     -8.308986    0.277096   -1.518823
  H     -6.380247    0.403497   -2.098857
  C     -4.029068   -0.611504    0.464612
  C     -4.221856    2.350039    1.511597
  H     -3.828668    1.760308    2.334962
  H     -4.121792    3.431164    1.571963
  C     -2.627105   -0.347102    0.690794
  H     -4.328103   -1.651307    0.339669
  C     -1.658727   -1.268016    0.884913
  H     -2.335173    0.700547    0.690455
  C     -1.864860   -2.759469    0.961545
  C     -0.936033   -3.514351   -0.007715
  H     -2.904504   -3.045447    0.780089
  H     -1.622699   -3.079689    1.987646
  C      0.533412   -3.093739    0.132236
  H     -1.274808   -3.340112   -1.036814
  H     -1.027640   -4.592553    0.172038
  C      0.708095   -1.574385   -0.002774
  H      1.128598   -3.632452   -0.611973
  H      0.904746   -3.399130    1.122152
  C     -0.216408   -0.903690    1.062910
  H      0.100242   -1.350935    2.023329
  C      0.229158    0.554725    1.079049
  H     -8.862132    0.503307   -0.759118
  C      1.758375    0.469781    0.850796
  H     -0.033959    1.056218    2.016275
  H     -0.248139    1.115375    0.267676
  C      2.081965   -1.001466    0.446784
  H      2.318019    0.757591    1.746342
  H      2.065787    1.157876    0.053960
  H      2.370279   -1.557212    1.353592
  C      3.281239   -1.086485   -0.528554
  C      0.350419   -1.099106   -1.417171
  H     -0.715901   -1.230483   -1.625258
  H      0.912655   -1.663161   -2.169360
  H      0.581296   -0.038317   -1.556992
  H      3.008624   -0.496079   -1.419676
  C      3.598063   -2.510470   -0.982007
  C      4.467580   -0.391316    0.098429
  C      5.620907   -0.958057    0.456881
  H      4.330266    0.673962    0.278101
  H      5.758098   -2.025000    0.283754
  C      6.797090   -0.263365    1.092787
  C      6.519978    1.183285    1.500290
  C      8.077613   -0.375503    0.214431
  H      7.030267   -0.823467    2.014268
  H      8.869191    0.148442    0.771636
  C      7.924177    0.304744   -1.147429
  C      8.525277   -1.828725    0.033861
  H      5.688789    1.237695    2.211531
  H      6.262947    1.810976    0.640894
  H      7.405510    1.616350    1.977935
  H      8.854081    0.222992   -1.721159
  H      7.682663    1.368257   -1.054255
  H      7.125936   -0.172790   -1.728057
  H      7.829704   -2.384675   -0.605244
  H      8.593360   -2.349307    0.996168
  H      9.510661   -1.868321   -0.443438
  H      4.519962   -2.531224   -1.573475
  H      2.796767   -2.911441   -1.605691
  H      3.728527   -3.182755   -0.125698

----------------------------
CARTESIAN COORDINATES (A.U.)
----------------------------
  NO LB      ZA    FRAG     MASS         X           Y           Z
   0 C     6.0000    0    12.011   -9.471463    0.588540    0.642860
   1 C     6.0000    0    12.011  -12.140445   -0.191782   -0.001737
   2 C     6.0000    0    12.011  -13.164348    1.270921   -2.284469
   3 H     1.0000    0     1.008  -13.392670    0.227557    1.611690
   4 H     1.0000    0     1.008  -12.239775   -2.227430   -0.365580
   5 C     6.0000    0    12.011   -9.110673    3.349010    0.877227
   6 C     6.0000    0    12.011  -10.219328    4.872286   -1.271128
   7 C     6.0000    0    12.011  -12.961278    4.108126   -1.827114
   8 H     1.0000    0     1.008   -9.082338    4.523303   -2.977439
   9 H     1.0000    0     1.008  -10.096521    6.894927   -0.851084
  10 H     1.0000    0     1.008  -13.670921    5.134614   -3.480972
  11 H     1.0000    0     1.008  -14.167235    4.609061   -0.208590
  12 O     8.0000    0    15.999  -15.701707    0.523636   -2.870159
  13 H     1.0000    0     1.008  -12.056920    0.762499   -3.966265
  14 C     6.0000    0    12.011   -7.613836   -1.155576    0.877989
  15 C     6.0000    0    12.011   -7.978151    4.440930    2.856505
  16 H     1.0000    0     1.008   -7.235134    3.326500    4.412439
  17 H     1.0000    0     1.008   -7.789058    6.483960    2.970580
  18 C     6.0000    0    12.011   -4.964510   -0.655927    1.305411
  19 H     1.0000    0     1.008   -8.178930   -3.120518    0.641881
  20 C     6.0000    0    12.011   -3.134540   -2.396204    1.672243
  21 H     1.0000    0     1.008   -4.412837    1.323842    1.304771
  22 C     6.0000    0    12.011   -3.524075   -5.214641    1.817056
  23 C     6.0000    0    12.011   -1.768845   -6.641160   -0.014580
  24 H     1.0000    0     1.008   -5.488718   -5.755061    1.474155
  25 H     1.0000    0     1.008   -3.066457   -5.819769    3.756107
  26 C     6.0000    0    12.011    1.008003   -5.846319    0.249890
  27 H     1.0000    0     1.008   -2.409039   -6.311897   -1.959294
  28 H     1.0000    0     1.008   -1.941959   -8.678668    0.325104
  29 C     6.0000    0    12.011    1.338105   -2.975157   -0.005242
  30 H     1.0000    0     1.008    2.132741   -6.864340   -1.156462
  31 H     1.0000    0     1.008    1.709722   -6.423424    2.120560
  32 C     6.0000    0    12.011   -0.408953   -1.707726    2.008609
  33 H     1.0000    0     1.008    0.189431   -2.552897    3.823539
  34 C     6.0000    0    12.011    0.433045    1.048278    2.039107
  35 H     1.0000    0     1.008  -16.747002    0.951112   -1.434526
  36 C     6.0000    0    12.011    3.322847    0.887757    1.607772
  37 H     1.0000    0     1.008   -0.064174    1.995962    3.810207
  38 H     1.0000    0     1.008   -0.468914    2.107753    0.505835
  39 C     6.0000    0    12.011    3.934343   -1.892496    0.844300
  40 H     1.0000    0     1.008    4.380421    1.431639    3.300109
  41 H     1.0000    0     1.008    3.903771    2.188069    0.101970
  42 H     1.0000    0     1.008    4.479178   -2.942705    2.557918
  43 C     6.0000    0    12.011    6.200643   -2.053159   -0.998822
  44 C     6.0000    0    12.011    0.662196   -2.077010   -2.678065
  45 H     1.0000    0     1.008   -1.352857   -2.325277   -3.071293
  46 H     1.0000    0     1.008    1.724669   -3.142919   -4.099497
  47 H     1.0000    0     1.008    1.098490   -0.072409   -2.942288
  48 H     1.0000    0     1.008    5.685475   -0.937453   -2.682800
  49 C     6.0000    0    12.011    6.799354   -4.744100   -1.855724
  50 C     6.0000    0    12.011    8.442502   -0.739480    0.186004
  51 C     6.0000    0    12.011   10.621974   -1.810464    0.863380
  52 H     1.0000    0     1.008    8.183017    1.273604    0.525535
  53 H     1.0000    0     1.008   10.881229   -3.826695    0.536217
  54 C     6.0000    0    12.011   12.844639   -0.497687    2.065068
  55 C     6.0000    0    12.011   12.320974    2.236084    2.835138
  56 C     6.0000    0    12.011   15.264476   -0.709598    0.405217
  57 H     1.0000    0     1.008   13.285279   -1.556127    3.806416
  58 H     1.0000    0     1.008   16.760342    0.280515    1.458181
  59 C     6.0000    0    12.011   14.974524    0.575883   -2.168327
  60 C     6.0000    0    12.011   16.110438   -3.455790    0.063988
  61 H     1.0000    0     1.008   10.750253    2.338905    4.179187
  62 H     1.0000    0     1.008   11.835254    3.422249    1.211115
  63 H     1.0000    0     1.008   13.994385    3.054459    3.737756
  64 H     1.0000    0     1.008   16.731788    0.421395   -3.252520
  65 H     1.0000    0     1.008   14.518129    2.585632   -1.992252
  66 H     1.0000    0     1.008   13.466067   -0.326525   -3.265554
  67 H     1.0000    0     1.008   14.795996   -4.506382   -1.143746
  68 H     1.0000    0     1.008   16.239097   -4.439547    1.882484
  69 H     1.0000    0     1.008   17.972546   -3.530615   -0.837977
  70 H     1.0000    0     1.008    8.541491   -4.783321   -2.973436
  71 H     1.0000    0     1.008    5.285124   -5.501826   -3.034317
  72 H     1.0000    0     1.008    7.045895   -6.014536   -0.237535

--------------------------------
INTERNAL COORDINATES (ANGSTROEM)
--------------------------------
 C      0   0   0     0.000000000000     0.00000000     0.00000000
 C      1   0   0     1.510508785322     0.00000000     0.00000000
 C      2   1   0     1.533586366430   111.73104209     0.00000000
 H      2   1   3     1.103312865842   109.38071411   241.45811419
 H      2   1   3     1.095551732268   110.69198691   122.87586827
 C      1   2   3     1.478412428573   114.19243610    50.52236549
 C      6   1   2     1.512087776211   114.42851293   312.05450817
 C      3   2   1     1.524557878275   110.31007767   304.98369857
 H      7   6   1     1.100641871871   108.37629794   289.91998171
 H      7   6   1     1.095101978530   110.20658340   172.72946284
 H      8   3   2     1.096369972242   109.69737689   179.13789844
 H      8   3   2     1.100496601394   108.65630219   296.58214192
 O      3   2   1     1.433636703038   111.22098849   180.28918982
 H      3   2   1     1.099024486399   109.01990256    65.12218476
 C      1   2   3     1.354115363895   120.87735831   232.72565478
 C      6   1   2     1.337932928204   123.38351662   129.86175154
 H     16   6   1     1.086419931403   121.39754687     0.65517953
 H     16   6   1     1.087422392505   120.93395815   181.34259505
 C     15   1   2     1.444495544086   126.45559547   175.24858195
 H     15   1   2     1.089138030327   116.15842168   357.93451612
 C     19  15   1     1.350378419674   126.41869123   176.25261644
 H     19  15   1     1.087562803574   115.89984846   355.48151309
 C     21  19  15     1.507578802037   125.72728589   357.22957686
 C     23  21  19     1.540140105817   111.74312654   127.58812980
 H     23  21  19     1.093421027874   112.35335038     3.48379048
 H     23  21  19     1.101847318543   107.74603531   246.22613929
 C     24  23  21     1.534851227529   112.68585423    50.91999520
 H     24  23  21     1.097347648263   109.03720611   288.82807786
 H     24  23  21     1.096915988466   109.16451401   172.85523473
 C     27  24  23     1.535310041591   111.84534724   306.10181100
 H     27  24  23     1.094671632488   108.88621696   182.51676589
 H     27  24  23     1.100493154873   109.20923504    66.06418524
 C     21  19  15     1.498232502918   122.79243106   177.68899485
 H     33  21  19     1.105758075801   106.29079727   124.25040310
 C     33  21  19     1.525045317183   121.00187182     2.04992447
 H     13   3   2     0.966587936748   107.54792590    62.68097515
 C     35  33  21     1.548489361836   103.56275120   196.46980612
 H     35  33  21     1.095042594911   112.13642355    74.48721900
 H     35  33  21     1.095657468308   110.74647048   314.85605193
 C     30  27  24     1.554946349832   116.08627377   166.20880661
 H     37  35  33     1.094549866565   111.71003647   249.06167648
 H     37  35  33     1.096779762343   110.45513586   130.55669970
 H     40  30  27     1.101943534545   106.45539484   320.66886157
 C     40  30  27     1.548150668004   118.82024099    81.02307169
 C     30  27  24     1.534386347274   111.16595250   294.33627715
 H     45  30  27     1.094348311299   111.42162903    66.59661731
 H     45  30  27     1.095470817026   110.72061219   306.47596207
 H     45  30  27     1.094590000401   111.63961460   186.56662428
 H     44  40  30     1.103176379992   106.74312335    62.02458523
 C     44  40  30     1.527655244318   113.50628562   303.06064565
 C     44  40  30     1.511215218774   108.75230415   176.49122869
 C     51  44  40     1.334108846875   126.49166806   115.90245955
 H     51  44  40     1.089015541769   114.79965793   296.99494494
 H     52  51  44     1.089569894186   118.82561940     0.75298716
 C     52  51  44     1.506778477236   126.32431495   180.56598117
 C     55  52  51     1.528281153674   114.04220589     8.03444986
 C     55  52  51     1.556862640863   111.76063851   240.32462598
 H     55  52  51     1.103274171639   106.46374888   126.06944480
 H     57  55  52     1.100723398044   105.76021328   180.68995614
 C     57  55  52     1.530013994623   112.80958899    62.69900590
 C     57  55  52     1.531294740899   112.04520129   297.55706791
 H     56  55  52     1.095307677107   110.96307086    58.84708387
 H     56  55  52     1.094816437786   112.08431330   298.46864073
 H     56  55  52     1.095379306281   110.11609483   178.49401400
 H     60  57  55     1.095705833675   110.35211358   178.62425313
 H     60  57  55     1.094564469302   112.23135631    58.47371218
 H     60  57  55     1.096519976422   110.53034442   297.94989383
 H     61  57  55     1.096063901673   111.38277706    70.13297096
 H     61  57  55     1.096209483749   111.42733167   309.35162791
 H     61  57  55     1.095611831826   110.40173438   189.31245470
 H     50  44  40     1.095519578620   110.63670544   186.60048612
 H     50  44  40     1.091712194738   111.08270453    67.17130576
 H     50  44  40     1.096473273616   111.36995257   306.79632345

---------------------------
INTERNAL COORDINATES (A.U.)
---------------------------
 C      0   0   0     0.000000000000     0.00000000     0.00000000
 C      1   0   0     2.854447927141     0.00000000     0.00000000
 C      2   1   0     2.898058235268   111.73104209     0.00000000
 H      2   1   3     2.084959156474   109.38071411   241.45811419
 H      2   1   3     2.070292739530   110.69198691   122.87586827
 C      1   2   3     2.793794602989   114.19243610    50.52236549
 C      6   1   2     2.857431787488   114.42851293   312.05450817
 C      3   2   1     2.880996865252   110.31007767   304.98369857
 H      7   6   1     2.079911709362   108.37629794   289.91998171
 H      7   6   1     2.069442828137   110.20658340   172.72946284
 H      8   3   2     2.071838988992   109.69737689   179.13789844
 H      8   3   2     2.079637187945   108.65630219   296.58214192
 O      3   2   1     2.709180744280   111.22098849   180.28918982
 H      3   2   1     2.076855293767   109.01990256    65.12218476
 C      1   2   3     2.558907191497   120.87735831   232.72565478
 C      6   1   2     2.528326819861   123.38351662   129.86175154
 H     16   6   1     2.053036136785   121.39754687     0.65517953
 H     16   6   1     2.054930513727   120.93395815   181.34259505
 C     15   1   2     2.729700979991   126.45559547   175.24858195
 H     15   1   2     2.058172599356   116.15842168   357.93451612
 C     19  15   1     2.551845390341   126.41869123   176.25261644
 H     19  15   1     2.055195852195   115.89984846   355.48151309
 C     21  19  15     2.848911061155   125.72728589   357.22957686
 C     23  21  19     2.910443007863   111.74312654   127.58812980
 H     23  21  19     2.066266291752   112.35335038     3.48379048
 H     23  21  19     2.082189673443   107.74603531   246.22613929
 C     24  23  21     2.900448476343   112.68585423    50.91999520
 H     24  23  21     2.073686528920   109.03720611   288.82807786
 H     24  23  21     2.072870810121   109.16451401   172.85523473
 C     27  24  23     2.901315509267   111.84534724   306.10181100
 H     27  24  23     2.068629591976   108.88621696   182.51676589
 H     27  24  23     2.079630674965   109.20923504    66.06418524
 C     21  19  15     2.831249115455   122.79243106   177.68899485
 H     33  21  19     2.089579933636   106.29079727   124.25040310
 C     33  21  19     2.881917991295   121.00187182     2.04992447
 H     13   3   2     1.826586484806   107.54792590    62.68097515
 C     35  33  21     2.926220815160   103.56275120   196.46980612
 H     35  33  21     2.069330609361   112.13642355    74.48721900
 H     35  33  21     2.070492551688   110.74647048   314.85605193
 C     30  27  24     2.938422754123   116.08627377   166.20880661
 H     37  35  33     2.068399487728   111.71003647   249.06167648
 H     37  35  33     2.072613380055   110.45513586   130.55669970
 H     40  30  27     2.082371495335   106.45539484   320.66886157
 C     40  30  27     2.925580776575   118.82024099    81.02307169
 C     30  27  24     2.899569979975   111.16595250   294.33627715
 H     45  30  27     2.068018603475   111.42162903    66.59661731
 H     45  30  27     2.070139831882   110.72061219   306.47596207
 H     45  30  27     2.068475329686   111.63961460   186.56662428
 H     44  40  30     2.084701235596   106.74312335    62.02458523
 C     44  40  30     2.886850038810   113.50628562   303.06064565
 C     44  40  30     2.855782892896   108.75230415   176.49122869
 C     51  44  40     2.521100353435   126.49166806   115.90245955
 H     51  44  40     2.057941129527   114.79965793   296.99494494
 H     52  51  44     2.058988703778   118.82561940     0.75298716
 C     52  51  44     2.847398666464   126.32431495   180.56598117
 C     55  52  51     2.888032836076   114.04220589     8.03444986
 C     55  52  51     2.942044019364   111.76063851   240.32462598
 H     55  52  51     2.084886035027   106.46374888   126.06944480
 H     57  55  52     2.080065771502   105.76021328   180.68995614
 C     57  55  52     2.891307430905   112.80958899    62.69900590
 C     57  55  52     2.893727690612   112.04520129   297.55706791
 H     56  55  52     2.069831542114   110.96307086    58.84708387
 H     56  55  52     2.068903234330   112.08431330   298.46864073
 H     56  55  52     2.069966901635   110.11609483   178.49401400
 H     60  57  55     2.070583948986   110.35211358   178.62425313
 H     60  57  55     2.068427082901   112.23135631    58.47371218
 H     60  57  55     2.072122455812   110.53034442   297.94989383
 H     61  57  55     2.071260599440   111.38277706    70.13297096
 H     61  57  55     2.071535709693   111.42733167   309.35162791
 H     61  57  55     2.070406311235   110.40173438   189.31245470
 H     50  44  40     2.070231977941   110.63670544   186.60048612
 H     50  44  40     2.063037065117   111.08270453    67.17130576
 H     50  44  40     2.072034200298   111.36995257   306.79632345

---------------------
BASIS SET INFORMATION
---------------------
There are 3 groups of distinct atoms

 Group   1 Type C   : 7s4p contracted to 4s3p pattern {4111/211}
 Group   2 Type H   : 5s contracted to 3s pattern {311}
 Group   3 Type O   : 7s4p contracted to 4s3p pattern {4111/211}

Atom   0C    basis set group =>   1
Atom   1C    basis set group =>   1
Atom   2C    basis set group =>   1
Atom   3H    basis set group =>   2
Atom   4H    basis set group =>   2
Atom   5C    basis set group =>   1
Atom   6C    basis set group =>   1
Atom   7C    basis set group =>   1
Atom   8H    basis set group =>   2
Atom   9H    basis set group =>   2
Atom  10H    basis set group =>   2
Atom  11H    basis set group =>   2
Atom  12O    basis set group =>   3
Atom  13H    basis set group =>   2
Atom  14C    basis set group =>   1
Atom  15C    basis set group =>   1
Atom  16H    basis set group =>   2
Atom  17H    basis set group =>   2
Atom  18C    basis set group =>   1
Atom  19H    basis set group =>   2
Atom  20C    basis set group =>   1
Atom  21H    basis set group =>   2
Atom  22C    basis set group =>   1
Atom  23C    basis set group =>   1
Atom  24H    basis set group =>   2
Atom  25H    basis set group =>   2
Atom  26C    basis set group =>   1
Atom  27H    basis set group =>   2
Atom  28H    basis set group =>   2
Atom  29C    basis set group =>   1
Atom  30H    basis set group =>   2
Atom  31H    basis set group =>   2
Atom  32C    basis set group =>   1
Atom  33H    basis set group =>   2
Atom  34C    basis set group =>   1
Atom  35H    basis set group =>   2
Atom  36C    basis set group =>   1
Atom  37H    basis set group =>   2
Atom  38H    basis set group =>   2
Atom  39C    basis set group =>   1
Atom  40H    basis set group =>   2
Atom  41H    basis set group =>   2
Atom  42H    basis set group =>   2
Atom  43C    basis set group =>   1
Atom  44C    basis set group =>   1
Atom  45H    basis set group =>   2
Atom  46H    basis set group =>   2
Atom  47H    basis set group =>   2
Atom  48H    basis set group =>   2
Atom  49C    basis set group =>   1
Atom  50C    basis set group =>   1
Atom  51C    basis set group =>   1
Atom  52H    basis set group =>   2
Atom  53H    basis set group =>   2
Atom  54C    basis set group =>   1
Atom  55C    basis set group =>   1
Atom  56C    basis set group =>   1
Atom  57H    basis set group =>   2
Atom  58H    basis set group =>   2
Atom  59C    basis set group =>   1
Atom  60C    basis set group =>   1
Atom  61H    basis set group =>   2
Atom  62H    basis set group =>   2
Atom  63H    basis set group =>   2
Atom  64H    basis set group =>   2
Atom  65H    basis set group =>   2
Atom  66H    basis set group =>   2
Atom  67H    basis set group =>   2
Atom  68H    basis set group =>   2
Atom  69H    basis set group =>   2
Atom  70H    basis set group =>   2
Atom  71H    basis set group =>   2
Atom  72H    basis set group =>   2

-------------------------
BASIS SET IN INPUT FORMAT
-------------------------

 # Basis set for element : H 
 NewGTO H 
 S 3 
   1    1357.7500000000      0.0012928364
   2      54.3100000000      0.0588280685
   3       4.3448000000      0.9761499708
 S 1 
   1       0.6604910000      1.0000000000
 S 1 
   1       0.1366870000      1.0000000000
  end;

 # Basis set for element : C 
 NewGTO C 
 S 4 
   1  139534.0000000000      0.0001655246
   2    5581.3600000000      0.0074486101
   3     446.5090000000      0.1285821065
   4      67.4620000000      0.9218029311
 S 1 
   1      15.0674000000      1.0000000000
 S 1 
   1       3.9387600000      1.0000000000
 S 1 
   1       0.2999150000      1.0000000000
 P 2 
   1      28.3900000000      0.0816325586
   2       4.3676900000      0.9660360576
 P 1 
   1       0.8698170000      1.0000000000
 P 1 
   1       0.1889340000      1.0000000000
  end;

 # Basis set for element : O 
 NewGTO O 
 S 4 
   1  253789.0000000000      0.0001641076
   2   10151.6000000000      0.0074010921
   3     812.1250000000      0.1277711901
   4     122.6930000000      0.9223372164
 S 1 
   1      27.5608000000      1.0000000000
 S 1 
   1       7.3172600000      1.0000000000
 S 1 
   1       0.5792400000      1.0000000000
 P 2 
   1      53.4157000000      0.0793786106
   2       8.2177900000      0.9670506337
 P 1 
   1       1.6754400000      1.0000000000
 P 1 
   1       0.3506720000      1.0000000000
  end;

---------------------------------
AUXILIARY/J BASIS SET INFORMATION
---------------------------------
There are 3 groups of distinct atoms

 Group   1 Type C   : 12s5p4d2f1g contracted to 6s4p3d1f1g pattern {711111/2111/211/2/1}
 Group   2 Type H   : 5s2p1d contracted to 3s1p1d pattern {311/2/1}
 Group   3 Type O   : 12s5p4d2f1g contracted to 6s4p3d1f1g pattern {711111/2111/211/2/1}

Atom   0C    basis set group =>   1
Atom   1C    basis set group =>   1
Atom   2C    basis set group =>   1
Atom   3H    basis set group =>   2
Atom   4H    basis set group =>   2
Atom   5C    basis set group =>   1
Atom   6C    basis set group =>   1
Atom   7C    basis set group =>   1
Atom   8H    basis set group =>   2
Atom   9H    basis set group =>   2
Atom  10H    basis set group =>   2
Atom  11H    basis set group =>   2
Atom  12O    basis set group =>   3
Atom  13H    basis set group =>   2
Atom  14C    basis set group =>   1
Atom  15C    basis set group =>   1
Atom  16H    basis set group =>   2
Atom  17H    basis set group =>   2
Atom  18C    basis set group =>   1
Atom  19H    basis set group =>   2
Atom  20C    basis set group =>   1
Atom  21H    basis set group =>   2
Atom  22C    basis set group =>   1
Atom  23C    basis set group =>   1
Atom  24H    basis set group =>   2
Atom  25H    basis set group =>   2
Atom  26C    basis set group =>   1
Atom  27H    basis set group =>   2
Atom  28H    basis set group =>   2
Atom  29C    basis set group =>   1
Atom  30H    basis set group =>   2
Atom  31H    basis set group =>   2
Atom  32C    basis set group =>   1
Atom  33H    basis set group =>   2
Atom  34C    basis set group =>   1
Atom  35H    basis set group =>   2
Atom  36C    basis set group =>   1
Atom  37H    basis set group =>   2
Atom  38H    basis set group =>   2
Atom  39C    basis set group =>   1
Atom  40H    basis set group =>   2
Atom  41H    basis set group =>   2
Atom  42H    basis set group =>   2
Atom  43C    basis set group =>   1
Atom  44C    basis set group =>   1
Atom  45H    basis set group =>   2
Atom  46H    basis set group =>   2
Atom  47H    basis set group =>   2
Atom  48H    basis set group =>   2
Atom  49C    basis set group =>   1
Atom  50C    basis set group =>   1
Atom  51C    basis set group =>   1
Atom  52H    basis set group =>   2
Atom  53H    basis set group =>   2
Atom  54C    basis set group =>   1
Atom  55C    basis set group =>   1
Atom  56C    basis set group =>   1
Atom  57H    basis set group =>   2
Atom  58H    basis set group =>   2
Atom  59C    basis set group =>   1
Atom  60C    basis set group =>   1
Atom  61H    basis set group =>   2
Atom  62H    basis set group =>   2
Atom  63H    basis set group =>   2
Atom  64H    basis set group =>   2
Atom  65H    basis set group =>   2
Atom  66H    basis set group =>   2
Atom  67H    basis set group =>   2
Atom  68H    basis set group =>   2
Atom  69H    basis set group =>   2
Atom  70H    basis set group =>   2
Atom  71H    basis set group =>   2
Atom  72H    basis set group =>   2

-------------------------------------
AUXILIARY/J BASIS SET IN INPUT FORMAT
-------------------------------------

 # Auxiliary/J basis set for element : H 
 NewAuxJGTO H 
 S 3 
   1      15.6752927000      0.1007184237
   2       3.6063578000      0.3404257499
   3       1.2080016000      0.6491996172
 S 1 
   1       0.4726794000      1.0000000000
 S 1 
   1       0.2018100000      1.0000000000
 P 2 
   1       2.0281365000      0.5596620919
   2       0.5358730000      0.5596620919
 D 1 
   1       2.2165124000      1.0000000000
  end;

 # Auxiliary/J basis set for element : C 
 NewAuxJGTO C 
 S 7 
   1    1861.0916331000      0.0134602335
   2     642.9939764000      0.0299160374
   3     235.1105725000      0.1008649584
   4      90.7028894000      0.2370970548
   5      36.7794552000      0.3924037254
   6      15.6046273000      0.3195862154
   7       6.8907294000      0.0530104441
 S 1 
   1       3.1478850000     -1.0000000000
 S 1 
   1       1.4777287000      1.0000000000
 S 1 
   1       0.7076466000      1.0000000000
 S 1 
   1       0.3430122000      1.0000000000
 S 1 
   1       0.1669453000      1.0000000000
 P 2 
   1      13.5472892000     -0.6769313712
   2       5.4669419000     -0.3779500978
 P 1 
   1       2.1751721000      1.0000000000
 P 1 
   1       0.8582194000      1.0000000000
 P 1 
   1       0.3376720000      1.0000000000
 D 2 
   1       5.9287253000     -0.3533329857
   2       1.9809209000     -0.7456525731
 D 1 
   1       0.8055417000     -1.0000000000
 D 1 
   1       0.3531244000     -1.0000000000
 F 2 
   1       1.6755626000      0.6311076882
   2       0.5997536000      0.4968166032
 G 1 
   1       1.0024600000     -1.0000000000
  end;

 # Auxiliary/J basis set for element : O 
 NewAuxJGTO O 
 S 7 
   1    2876.8216605000      0.0168151159
   2    1004.7443032000      0.0340137548
   3     369.7579954000      0.1194951309
   4     142.9442404000      0.2664627624
   5      57.8366425000      0.4202764046
   6      24.3864983000      0.2765077335
   7      10.6622662000      0.0057008815
 S 1 
   1       4.8070437000     -1.0000000000
 S 1 
   1       2.2210770000      1.0000000000
 S 1 
   1       1.0447795000      1.0000000000
 S 1 
   1       0.4968425000      1.0000000000
 S 1 
   1       0.2371384000      1.0000000000
 P 2 
   1      64.2613382000     -0.2731534179
   2      16.3006076000     -0.8168011598
 P 1 
   1       4.3550542000      1.0000000000
 P 1 
   1       1.2019554000      1.0000000000
 P 1 
   1       0.3354196000      1.0000000000
 D 2 
   1       9.2146611000     -0.4661230638
   2       2.8435251000     -0.6600908911
 D 1 
   1       0.9955759000     -1.0000000000
 D 1 
   1       0.3649441000     -1.0000000000
 F 2 
   1       2.6420115000      0.5931563945
   2       0.7345613000      0.5931563945
 G 1 
   1       1.3931000000     -1.0000000000
  end;



           ************************************************************
           *        Program running with 4 parallel MPI-processes     *
           *              working on a common directory               *
           ************************************************************
------------------------------------------------------------------------------
                           ORCA GTO INTEGRAL CALCULATION
                           -- RI-GTO INTEGRALS CHOSEN --
------------------------------------------------------------------------------
------------------------------------------------------------------------------
                   ___                                                        
                  /   \      - P O W E R E D   B Y -                         
                 /     \                                                     
                 |  |  |   _    _      __       _____    __    __             
                 |  |  |  | |  | |    /  \     |  _  \  |  |  /  |          
                  \  \/   | |  | |   /    \    | | | |  |  | /  /          
                 / \  \   | |__| |  /  /\  \   | |_| |  |  |/  /          
                |  |  |   |  __  | /  /__\  \  |    /   |      \           
                |  |  |   | |  | | |   __   |  |    \   |  |\   \          
                \     /   | |  | | |  |  |  |  | |\  \  |  | \   \       
                 \___/    |_|  |_| |__|  |__|  |_| \__\ |__|  \__/        
                                                                              
                      - O R C A' S   B I G   F R I E N D -                    
                                      &                                       
                       - I N T E G R A L  F E E D E R -                       
                                                                              
 v1 FN, 2020, v2 2021                                                         
------------------------------------------------------------------------------


Reading SHARK input file inpJ.SHARKINP.tmp ... ok
----------------------
SHARK INTEGRAL PACKAGE
----------------------

Number of atoms                             ...     73
Number of basis functions                   ...    509
Number of shells                            ...    335
Maximum angular momentum                    ...      1
Integral batch strategy                     ... SHARK/LIBINT Hybrid
RI-J (if used) integral strategy            ... SPLIT-RIJ (Revised 2003 algorithm where possible)
Printlevel                                  ...      1
Contraction scheme used                     ... SEGMENTED contraction
Coulomb Range Separation                    ... NOT USED
Exchange Range Separation                   ... NOT USED
Finite Nucleus Model                        ... NOT USED
Auxiliary Coulomb fitting basis             ... AVAILABLE
   # of basis functions in Aux-J            ...   1905
   # of shells in Aux-J                     ...    655
   Maximum angular momentum in Aux-J        ...      4
Auxiliary J/K fitting basis                 ... NOT available
Auxiliary Correlation fitting basis         ... NOT available
Auxiliary 'external' fitting basis          ... NOT available
Integral threshold                          ...     3.000000e-11
Primitive cut-off                           ...     1.000000e-12
Primitive pair pre-selection threshold      ...     1.000000e-12

Calculating pre-screening integrals         ... done (  0.0 sec) Dimension = 335
Organizing shell pair data                  ... done (  0.1 sec)
Shell pair information
Total number of shell pairs                 ...     56280
Shell pairs after pre-screening             ...     21577
Total number of primitive shell pairs       ...    145865
Primitive shell pairs kept                  ...     37105
          la=0 lb=0:  10863 shell pairs
          la=1 lb=0:   8870 shell pairs
          la=1 lb=1:   1844 shell pairs

Calculating one electron integrals          ... done (  0.0 sec)
Calculating RI/J V-Matrix + Cholesky decomp.... done (  0.2 sec)
Calculating Nuclear repulsion               ... done (  0.0 sec) ENN=   2755.532495689805 Eh

SHARK setup successfully completed in   0.4 seconds

Maximum memory used throughout the entire GTOINT-calculation: 46.1 MB


           ************************************************************
           *        Program running with 4 parallel MPI-processes     *
           *              working on a common directory               *
           ************************************************************
-------------------------------------------------------------------------------
                                 ORCA SCF
-------------------------------------------------------------------------------

------------
SCF SETTINGS
------------
Hamiltonian:
 Density Functional     Method          .... DFT(GTOs)
 Exchange Functional    Exchange        .... PBE
   PBE kappa parameter   XKappa         ....  0.804000
   PBE mue parameter    XMuePBE         ....  0.219520
 Correlation Functional Correlation     .... PBE
   PBE beta parameter  CBetaPBE         ....  0.066725
 LDA part of GGA corr.  LDAOpt          .... PW91-LDA
 Gradients option       PostSCFGGA      .... off
 Hybrid DFT is turned on
   Fraction HF Exchange ScalHFX         ....  0.250000
   Scaling of DF-GGA-X  ScalDFX         ....  0.750000
   Scaling of DF-GGA-C  ScalDFC         ....  1.000000
   Scaling of DF-LDA-C  ScalLDAC        ....  1.000000
   Perturbative correction              ....  0.000000
   Density functional embedding theory  .... OFF
   NL short-range parameter             ....  6.900000
 RI-approximation to the Coulomb term is turned on
   Number of AuxJ basis functions       .... 1905
   RIJ-COSX (HFX calculated with COS-X)).... on


General Settings:
 Integral files         IntName         .... inpJ
 Hartree-Fock type      HFTyp           .... RHF
 Total Charge           Charge          ....    0
 Multiplicity           Mult            ....    1
 Number of Electrons    NEL             ....  220
 Basis Dimension        Dim             ....  509
 Nuclear Repulsion      ENuc            ....   2755.5324956898 Eh

Convergence Acceleration:
 DIIS                   CNVDIIS         .... on
   Start iteration      DIISMaxIt       ....    12
   Startup error        DIISStart       ....  0.200000
   # of expansion vecs  DIISMaxEq       ....     5
   Bias factor          DIISBfac        ....   1.050
   Max. coefficient     DIISMaxC        ....  10.000
 Trust-Rad. Augm. Hess. CNVTRAH         .... auto
   Auto Start mean grad. ratio tolernc. ....  1.125000
   Auto Start start iteration           ....    20
   Auto Start num. interpolation iter.  ....    10
   Max. Number of Micro iterations      ....    16
   Max. Number of Macro iterations      .... Maxiter - #DIIS iter
   Number of Davidson start vectors     ....     2
   Converg. threshold I  (grad. norm)   ....   1.000e-04
   Converg. threshold II (energy diff.) ....   1.000e-07
   Grad. Scal. Fac. for Micro threshold ....   0.100
   Minimum threshold for Micro iter.    ....   0.010
   NR start threshold (gradient norm)   ....   0.001
   Initial trust radius                 ....   0.400
   Minimum AH scaling param. (alpha)    ....   1.000
   Maximum AH scaling param. (alpha)    .... 1000.000
   Orbital update algorithm             .... Taylor
   White noise on init. David. guess    .... on
   Maximum white noise                  ....   0.010
   Quad. conv. algorithm                .... NR
 SOSCF                  CNVSOSCF        .... off
 Level Shifting         CNVShift        .... on
   Level shift para.    LevelShift      ....    0.2500
   Turn off err/grad.   ShiftErr        ....    0.0010
 Zerner damping         CNVZerner       .... off
 Static damping         CNVDamp         .... on
   Fraction old density DampFac         ....    0.7000
   Max. Damping (<1)    DampMax         ....    0.9800
   Min. Damping (>=0)   DampMin         ....    0.0000
   Turn off err/grad.   DampErr         ....    0.1000
 Fernandez-Rico         CNVRico         .... off

SCF Procedure:
 Maximum # iterations   MaxIter         ....   125
 SCF integral mode      SCFMode         .... Direct
   Integral package                     .... SHARK and LIBINT hybrid scheme
 Reset frequency        DirectResetFreq ....    20
 Integral Threshold     Thresh          ....  3.000e-11 Eh
 Primitive CutOff       TCut            ....  1.000e-12 Eh

Convergence Tolerance:
 Convergence Check Mode ConvCheckMode   .... Total+1el-Energy
 Convergence forced     ConvForced      .... 0
 Energy Change          TolE            ....  1.000e-07 Eh
 1-El. energy change                    ....  1.000e-04 Eh
 DIIS Error             TolErr          ....  1.000e-07


Diagonalization of the overlap matrix:
Smallest eigenvalue                        ... 7.551e-03
Time for diagonalization                   ...    0.038 sec
Threshold for overlap eigenvalues          ... 1.000e-08
Number of eigenvalues below threshold      ... 0
Time for construction of square roots      ...    0.027 sec
Total time needed                          ...    0.066 sec

Time for model grid setup =    0.713 sec

------------------------------
INITIAL GUESS: MODEL POTENTIAL
------------------------------
Loading Hartree-Fock densities                     ... done
Calculating cut-offs                               ... done
Initializing the effective Hamiltonian             ... done
Setting up the integral package (SHARK)            ... done
Starting the Coulomb interaction                   ... done (   0.3 sec)
Reading the grid                                   ... done
Mapping shells                                     ... done
Starting the XC term evaluation                    ... done (   0.1 sec)
  promolecular density results
     # of electrons  =    219.978736672
     EX              =   -164.435147955
     EC              =     -7.326937554
     EX+EC           =   -171.762085509
Transforming the Hamiltonian                       ... done (   0.0 sec)
Diagonalizing the Hamiltonian                      ... done (   0.0 sec)
Back transforming the eigenvectors                 ... done (   0.0 sec)
Now organizing SCF variables                       ... done
                      ------------------
                      INITIAL GUESS DONE (   1.3 sec)
                      ------------------
-------------------
DFT GRID GENERATION
-------------------

General Integration Accuracy     IntAcc      ... 4.388
Radial Grid Type                 RadialGrid  ... OptM3 with GC (2021)
Angular Grid (max. ang.)         AngularGrid ... 4 (Lebedev-302)
Angular grid pruning method      GridPruning ... 4 (adaptive)
Weight generation scheme         WeightScheme... Becke
Basis function cutoff            BFCut       ... 1.0000e-11
Integration weight cutoff        WCut        ... 1.0000e-14
Angular grids for H and He will be reduced by one unit
Partially contracted basis set               ... off
Rotationally invariant grid construction     ... off

Total number of grid points                  ...   309900
Total number of batches                      ...     4878
Average number of points per batch           ...       63
Average number of grid points per atom       ...     4245
Time for grid setup =    2.891 sec

--------------------
COSX GRID GENERATION
--------------------

GRIDX 1
-------
General Integration Accuracy     IntAcc      ... 3.816
Radial Grid Type                 RadialGrid  ... OptM3 with GC (2021)
Angular Grid (max. ang.)         AngularGrid ... 1 (Lebedev-50)
Angular grid pruning method      GridPruning ... 4 (adaptive)
Weight generation scheme         WeightScheme... Becke
Basis function cutoff            BFCut       ... 1.0000e-11
Integration weight cutoff        WCut        ... 1.0000e-14
Angular grids for H and He will be reduced by one unit
Partially contracted basis set               ... on
Rotationally invariant grid construction     ... off

Total number of grid points                  ...    39432
Total number of batches                      ...      660
Average number of points per batch           ...       59
Average number of grid points per atom       ...      540
UseSFitting                                  ... on

GRIDX 2
-------
General Integration Accuracy     IntAcc      ... 4.020
Radial Grid Type                 RadialGrid  ... OptM3 with GC (2021)
Angular Grid (max. ang.)         AngularGrid ... 2 (Lebedev-110)
Angular grid pruning method      GridPruning ... 4 (adaptive)
Weight generation scheme         WeightScheme... Becke
Basis function cutoff            BFCut       ... 1.0000e-11
Integration weight cutoff        WCut        ... 1.0000e-14
Angular grids for H and He will be reduced by one unit
Partially contracted basis set               ... on
Rotationally invariant grid construction     ... off

Total number of grid points                  ...    81482
Total number of batches                      ...     1310
Average number of points per batch           ...       62
Average number of grid points per atom       ...     1116
UseSFitting                                  ... on

GRIDX 3
-------
General Integration Accuracy     IntAcc      ... 4.338
Radial Grid Type                 RadialGrid  ... OptM3 with GC (2021)
Angular Grid (max. ang.)         AngularGrid ... 3 (Lebedev-194)
Angular grid pruning method      GridPruning ... 4 (adaptive)
Weight generation scheme         WeightScheme... Becke
Basis function cutoff            BFCut       ... 1.0000e-11
Integration weight cutoff        WCut        ... 1.0000e-14
Angular grids for H and He will be reduced by one unit
Partially contracted basis set               ... on
Rotationally invariant grid construction     ... off

Total number of grid points                  ...   176375
Total number of batches                      ...     2793
Average number of points per batch           ...       63
Average number of grid points per atom       ...     2416
UseSFitting                                  ... on

Time for X-Grid setup             =    3.169 sec


--------------------
CPCM SOLVATION MODEL
--------------------
CPCM parameters:
  Epsilon                                         ...       4.9000
  Refrac                                          ...       1.4500
  Rsolv                                           ...       1.3000
  Surface type                                    ... GAUSSIAN VDW
  Epsilon function type                           ...         CPCM
Radii:
 Radius for C  used is    3.8550 Bohr (=   2.0400 Ang.)
 Radius for H  used is    2.4944 Bohr (=   1.3200 Ang.)
 Radius for O  used is    3.4469 Bohr (=   1.8240 Ang.)
Calculating surface                               ...        done! (  0.0s)
GEPOL surface points                              ...         3618
GEPOL Volume                                      ...    3583.1471
GEPOL Surface-area                                ...    1777.8542
Calculating surface distance matrix               ...        done! (  0.1s)
Performing Cholesky decomposition & store         ...        done! (  0.6s)
Overall time for CPCM initialization              ...                 0.8s
--------------
SCF ITERATIONS
--------------
ITER       Energy         Delta-E        Max-DP      RMS-DP      [F,P]     Damp
               ***  Starting incremental Fock matrix formation  ***

  HOMO= 109 E= -3.888 eV LUMO=  7.786 eV gap=  11.674 eV
  0  -1165.0070931166   0.000000000000 0.09747227  0.00106532  0.1935307 0.7000

  HOMO= 109 E= -4.739 eV LUMO=  7.089 eV gap=  11.828 eV
  1  -1165.2263338720  -0.219240755367 0.06540784  0.00078406  0.0941386 0.7000
                               ***Turning on DIIS***

  HOMO= 109 E= -5.339 eV LUMO=  6.531 eV gap=  11.870 eV
  2  -1165.3274595206  -0.101125648674 0.10347428  0.00138883  0.0376741 0.0000

  HOMO= 109 E= -5.905 eV LUMO=  5.989 eV gap=  11.894 eV
  3  -1165.4719521446  -0.144492623922 0.05146701  0.00057157  0.0453278 0.0000

  HOMO= 109 E= -5.986 eV LUMO=  5.908 eV gap=  11.894 eV
  4  -1165.5076644749  -0.035712330329 0.01173193  0.00013404  0.0061935 0.0000

  HOMO= 109 E= -5.932 eV LUMO=  5.970 eV gap=  11.901 eV
  5  -1165.5085300046  -0.000865529722 0.00286221  0.00003825  0.0043989 0.0000

  HOMO= 109 E= -5.918 eV LUMO=  5.984 eV gap=  11.902 eV
  6  -1165.5086060885  -0.000076083886 0.00117420  0.00001159  0.0010782 0.0000

  HOMO= 109 E= -5.920 eV LUMO= -0.821 eV gap=   5.099 eV
  7  -1165.5086107991  -0.000004710590 0.00050605  0.00000595  0.0002278 0.0000
               *** Restarting incremental Fock matrix formation ***
                                   *** Resetting DIIS ***

  HOMO= 109 E= -5.919 eV LUMO= -0.820 eV gap=   5.100 eV
  8  -1165.5087514656  -0.000140666478 0.00041614  0.00000278  0.0001101 0.0000

  HOMO= 109 E= -5.919 eV LUMO= -0.820 eV gap=   5.100 eV
  9  -1165.5087515219  -0.000000056362 0.00013220  0.00000125  0.0001430 0.0000

  HOMO= 109 E= -5.920 eV LUMO= -0.820 eV gap=   5.100 eV
 10  -1165.5087516282  -0.000000106264 0.00006421  0.00000040  0.0000402 0.0000

  HOMO= 109 E= -5.920 eV LUMO= -0.820 eV gap=   5.100 eV
 11  -1165.5087516545  -0.000000026265 0.00002490  0.00000017  0.0000215 0.0000

  HOMO= 109 E= -5.920 eV LUMO= -0.820 eV gap=   5.100 eV
 12  -1165.5087516411   0.000000013379 0.00000711  0.00000005  0.0000036 0.0000
                 **** Energy Check signals convergence ****

               *****************************************************
               *                     SUCCESS                       *
               *           SCF CONVERGED AFTER  13 CYCLES          *
               *****************************************************

Old exchange energy                            =    -42.068272404 Eh
New exchange energy                            =    -42.068331488 Eh
Exchange energy change after final integration =     -0.000059085 Eh
Total energy after final integration           =  -1165.508810738 Eh
Final COS-X integration done in                =    13.155 sec

----------------
TOTAL SCF ENERGY
----------------

Total Energy       :        -1165.50881074 Eh          -31715.10711 eV

Components:
Nuclear Repulsion  :         2755.53249569 Eh           74981.85121 eV
Electronic Energy  :        -3921.04130643 Eh         -106696.95832 eV
One Electron Energy:        -7053.09892589 Eh         -191924.57903 eV
Two Electron Energy:         3132.05761946 Eh           85227.62071 eV
Max COSX asymmetry :            0.00000191 Eh               0.00005 eV
CPCM Dielectric    :           -0.01537838 Eh              -0.41847 eV

Virial components:
Potential Energy   :        -2322.41248896 Eh          -63196.05665 eV
Kinetic Energy     :         1156.90367822 Eh           31480.94955 eV
Virial Ratio       :            2.00743807


DFT components:
N(Alpha)           :      110.000205259824 electrons
N(Beta)            :      110.000205259824 electrons
N(Total)           :      220.000410519648 electrons
E(X)               :     -125.747750887841 Eh       
E(C)               :       -7.327716921054 Eh       
E(XC)              :     -133.075467808895 Eh       
DFET-embed. en.    :        0.000000000000 Eh       
CPCM Solvation Model Properties:
Surface-charge          :           -0.03460706
Charge-correction       :           -0.00005611 Eh              -0.00153 eV
Free-energy (cav+disp)  :  This term is not implemented in the current solvation scheme

---------------
SCF CONVERGENCE
---------------

  Last Energy change         ...   -1.2605e-08  Tolerance :   1.0000e-07
  Last MAX-Density change    ...    0.0000e+00  Tolerance :   1.0000e-05
  Last RMS-Density change    ...    0.0000e+00  Tolerance :   1.0000e-06
  Last DIIS Error            ...    2.6330e-06  Tolerance :   1.0000e-07

             **** THE GBW FILE WAS UPDATED (inpJ.gbw) ****
             **** DENSITY inpJ.scfp WAS UPDATED ****
             **** ENERGY FILE WAS UPDATED (inpJ.en.tmp) ****
             **** THE GBW FILE WAS UPDATED (inpJ.gbw) ****
             **** DENSITY inpJ.scfp WAS UPDATED ****
----------------
ORBITAL ENERGIES
----------------

  NO   OCC          E(Eh)            E(eV) 
   0   2.0000     -19.215060      -522.8684 
   1   2.0000     -10.301364      -280.3144 
   2   2.0000     -10.269499      -279.4473 
   3   2.0000     -10.266736      -279.3721 
   4   2.0000     -10.261852      -279.2392 
   5   2.0000     -10.256497      -279.0935 
   6   2.0000     -10.253382      -279.0087 
   7   2.0000     -10.251578      -278.9596 
   8   2.0000     -10.250359      -278.9265 
   9   2.0000     -10.249246      -278.8962 
  10   2.0000     -10.248866      -278.8858 
  11   2.0000     -10.246313      -278.8163 
  12   2.0000     -10.246063      -278.8095 
  13   2.0000     -10.245557      -278.7958 
  14   2.0000     -10.243885      -278.7503 
  15   2.0000     -10.243128      -278.7297 
  16   2.0000     -10.241851      -278.6949 
  17   2.0000     -10.241485      -278.6850 
  18   2.0000     -10.241060      -278.6734 
  19   2.0000     -10.240627      -278.6616 
  20   2.0000     -10.239057      -278.6189 
  21   2.0000     -10.235253      -278.5154 
  22   2.0000     -10.234665      -278.4994 
  23   2.0000     -10.233495      -278.4675 
  24   2.0000     -10.224753      -278.2297 
  25   2.0000     -10.224642      -278.2267 
  26   2.0000     -10.223885      -278.2061 
  27   2.0000     -10.221689      -278.1463 
  28   2.0000     -10.220553      -278.1154 
  29   2.0000      -1.045803       -28.4577 
  30   2.0000      -0.901000       -24.5175 
  31   2.0000      -0.883659       -24.0456 
  32   2.0000      -0.859371       -23.3847 
  33   2.0000      -0.845580       -23.0094 
  34   2.0000      -0.821826       -22.3630 
  35   2.0000      -0.814034       -22.1510 
  36   2.0000      -0.794937       -21.6313 
  37   2.0000      -0.794757       -21.6264 
  38   2.0000      -0.775709       -21.1081 
  39   2.0000      -0.757924       -20.6242 
  40   2.0000      -0.740588       -20.1524 
  41   2.0000      -0.730250       -19.8711 
  42   2.0000      -0.714052       -19.4303 
  43   2.0000      -0.702600       -19.1187 
  44   2.0000      -0.699261       -19.0278 
  45   2.0000      -0.693999       -18.8847 
  46   2.0000      -0.669422       -18.2159 
  47   2.0000      -0.665006       -18.0957 
  48   2.0000      -0.636006       -17.3066 
  49   2.0000      -0.622021       -16.9261 
  50   2.0000      -0.619468       -16.8566 
  51   2.0000      -0.609435       -16.5836 
  52   2.0000      -0.597613       -16.2619 
  53   2.0000      -0.582380       -15.8474 
  54   2.0000      -0.557179       -15.1616 
  55   2.0000      -0.541292       -14.7293 
  56   2.0000      -0.531417       -14.4606 
  57   2.0000      -0.529085       -14.3971 
  58   2.0000      -0.515044       -14.0151 
  59   2.0000      -0.509023       -13.8512 
  60   2.0000      -0.501123       -13.6363 
  61   2.0000      -0.492097       -13.3906 
  62   2.0000      -0.481889       -13.1129 
  63   2.0000      -0.480112       -13.0645 
  64   2.0000      -0.475874       -12.9492 
  65   2.0000      -0.468243       -12.7415 
  66   2.0000      -0.466560       -12.6957 
  67   2.0000      -0.458632       -12.4800 
  68   2.0000      -0.456994       -12.4354 
  69   2.0000      -0.451961       -12.2985 
  70   2.0000      -0.449439       -12.2298 
  71   2.0000      -0.443243       -12.0613 
  72   2.0000      -0.436472       -11.8770 
  73   2.0000      -0.431362       -11.7379 
  74   2.0000      -0.429971       -11.7001 
  75   2.0000      -0.427417       -11.6306 
  76   2.0000      -0.416204       -11.3255 
  77   2.0000      -0.413839       -11.2611 
  78   2.0000      -0.408995       -11.1293 
  79   2.0000      -0.403704       -10.9853 
  80   2.0000      -0.401052       -10.9132 
  81   2.0000      -0.397343       -10.8122 
  82   2.0000      -0.395391       -10.7591 
  83   2.0000      -0.388772       -10.5790 
  84   2.0000      -0.385782       -10.4977 
  85   2.0000      -0.379306       -10.3214 
  86   2.0000      -0.372101       -10.1254 
  87   2.0000      -0.369118       -10.0442 
  88   2.0000      -0.367734       -10.0066 
  89   2.0000      -0.367104        -9.9894 
  90   2.0000      -0.362476        -9.8635 
  91   2.0000      -0.358538        -9.7563 
  92   2.0000      -0.353170        -9.6102 
  93   2.0000      -0.344234        -9.3671 
  94   2.0000      -0.341264        -9.2863 
  95   2.0000      -0.340102        -9.2546 
  96   2.0000      -0.337118        -9.1735 
  97   2.0000      -0.333301        -9.0696 
  98   2.0000      -0.331915        -9.0319 
  99   2.0000      -0.326662        -8.8889 
 100   2.0000      -0.325746        -8.8640 
 101   2.0000      -0.324337        -8.8257 
 102   2.0000      -0.319391        -8.6911 
 103   2.0000      -0.316095        -8.6014 
 104   2.0000      -0.311657        -8.4806 
 105   2.0000      -0.300391        -8.1741 
 106   2.0000      -0.280021        -7.6198 
 107   2.0000      -0.274733        -7.4759 
 108   2.0000      -0.254453        -6.9240 
 109   2.0000      -0.217541        -5.9196 
 110   0.0000      -0.030125        -0.8197 
 111   0.0000       0.021314         0.5800 
 112   0.0000       0.030636         0.8337 
 113   0.0000       0.082719         2.2509 
 114   0.0000       0.094649         2.5755 
 115   0.0000       0.102060         2.7772 
 116   0.0000       0.102196         2.7809 
 117   0.0000       0.106095         2.8870 
 118   0.0000       0.108487         2.9521 
 119   0.0000       0.113408         3.0860 
 120   0.0000       0.118577         3.2267 
 121   0.0000       0.121623         3.3095 
 122   0.0000       0.125816         3.4236 
 123   0.0000       0.127187         3.4609 
 124   0.0000       0.133412         3.6303 
 125   0.0000       0.139350         3.7919 
 126   0.0000       0.141000         3.8368 
 127   0.0000       0.141552         3.8518 
 128   0.0000       0.143853         3.9144 
 129   0.0000       0.151857         4.1322 
 130   0.0000       0.151977         4.1355 
 131   0.0000       0.156786         4.2664 
 132   0.0000       0.160844         4.3768 
 133   0.0000       0.163285         4.4432 
 134   0.0000       0.165529         4.5043 
 135   0.0000       0.168578         4.5872 
 136   0.0000       0.170573         4.6415 
 137   0.0000       0.173014         4.7079 
 138   0.0000       0.177833         4.8391 
 139   0.0000       0.179869         4.8945 
 140   0.0000       0.182595         4.9687 
 141   0.0000       0.185524         5.0484 
 142   0.0000       0.189732         5.1629 
 143   0.0000       0.190578         5.1859 
 144   0.0000       0.193896         5.2762 
 145   0.0000       0.195540         5.3209 
 146   0.0000       0.200796         5.4639 
 147   0.0000       0.202417         5.5080 
 148   0.0000       0.203782         5.5452 
 149   0.0000       0.213124         5.7994 
 150   0.0000       0.215613         5.8671 
 151   0.0000       0.220217         5.9924 
 152   0.0000       0.222459         6.0534 
 153   0.0000       0.229364         6.2413 
 154   0.0000       0.232747         6.3334 
 155   0.0000       0.236255         6.4288 
 156   0.0000       0.241964         6.5842 
 157   0.0000       0.245133         6.6704 
 158   0.0000       0.247084         6.7235 
 159   0.0000       0.251883         6.8541 
 160   0.0000       0.256655         6.9839 
 161   0.0000       0.256943         6.9918 
 162   0.0000       0.262747         7.1497 
 163   0.0000       0.267662         7.2834 
 164   0.0000       0.270304         7.3553 
 165   0.0000       0.275379         7.4935 
 166   0.0000       0.278245         7.5714 
 167   0.0000       0.282908         7.6983 
 168   0.0000       0.284793         7.7496 
 169   0.0000       0.293886         7.9970 
 170   0.0000       0.294762         8.0209 
 171   0.0000       0.297964         8.1080 
 172   0.0000       0.304324         8.2811 
 173   0.0000       0.307729         8.3737 
 174   0.0000       0.310019         8.4361 
 175   0.0000       0.319595         8.6966 
 176   0.0000       0.327772         8.9191 
 177   0.0000       0.337607         9.1868 
 178   0.0000       0.353285         9.6134 
 179   0.0000       0.357907         9.7391 
 180   0.0000       0.366864         9.9829 
 181   0.0000       0.379308        10.3215 
 182   0.0000       0.381318        10.3762 
 183   0.0000       0.411996        11.2110 
 184   0.0000       0.420961        11.4549 
 185   0.0000       0.463690        12.6176 
 186   0.0000       0.483459        13.1556 
 187   0.0000       0.493417        13.4266 
 188   0.0000       0.503877        13.7112 
 189   0.0000       0.521090        14.1796 
 190   0.0000       0.524375        14.2690 
 191   0.0000       0.525654        14.3038 
 192   0.0000       0.542911        14.7734 
 193   0.0000       0.546652        14.8751 
 194   0.0000       0.559836        15.2339 
 195   0.0000       0.571953        15.5636 
 196   0.0000       0.579352        15.7650 
 197   0.0000       0.583098        15.8669 
 198   0.0000       0.588763        16.0211 
 199   0.0000       0.598769        16.2933 
 200   0.0000       0.612606        16.6699 
 201   0.0000       0.625450        17.0193 
 202   0.0000       0.626762        17.0550 
 203   0.0000       0.641112        17.4455 
 204   0.0000       0.648084        17.6353 
 205   0.0000       0.650249        17.6942 
 206   0.0000       0.658348        17.9145 
 207   0.0000       0.661075        17.9888 
 208   0.0000       0.666283        18.1305 
 209   0.0000       0.671192        18.2641 
 210   0.0000       0.676830        18.4175 
 211   0.0000       0.691365        18.8130 
 212   0.0000       0.692987        18.8571 
 213   0.0000       0.699898        19.0452 
 214   0.0000       0.707190        19.2436 
 215   0.0000       0.711594        19.3635 
 216   0.0000       0.716773        19.5044 
 217   0.0000       0.723544        19.6886 
 218   0.0000       0.725178        19.7331 
 219   0.0000       0.726937        19.7809 
 220   0.0000       0.730930        19.8896 
 221   0.0000       0.734648        19.9908 
 222   0.0000       0.739781        20.1305 
 223   0.0000       0.746683        20.3183 
 224   0.0000       0.748965        20.3804 
 225   0.0000       0.750824        20.4310 
 226   0.0000       0.757024        20.5997 
 227   0.0000       0.760053        20.6821 
 228   0.0000       0.764849        20.8126 
 229   0.0000       0.768184        20.9033 
 230   0.0000       0.772895        21.0315 
 231   0.0000       0.776603        21.1324 
 232   0.0000       0.778303        21.1787 
 233   0.0000       0.786381        21.3985 
 234   0.0000       0.788984        21.4693 
 235   0.0000       0.797106        21.6904 
 236   0.0000       0.801378        21.8066 
 237   0.0000       0.804316        21.8865 
 238   0.0000       0.811184        22.0734 
 239   0.0000       0.820912        22.3381 
 240   0.0000       0.823004        22.3951 
 241   0.0000       0.826357        22.4863 
 242   0.0000       0.836403        22.7597 
 243   0.0000       0.840717        22.8771 
 244   0.0000       0.855167        23.2703 
 245   0.0000       0.856079        23.2951 
 246   0.0000       0.858268        23.3547 
 247   0.0000       0.864148        23.5147 
 248   0.0000       0.867822        23.6146 
 249   0.0000       0.870398        23.6847 
 250   0.0000       0.872597        23.7446 
 251   0.0000       0.874901        23.8073 
 252   0.0000       0.877585        23.8803 
 253   0.0000       0.878232        23.8979 
 254   0.0000       0.880042        23.9472 
 255   0.0000       0.881519        23.9874 
 256   0.0000       0.883530        24.0421 
 257   0.0000       0.886253        24.1162 
 258   0.0000       0.888700        24.1827 
 259   0.0000       0.896449        24.3936 
 260   0.0000       0.898184        24.4408 
 261   0.0000       0.902790        24.5662 
 262   0.0000       0.906003        24.6536 
 263   0.0000       0.913444        24.8561 
 264   0.0000       0.917926        24.9780 
 265   0.0000       0.922870        25.1126 
 266   0.0000       0.925896        25.1949 
 267   0.0000       0.926611        25.2144 
 268   0.0000       0.930767        25.3275 
 269   0.0000       0.934168        25.4200 
 270   0.0000       0.939859        25.5749 
 271   0.0000       0.941532        25.6204 
 272   0.0000       0.943111        25.6634 
 273   0.0000       0.946322        25.7507 
 274   0.0000       0.955889        26.0111 
 275   0.0000       0.960738        26.1430 
 276   0.0000       0.963079        26.2067 
 277   0.0000       0.968664        26.3587 
 278   0.0000       0.974594        26.5200 
 279   0.0000       0.976894        26.5826 
 280   0.0000       0.981200        26.6998 
 281   0.0000       0.999184        27.1892 
 282   0.0000       1.002295        27.2738 
 283   0.0000       1.011032        27.5116 
 284   0.0000       1.018224        27.7073 
 285   0.0000       1.027501        27.9597 
 286   0.0000       1.029187        28.0056 
 287   0.0000       1.038704        28.2646 
 288   0.0000       1.061520        28.8854 
 289   0.0000       1.062758        28.9191 
 290   0.0000       1.072124        29.1740 
 291   0.0000       1.083669        29.4881 
 292   0.0000       1.087486        29.5920 
 293   0.0000       1.092399        29.7257 
 294   0.0000       1.100246        29.9392 
 295   0.0000       1.105890        30.0928 
 296   0.0000       1.109724        30.1971 
 297   0.0000       1.131442        30.7881 
 298   0.0000       1.141886        31.0723 
 299   0.0000       1.144117        31.1330 
 300   0.0000       1.169052        31.8115 
 301   0.0000       1.172517        31.9058 
 302   0.0000       1.202952        32.7340 
 303   0.0000       1.205779        32.8109 
 304   0.0000       1.239996        33.7420 
 305   0.0000       1.246457        33.9178 
 306   0.0000       1.256093        34.1800 
 307   0.0000       1.266576        34.4653 
 308   0.0000       1.288853        35.0715 
 309   0.0000       1.304263        35.4908 
 310   0.0000       1.330063        36.1928 
 311   0.0000       1.342396        36.5285 
 312   0.0000       1.362257        37.0689 
 313   0.0000       1.373501        37.3749 
 314   0.0000       1.406653        38.2770 
 315   0.0000       1.525492        41.5107 
 316   0.0000       1.526788        41.5460 
 317   0.0000       1.565161        42.5902 
 318   0.0000       1.605939        43.6998 
 319   0.0000       1.657410        45.1004 
 320   0.0000       6.207906       168.9257 
 321   0.0000       6.240029       169.7998 
 322   0.0000       6.245409       169.9462 
 323   0.0000       6.273596       170.7132 
 324   0.0000       6.277327       170.8148 
 325   0.0000       6.287244       171.0846 
 326   0.0000       6.300911       171.4565 
 327   0.0000       6.305221       171.5738 
 328   0.0000       6.314532       171.8272 
 329   0.0000       6.339046       172.4942 
 330   0.0000       6.341308       172.5558 
 331   0.0000       6.352797       172.8684 
 332   0.0000       6.361393       173.1023 
 333   0.0000       6.380523       173.6229 
 334   0.0000       6.385191       173.7499 
 335   0.0000       6.393662       173.9804 
 336   0.0000       6.404368       174.2717 
 337   0.0000       6.415917       174.5860 
 338   0.0000       6.420911       174.7219 
 339   0.0000       6.426383       174.8708 
 340   0.0000       6.433233       175.0572 
 341   0.0000       6.438860       175.2103 
 342   0.0000       6.446716       175.4241 
 343   0.0000       6.453717       175.6146 
 344   0.0000       6.467601       175.9924 
 345   0.0000       6.470974       176.0841 
 346   0.0000       6.476566       176.2363 
 347   0.0000       6.498936       176.8450 
 348   0.0000       6.510665       177.1642 
 349   0.0000       6.514781       177.2762 
 350   0.0000       6.523574       177.5155 
 351   0.0000       6.525881       177.5783 
 352   0.0000       6.536074       177.8556 
 353   0.0000       6.543918       178.0691 
 354   0.0000       6.548840       178.2030 
 355   0.0000       6.557010       178.4253 
 356   0.0000       6.559078       178.4816 
 357   0.0000       6.564301       178.6237 
 358   0.0000       6.570111       178.7818 
 359   0.0000       6.580672       179.0692 
 360   0.0000       6.582620       179.1222 
 361   0.0000       6.587294       179.2494 
 362   0.0000       6.594951       179.4577 
 363   0.0000       6.601765       179.6432 
 364   0.0000       6.603368       179.6868 
 365   0.0000       6.607180       179.7905 
 366   0.0000       6.611146       179.8984 
 367   0.0000       6.614540       179.9908 
 368   0.0000       6.618658       180.1028 
 369   0.0000       6.620577       180.1551 
 370   0.0000       6.623473       180.2339 
 371   0.0000       6.628903       180.3816 
 372   0.0000       6.630410       180.4226 
 373   0.0000       6.638878       180.6530 
 374   0.0000       6.640839       180.7064 
[...]
     69 H        0.000      0.000      0.000      0.000      0.000      0.000
     70 H        0.000      0.000      0.000      0.000      0.003      0.035
     71 H        0.000      0.000      0.000     -0.000      0.001      0.019
     72 H        0.000      0.000      0.000      0.000      0.001      0.011
                 25 H       27 H       28 H       30 H       31 H       33 H  
      3 H        2.486     -0.107      0.069      0.000      0.000      2.407
      4 H        0.111     -0.004      0.004      0.000      0.000      0.099
      8 H       -0.339      0.012      0.000      0.000      0.000     -0.310
      9 H        0.000      0.000      0.000      0.000      0.000      0.136
     10 H        0.000      0.000      0.000      0.000      0.000      0.000
     11 H        0.000      0.000      0.000      0.000      0.000      0.000
     13 H       -0.101      0.004     -0.004      0.000      0.000     -0.104
     16 H       -0.372      0.012     -0.007     -0.022     -0.001     -0.343
     17 H       -0.363      0.011      0.000      0.000      0.000     -0.318
     19 H        0.932     -0.048      0.023      0.085      0.007      1.142
     21 H       -2.827      0.198      0.635     -0.216     -0.026     -2.593
     24 H      -14.050      4.333      2.295      0.713     -0.506     -0.119
     25 H        0.000     13.031      5.235     -0.629     -0.354     -2.343
     27 H       13.031      0.000    -13.575      3.975     13.006      0.069
     28 H        5.235    -13.575      0.000      2.669      4.092      0.284
     30 H       -0.629      3.975      2.669      0.000    -12.979      0.018
     31 H       -0.354     13.006      4.092    -12.979      0.000     -0.324
     33 H       -2.343      0.069      0.284      0.018     -0.324      0.000
     35 H        0.000      0.000      0.000      0.000      0.000      0.000
     37 H        0.271      0.005     -0.035      0.517     -0.037      6.519
     38 H        0.190      0.001     -0.029     -0.016      0.126     12.195
     40 H       -0.013      0.019      0.149     -0.004     -0.033     -0.238
     41 H        0.013      0.022     -0.025      0.013      0.077     -0.423
     42 H       -0.018      0.015     -0.015     -0.256     -0.366     -0.209
     45 H       -0.018     -0.226      0.012     -0.206     -0.481     -0.183
     46 H        0.013      0.046      0.070     -0.340      0.024      0.932
     47 H       -0.059     -0.126     -0.145     -0.163      1.821     -0.468
     48 H       -0.017      0.028      0.024      0.040      0.006     -0.023
     52 H        0.001      0.000      0.003     -0.014     -0.001      0.004
     53 H       -0.001     -0.000     -0.000     -0.002     -0.003     -0.007
     57 H        0.000      0.000      0.000      0.003      0.005      0.009
     58 H        0.000      0.000      0.000      0.000      0.000      0.000
     61 H        0.000      0.000      0.000     -0.000     -0.000     -0.000
     62 H        0.000      0.000      0.000     -0.000     -0.000      0.000
     63 H        0.000      0.000      0.000      0.000      0.000     -0.000
     64 H        0.000      0.000      0.000      0.000      0.000      0.000
     65 H        0.000      0.000      0.000      0.000      0.000      0.000
     66 H        0.000      0.000      0.000      0.000      0.000      0.000
     67 H        0.000      0.000      0.000     -0.000     -0.000      0.000
     68 H        0.000      0.000      0.000     -0.000      0.000      0.000
     69 H        0.000      0.000      0.000      0.000      0.000      0.000
     70 H        0.001     -0.010     -0.011      0.074     -0.047      0.005
     71 H        0.003     -0.008     -0.008     -0.480     -0.092      0.004
     72 H        0.000     -0.003     -0.004      0.060      0.008     -0.000
                 35 H       37 H       38 H       40 H       41 H       42 H  
      3 H       -0.075     -0.044     -0.038      0.000      0.000      0.000
      4 H       -0.167     -0.002     -0.002      0.000      0.000      0.000
      8 H        0.020      0.006      0.004      0.000      0.001      0.000
      9 H       -0.092     -0.002     -0.001      0.000     -0.000      0.000
     10 H       -0.179      0.000     -0.001      0.000      0.000      0.000
     11 H       -0.102     -0.000     -0.000      0.000      0.000      0.000
     13 H       13.745      0.002      0.001      0.000      0.000      0.000
     16 H        0.005      0.007      0.002     -0.001      0.001     -0.001
     17 H        0.007      0.005      0.004      0.000      0.002      0.000
     19 H       -0.004     -0.013      0.114      0.004     -0.009      0.006
     21 H       -0.004      0.045     -0.539     -0.010      0.058     -0.025
     24 H       -0.001     -0.053     -0.078     -0.020      0.065     -0.025
     25 H        0.000      0.271      0.190     -0.013      0.013     -0.018
     27 H        0.000      0.005      0.001      0.019      0.022      0.015
     28 H        0.000     -0.035     -0.029      0.149     -0.025     -0.015
     30 H        0.000      0.517     -0.016     -0.004      0.013     -0.256
     31 H        0.000     -0.037      0.126     -0.033      0.077     -0.366
     33 H        0.000      6.519     12.195     -0.238     -0.423     -0.209
     35 H        0.000      0.000      0.000      0.000      0.000      0.000
     37 H        0.000      0.000    -12.191      9.533      2.608     -0.260
     38 H        0.000    -12.191      0.000      6.626     11.571     -0.484
     40 H        0.000      9.533      6.626      0.000    -13.291      9.227
     41 H        0.000      2.608     11.571    -13.291      0.000      8.755
     42 H        0.000     -0.260     -0.484      9.227      8.755      0.000
     45 H        0.000      0.061      0.037     -0.081      0.006      1.120
     46 H        0.000     -0.173      0.009      0.051      0.039     -0.413
     47 H        0.000      0.067     -0.067     -0.112     -0.067     -0.087
     48 H        0.000      0.114     -0.006     -0.191     -0.425     10.628
     52 H        0.000     -0.014     -0.013      0.181     -0.210     -0.170
     53 H        0.000     -0.005     -0.007     -0.005      0.101      0.124
     57 H        0.000     -0.002      0.001      0.049      0.005     -0.134
     58 H        0.000      0.000      0.000      0.000     -0.001      0.006
     61 H        0.000      0.000      0.000     -0.007     -0.003      0.002
     62 H        0.000     -0.000     -0.000     -0.001     -0.001     -0.001
     63 H        0.000     -0.000     -0.000     -0.002     -0.001      0.000
     64 H        0.000      0.000      0.000     -0.000     -0.000      0.002
     65 H        0.000      0.000      0.000      0.000     -0.000     -0.000
     66 H        0.000      0.000     -0.000     -0.000     -0.000      0.001
     67 H        0.000      0.000      0.000      0.000      0.000      0.001
     68 H        0.000      0.000      0.000      0.001     -0.000     -0.001
     69 H        0.000      0.000      0.000      0.001      0.000      0.000
     70 H        0.000      0.066      0.016     -0.051      0.001     -0.456
     71 H        0.000     -0.005     -0.000      0.082      0.031     -0.200
     72 H        0.000     -0.021      0.037      0.021     -0.044     -0.345
                 45 H       46 H       47 H       48 H       52 H       53 H  
      3 H       -0.021      0.000      0.000      0.000      0.000      0.000
      4 H       -0.001     -0.001      0.001      0.000      0.000      0.000
      8 H        0.002      0.002     -0.003      0.000      0.000      0.000
      9 H       -0.001      0.000      0.001      0.000      0.000      0.000
     10 H       -0.001      0.000      0.000      0.000      0.000      0.000
     11 H       -0.000      0.000      0.000      0.000      0.000      0.000
     13 H        0.001      0.001     -0.001      0.000      0.000      0.000
     16 H        0.002      0.002     -0.004      0.000      0.000      0.000
     17 H        0.003      0.000     -0.004      0.000      0.000      0.000
     19 H       -0.010     -0.007      0.011      0.007      0.000      0.000
     21 H        0.033      0.014     -0.016     -0.018      0.001      0.000
     24 H       -0.023     -0.016     -0.023      0.006      0.000      0.000
     25 H       -0.018      0.013     -0.059     -0.017      0.001     -0.001
     27 H       -0.226      0.046     -0.126      0.028      0.000     -0.000
     28 H        0.012      0.070     -0.145      0.024      0.003     -0.000
     30 H       -0.206     -0.340     -0.163      0.040     -0.014     -0.002
     31 H       -0.481      0.024      1.821      0.006     -0.001     -0.003
     33 H       -0.183      0.932     -0.468     -0.023      0.004     -0.007
     35 H        0.000      0.000      0.000      0.000      0.000      0.000
     37 H        0.061     -0.173      0.067      0.114     -0.014     -0.005
     38 H        0.037      0.009     -0.067     -0.006     -0.013     -0.007
     40 H       -0.081      0.051     -0.112     -0.191      0.181     -0.005
     41 H        0.006      0.039     -0.067     -0.425     -0.210      0.101
     42 H        1.120     -0.413     -0.087     10.628     -0.170      0.124
     45 H        0.000    -12.935    -13.620     -0.186      0.020     -0.037
     46 H      -12.935      0.000    -12.966     -0.106      0.005     -0.009
     47 H      -13.620    -12.966      0.000     -0.219      0.006     -0.016
     48 H       -0.186     -0.106     -0.219      0.000      4.755     -2.427
     52 H        0.020      0.005      0.006      4.755      0.000     17.203
     53 H       -0.037     -0.009     -0.016     -2.427     17.203      0.000
     57 H        0.000      0.013      0.015      2.109     -2.628      4.653
     58 H        0.000      0.000      0.000      0.154      0.225     -0.408
     61 H       -0.001     -0.000     -0.000     -0.041     -0.104     -0.523
     62 H       -0.001     -0.000     -0.000     -0.045     -0.336     -0.597
     63 H        0.000      0.000     -0.001     -0.071     -0.213      0.675
     64 H        0.000      0.000      0.000     -0.023      0.023     -0.031
     65 H        0.000      0.000      0.000      0.013     -0.006      0.027
     66 H       -0.000     -0.000     -0.000     -0.022      0.029      0.002
     67 H        0.000     -0.000     -0.000     -0.015      0.113     -0.172
     68 H        0.000      0.000      0.000      0.022     -0.007     -0.003
     69 H        0.000      0.000      0.000      0.008      0.154     -0.029
     70 H       -0.029     -0.021     -0.011      2.041     -0.401     -0.294
     71 H       -0.061     -0.247     -0.020      5.059      0.719     -0.226
     72 H       -0.031     -0.043      0.029     12.485     -0.532     -0.214
                 57 H       58 H       61 H       62 H       63 H       64 H  
      3 H        0.000      0.000      0.000      0.000      0.000      0.000
      4 H        0.000      0.000      0.000      0.000      0.000      0.000
      8 H        0.000      0.000      0.000      0.000      0.000      0.000
      9 H        0.000      0.000      0.000      0.000      0.000      0.000
     10 H        0.000      0.000      0.000      0.000      0.000      0.000
     11 H        0.000      0.000      0.000      0.000      0.000      0.000
     13 H        0.000      0.000      0.000      0.000      0.000      0.000
     16 H        0.000      0.000      0.000      0.000      0.000      0.000
     17 H        0.000      0.000      0.000      0.000      0.000      0.000
     19 H        0.000      0.000      0.000      0.000      0.000      0.000
     21 H        0.000      0.000      0.000      0.000      0.000      0.000
     24 H        0.000      0.000      0.000      0.000      0.000      0.000
     25 H        0.000      0.000      0.000      0.000      0.000      0.000
     27 H        0.000      0.000      0.000      0.000      0.000      0.000
     28 H        0.000      0.000      0.000      0.000      0.000      0.000
     30 H        0.003      0.000     -0.000     -0.000      0.000      0.000
     31 H        0.005      0.000     -0.000     -0.000      0.000      0.000
     33 H        0.009      0.000     -0.000      0.000     -0.000      0.000
     35 H        0.000      0.000      0.000      0.000      0.000      0.000
     37 H       -0.002      0.000      0.000     -0.000     -0.000      0.000
     38 H        0.001      0.000      0.000     -0.000     -0.000      0.000
     40 H        0.049      0.000     -0.007     -0.001     -0.002     -0.000
     41 H        0.005     -0.001     -0.003     -0.001     -0.001     -0.000
     42 H       -0.134      0.006      0.002     -0.001      0.000      0.002
     45 H        0.000      0.000     -0.001     -0.001      0.000      0.000
     46 H        0.013      0.000     -0.000     -0.000      0.000      0.000
     47 H        0.015      0.000     -0.000     -0.000     -0.001      0.000
     48 H        2.109      0.154     -0.041     -0.045     -0.071     -0.023
     52 H       -2.628      0.225     -0.104     -0.336     -0.213      0.023
     53 H        4.653     -0.408     -0.523     -0.597      0.675     -0.031
     57 H        0.000      3.216      3.792     13.123      3.411      0.614
     58 H        3.216      0.000     -0.084     -0.265     -0.302      3.116
     61 H        3.792     -0.084      0.000    -12.637    -12.994     -0.084
     62 H       13.123     -0.265    -12.637      0.000    -12.770     -0.103
     63 H        3.411     -0.302    -12.994    -12.770      0.000      0.053
     64 H        0.614      3.116     -0.084     -0.103      0.053      0.000
     65 H       -0.455      3.610     -0.103     -0.294      0.008    -12.996
     66 H       -0.458     13.092      0.065      0.040      0.034    -12.581
     67 H       -0.275     13.170     -0.055      0.036      0.056     -0.196
     68 H       -0.359      2.497      0.016      0.016      0.044      0.099
     69 H       -0.171      4.653      0.520     -0.041     -0.009     -0.230
     70 H       -0.035      0.002      0.007     -0.005      0.028     -0.001
     71 H       -0.082      0.004      0.015      0.016      0.133      0.002
     72 H       -0.046     -0.006     -0.006     -0.007      0.007      0.000
                 65 H       66 H       67 H       68 H       69 H       70 H  
      3 H        0.000      0.000      0.000      0.000      0.000      0.000
      4 H        0.000      0.000      0.000      0.000      0.000      0.000
      8 H        0.000      0.000      0.000      0.000      0.000      0.000
      9 H        0.000      0.000      0.000      0.000      0.000      0.000
     10 H        0.000      0.000      0.000      0.000      0.000      0.000
     11 H        0.000      0.000      0.000      0.000      0.000      0.000
     13 H        0.000      0.000      0.000      0.000      0.000      0.000
     16 H        0.000      0.000      0.000      0.000      0.000      0.000
     17 H        0.000      0.000      0.000      0.000      0.000      0.000
     19 H        0.000      0.000      0.000      0.000      0.000      0.000
     21 H        0.000      0.000      0.000      0.000      0.000      0.003
     24 H        0.000      0.000      0.000      0.000      0.000      0.035
     25 H        0.000      0.000      0.000      0.000      0.000      0.001
     27 H        0.000      0.000      0.000      0.000      0.000     -0.010
     28 H        0.000      0.000      0.000      0.000      0.000     -0.011
     30 H        0.000      0.000     -0.000     -0.000      0.000      0.074
     31 H        0.000      0.000     -0.000      0.000      0.000     -0.047
     33 H        0.000      0.000      0.000      0.000      0.000      0.005
     35 H        0.000      0.000      0.000      0.000      0.000      0.000
     37 H        0.000      0.000      0.000      0.000      0.000      0.066
     38 H        0.000     -0.000      0.000      0.000      0.000      0.016
     40 H        0.000     -0.000      0.000      0.001      0.001     -0.051
     41 H       -0.000     -0.000      0.000     -0.000      0.000      0.001
     42 H       -0.000      0.001      0.001     -0.001      0.000     -0.456
     45 H        0.000     -0.000      0.000      0.000      0.000     -0.029
     46 H        0.000     -0.000     -0.000      0.000      0.000     -0.021
     47 H        0.000     -0.000     -0.000      0.000      0.000     -0.011
     48 H        0.013     -0.022     -0.015      0.022      0.008      2.041
     52 H       -0.006      0.029      0.113     -0.007      0.154     -0.401
     53 H        0.027      0.002     -0.172     -0.003     -0.029     -0.294
     57 H       -0.455     -0.458     -0.275     -0.359     -0.171     -0.035
     58 H        3.610     13.092     13.170      2.497      4.653      0.002
     61 H       -0.103      0.065     -0.055      0.016      0.520      0.007
     62 H       -0.294      0.040      0.036      0.016     -0.041     -0.005
     63 H        0.008      0.034      0.056      0.044     -0.009      0.028
     64 H      -12.996    -12.581     -0.196      0.099     -0.230     -0.001
     65 H        0.000    -12.419     -0.217      2.888     -0.168     -0.002
     66 H      -12.419      0.000     -0.324     -0.308     -0.216     -0.005
     67 H       -0.217     -0.324      0.000    -11.986    -13.164     -0.003
     68 H        2.888     -0.308    -11.986      0.000    -12.730     -0.002
     69 H       -0.168     -0.216    -13.164    -12.730      0.000     -0.001
     70 H       -0.002     -0.005     -0.003     -0.002     -0.001      0.000
     71 H        0.001      0.001     -0.001      0.000     -0.001    -13.716
     72 H        0.000     -0.002     -0.002      0.000     -0.001    -12.327
                 71 H       72 H  
      3 H        0.000      0.000
      4 H        0.000      0.000
      8 H        0.000      0.000
      9 H        0.000      0.000
     10 H        0.000      0.000
     11 H        0.000      0.000
     13 H        0.000      0.000
     16 H        0.000      0.000
     17 H        0.000      0.000
     19 H       -0.000      0.000
     21 H        0.001      0.001
     24 H        0.019      0.011
     25 H        0.003      0.000
     27 H       -0.008     -0.003
     28 H       -0.008     -0.004
     30 H       -0.480      0.060
     31 H       -0.092      0.008
     33 H        0.004     -0.000
     35 H        0.000      0.000
     37 H       -0.005     -0.021
     38 H       -0.000      0.037
     40 H        0.082      0.021
     41 H        0.031     -0.044
     42 H       -0.200     -0.345
     45 H       -0.061     -0.031
     46 H       -0.247     -0.043
     47 H       -0.020      0.029
     48 H        5.059     12.485
     52 H        0.719     -0.532
     53 H       -0.226     -0.214
     57 H       -0.082     -0.046
     58 H        0.004     -0.006
     61 H        0.015     -0.006
     62 H        0.016     -0.007
     63 H        0.133      0.007
     64 H        0.002      0.000
     65 H        0.001      0.000
     66 H        0.001     -0.002
     67 H       -0.001     -0.002
     68 H        0.000      0.000
     69 H       -0.001     -0.001
     70 H      -13.716    -12.327
     71 H        0.000    -12.707
     72 H      -12.707      0.000

Maximum memory used throughout the entire EPRNMR-calculation: 967.1 MB

Timings for individual modules:

Sum of individual times         ...      387.696 sec (=   6.462 min)
GTO integral calculation        ...        0.630 sec (=   0.010 min)   0.2 %
SCF iterations                  ...      102.743 sec (=   1.712 min)  26.5 %
EPR/NMR calculation             ...      284.323 sec (=   4.739 min)  73.3 %
                             ****ORCA TERMINATED NORMALLY****
TOTAL RUN TIME: 0 days 0 hours 6 minutes 28 seconds 125 msec
