
                                 *****************
                                 * O   R   C   A *
                                 *****************

                                            #,                                       
                                            ###                                      
                                            ####                                     
                                            #####                                    
                                            ######                                   
                                           ########,                                 
                                     ,,################,,,,,                         
                               ,,#################################,,                 
                          ,,##########################################,,             
                       ,#########################################, ''#####,          
                    ,#############################################,,   '####,        
                  ,##################################################,,,,####,       
                ,###########''''           ''''###############################       
              ,#####''   ,,,,##########,,,,          '''####'''          '####       
            ,##' ,,,,###########################,,,                        '##       
           ' ,,###''''                  '''############,,,                           
         ,,##''                                '''############,,,,        ,,,,,,###''
      ,#''                                            '''#######################'''  
     '                                                          ''''####''''         
             ,#######,   #######,   ,#######,      ##                                
            ,#'     '#,  ##    ##  ,#'     '#,    #''#        ,####,   ,####,        
            ##       ##  ##   ,#'  ##            #'  '#       #'       #'  '#        
            ##       ##  #######   ##           ,######,      #####,   #    #        
            '#,     ,#'  ##    ##  '#,     ,#' ,#      #,     #,   #   #,  ,#        
             '#######'   ##     ##  '#######'  #'      '#     '####' # '####'        



                #########################################################
                #                        -***-                          #
                #          Department of theory and spectroscopy        #
                #                                                       #
                #                      Frank Neese                      #
                #                                                       #
                #     Directorship, Architecture, Infrastructure        #
                #                    SHARK, DRIVERS                     #
                #        Core code/Algorithms in most modules           #
                #                                                       #
                #        Max Planck Institute fuer Kohlenforschung      #
                #                Kaiser Wilhelm Platz 1                 #
                #                 D-45470 Muelheim/Ruhr                 #
                #                      Germany                          #
                #                                                       #
                #                  All rights reserved                  #
                #                        -***-                          #
                #########################################################


                         Program Version 6.0.0  -   RELEASE  -


 With contributions from (in alphabetic order):
   Daniel Aravena         : Magnetic Suceptibility
   Michael Atanasov       : Ab Initio Ligand Field Theory (pilot matlab implementation)
   Alexander A. Auer      : GIAO ZORA, VPT2 properties, NMR spectrum
   Ute Becker             : All parallelization in ORCA, NUMFREQ, NUMCALC
   Giovanni Bistoni       : ED, misc. LED, open-shell LED, HFLD
   Martin Brehm           : Molecular dynamics
   Dmytro Bykov           : pre 5.0 version of the SCF Hessian
   Marcos Casanova-Páez   : Triplet and SCS-CIS(D). UHF-(DLPNO)-IP/EA/STEOM-CCSD. UHF-CVS-IP/STEOM-CCSD
   Vijay G. Chilkuri      : MRCI spin determinant printing, contributions to CSF-ICE
   Pauline Colinet        : FMM embedding
   Dipayan Datta          : RHF DLPNO-CCSD density
   Achintya Kumar Dutta   : EOM-CC, STEOM-CC
   Nicolas Foglia         : Exact transition moments, OPA infrastructure, MCD improvements
   Dmitry Ganyushin       : Spin-Orbit,Spin-Spin,Magnetic field MRCI
   Miquel Garcia          : C-PCM and meta-GGA Hessian, CCSD/C-PCM, Gaussian charge scheme
   Tiago L. C. Gouveia    : GS-ROHF, GS-ROCIS
   Yang Guo               : DLPNO-NEVPT2, F12-NEVPT2, CIM, IAO-localization
   Andreas Hansen         : Spin unrestricted coupled pair/coupled cluster methods
   Ingolf Harden          : AUTO-CI MPn and infrastructure 
   Benjamin Helmich-Paris : MC-RPA, TRAH-(SCF,CASSCF), AVAS, COSX integrals, SCF dyn. polar.
   Lee Huntington         : MR-EOM, pCC
   Robert Izsak           : Overlap fitted RIJCOSX, COSX-SCS-MP3, EOM
   Riya Kayal             : Wick's Theorem for AUTO-CI, AUTO-CI UHF-CCSDT
   Emily Kempfer          : AUTO-CI, RHF CISDT and CCSDT
   Christian Kollmar      : KDIIS, OOCD, Brueckner-CCSD(T), CCSD density, CASPT2, CASPT2-K, improved NEVPT2
   Axel Koslowski         : Symmetry handling
   Simone Kossmann        : Meta GGA functionals, TD-DFT gradient, OOMP2, (MP2 Hessian; deprecated post 5.0)
   Lucas Lang             : DCDCAS
   Marvin Lechner         : AUTO-CI (C++ implementation), FIC-MRCC
   Spencer Leger          : CASSCF response
   Dagmar Lenk            : GEPOL surface, SMD, ORCA-2-JSON
   Dimitrios Liakos       : Extrapolation schemes; Compound Job, initial MDCI parallelization
   Dimitrios Manganas     : Further ROCIS development; embedding schemes. LFT, Crystal Embedding
   Dimitrios Pantazis     : SARC Basis sets
   Anastasios Papadopoulos: AUTO-CI, single reference methods and gradients
   Taras Petrenko         : pre 6.0 DFT Hessian and TD-DFT gradient, (ASA, deprecated), ECA, 1-Electron XAS/XES, NRVS
   Peter Pinski           : DLPNO-MP2, DLPNO-MP2 Gradient
   Christoph Reimann      : Effective Core Potentials
   Marius Retegan         : Local ZFS, SOC
   Christoph Riplinger    : Optimizer, TS searches, QM/MM, DLPNO-CCSD(T), (RO)-DLPNO pert. Triples
   Michael Roemelt        : Original ROCIS implementation
   Masaaki Saitow         : Open-shell DLPNO-CCSD energy and density
   Barbara Sandhoefer     : DKH picture change effects
   Kantharuban Sivalingam : CASSCF convergence/infrastructure, NEVPT2 and variants, FIC-MRCI
   Bernardo de Souza      : ESD, SOC TD-DFT
   Georgi Stoychev        : AutoAux, RI-MP2 NMR, DLPNO-MP2 response, X2C
   Van Anh Tran           : RI-MP2 g-tensors
   Willem Van den Heuvel  : Paramagnetic NMR
   Zikuan Wang            : NOTCH, Electric field optimization 
   Frank Wennmohs         : Technical directorship and infrastructure
   Hang Xu                : AUTO-CI-Response properties 


 We gratefully acknowledge several colleagues who have allowed us to
 interface, adapt or use parts of their codes:
   Stefan Grimme, W. Hujo, H. Kruse, P. Pracht,  : VdW corrections, initial TS optimization,
                  C. Bannwarth, S. Ehlert,         DFT functionals, gCP, sTDA/sTD-DF
                  L. Wittmann, M. Mueller
   Ed Valeev, F. Pavosevic, A. Kumar             : LibInt (2-el integral package), F12 methods
   Garnet Chan, S. Sharma, J. Yang, R. Olivares  : DMRG
   Ulf Ekstrom                                   : XCFun DFT Library
   Mihaly Kallay                                 : mrcc  (arbitrary order and MRCC methods)
   Frank Weinhold                                : gennbo (NPA and NBO analysis)
   Simon Mueller                                 : openCOSMO-RS
   Christopher J. Cramer and Donald G. Truhlar   : smd solvation model
   Lars Goerigk                                  : TD-DFT with DH, B97 family of functionals
   V. Asgeirsson, H. Jonsson                     : NEB implementation
   FAccTs GmbH                                   : IRC, NEB, NEB-TS, DLPNO-Multilevel, CI-OPT
                                                   MM, QMMM, 2- and 3-layer-ONIOM, Crystal-QMMM,
                                                   LR-CPCM, SF, NACMEs, symmetry and pop. for TD-DFT,
                                                   nearIR, NL-DFT gradient (VV10), updates on ESD,
                                                   ML-optimized integration grids, MBIS, APM,
                                                   GOAT, DOCKER, SOLVATOR, interface openCOSMO-RS
   S Lehtola, MJT Oliveira, MAL Marques          : LibXC Library
   Liviu Ungur et al                             : ANISO software


 Your calculation uses the libint2 library for the computation of 2-el integrals
 For citations please refer to: http://libint.valeyev.net

 Your ORCA version has been built with support for libXC version: 6.2.2
 For citations please refer to: https://libxc.gitlab.io

 This ORCA versions uses:
   CBLAS   interface :  Fast vector & matrix operations
   LAPACKE interface :  Fast linear algebra routines
   SCALAPACK package :  Parallel linear algebra routines
   Shared memory     :  Shared parallel matrices
   BLAS/LAPACK       :  OpenBLAS 0.3.27  USE64BITINT DYNAMIC_ARCH NO_AFFINITY Zen SINGLE_THREADED
        Core in use  :  Zen
   Copyright (c) 2011-2014, The OpenBLAS Project


NOTE: MaxCore=8000 MB was set to SCF,MP2,MDCI,CIPSI,MRCI and CIS
      => If you want to overwrite this, your respective input block should be placed after the MaxCore statement
Your calculation utilizes the atom-pairwise dispersion correction
based on EEQ partial charges (D4)


================================================================================

----- Orbital basis set information -----
Your calculation utilizes the basis: pcJ-0
   F. Jensen, Theor. Chem. Acc. 126, 371 (2010).

----- AuxJ basis set information -----
Your calculation utilizes the auxiliary basis: def2/J
   F. Weigend, Phys. Chem. Chem. Phys. 8, 1057 (2006).

================================================================================
                                        WARNINGS
                       Please study these warnings very carefully!
================================================================================

WARNING: Old DensityContainer found on disk!
         Will remove this file - 
         If you want to keep old densities, please start your calculation with a different basename. 


================================================================================
                                       INPUT FILE
================================================================================
NAME = inpJ
|  1> ! pbe0
|  2> ! D4
|  3> ! pcJ-0
|  4> ! def2/J RIJCOSX
|  5> ! DEFGRID2
|  6> ! scfconv7
|  7> ! smallprint printgap noloewdin
|  8> ! NOSOSCF
|  9> %MaxCore 8000
| 10> %output
| 11>        print[P_BondOrder_M] 1
| 12>        print[P_Mayer] 1
| 13>        print[P_basis] 2
| 14> end
| 15> %pal
| 16>     nprocs 4
| 17> end
| 18> ! CPCM(chloroform)
| 19> *xyz 0 1
| 20> C   -5.1915844600   0.2298407900   0.2225527800
| 21> C   -6.5730762500  -0.2863069200  -0.1055172300
| 22> C   -7.1471397600   0.3807702700  -1.3613304300
| 23> H   -7.2570472200  -0.0541635500   0.7285171600
| 24> H   -6.5593425300  -1.3742596000  -0.2332672900
| 25> C   -5.0869710800   1.7043387300   0.2547252000
| 26> C   -5.7053877400   2.4023627000  -0.9353431400
| 27> C   -7.1281831100   1.8978215700  -1.2120714500
| 28> H   -5.0853416300   2.1955376000  -1.8208816000
| 29> H   -5.7034762800   3.4865448900  -0.7811601000
| 30> H   -7.5266195100   2.3636649100  -2.1210474400
| 31> H   -7.7878641500   2.1776020100  -0.3767644400
| 32> O   -8.4623810200  -0.1095960700  -1.6527470100
| 33> H   -6.5388919600   0.0924266100  -2.2301172000
| 34> C   -4.1590794200  -0.6236085900   0.4207510800
| 35> C   -4.5358683100   2.3806279000   1.2692160200
| 36> H   -4.1202855600   1.8678402200   2.1321297900
| 37> H   -4.4988942500   3.4674686300   1.2621903500
| 38> C   -2.7787802800  -0.2623981800   0.6467098200
| 39> H   -4.3948575100  -1.6853216400   0.3620144000
| 40> C   -1.7643060300  -1.1073975100   0.9306543900
| 41> H   -2.5449912000   0.7969553600   0.5680644000
| 42> C   -1.8891415100  -2.5966911600   1.1318065300
| 43> C   -0.8878277900  -3.3822415700   0.2635762800
| 44> H   -2.9049796100  -2.9559812700   0.9455021700
| 45> H   -1.6667121100  -2.8114748700   2.1894745900
| 46> C    0.5496769600  -2.8621519700   0.4006013100
| 47> H   -1.2028487700  -3.3285211000  -0.7861418300
| 48> H   -0.9228815700  -4.4418863300   0.5450094300
| 49> C    0.6383738600  -1.3541415300   0.1264091500
| 50> H    1.1998588500  -3.4293555100  -0.2735895600
| 51> H    0.9062746700  -3.0505514500   1.4245203500
| 52> C   -0.3504703400  -0.6438402200   1.1034818200
| 53> H   -0.0348430300  -0.9785981600   2.1094956800
| 54> C    0.0117513400   0.8323685300   0.9857923200
| 55> H   -9.0333328100   0.1300432600  -0.9105387700
| 56> C    1.5520068600   0.8121696900   0.8333560200
| 57> H   -0.3203682700   1.4111752800   1.8542836400
| 58> H   -0.4591554300   1.2772425100   0.1018806800
| 59> C    1.9687705200  -0.6647535100   0.5446891900
| 60> H    2.0453544900   1.1848142900   1.7351252200
| 61> H    1.8778796200   1.4623694700   0.0126025900
| 62> H    2.2674041300  -1.1404697400   1.4921674100
| 63> C    3.1600546600  -0.7448558300  -0.4206434800
| 64> C    0.2810728600  -1.0376176400  -1.3326749800
| 65> H   -0.7758026300  -1.2375108500  -1.5340664700
| 66> H    0.8760808800  -1.6473565200  -2.0209692100
| 67> H    0.4653494700   0.0134900200  -1.5768077300
| 68> H    2.8655365200  -0.2349286500  -1.3515577700
| 69> C    3.5746107400  -2.1801446400  -0.7947101000
| 70> C    4.3935286500  -0.0318829300   0.0892922300
| 71> C    4.7061154500   0.2481592600   1.3542257200
| 72> H    5.1241114900   0.2180367800  -0.6854507100
| 73> H    4.0112228200  -0.0134561900   2.1537030200
| 74> C    5.9817594700   0.9166695400   1.7874522600
| 75> C    6.7292282100   0.0245912000   2.7895334600
| 76> C    5.7110693200   2.3511138700   2.3216524200
| 77> H    6.6151021400   1.0339381200   0.8953155800
| 78> H    5.1232711900   2.8527063900   1.5378037900
| 79> C    7.0104428600   3.1403036900   2.5037132400
| 80> C    4.8866882200   2.3768900800   3.6110844900
| 81> H    6.9771676800  -0.9356124700   2.3252319400
| 82> H    6.1134855300  -0.1836699200   3.6715634700
| 83> H    7.6626422800   0.4865461500   3.1272283100
| 84> H    6.7923801500   4.1875378600   2.7412249100
| 85> H    7.6211360200   3.1183074200   1.5937359600
| 86> H    7.6115518300   2.7357872200   3.3259928600
| 87> H    5.4418717300   1.9323031400   4.4451153000
| 88> H    3.9402720600   1.8365100500   3.5046198300
| 89> H    4.6503097400   3.4103867500   3.8878135200
| 90> H    4.5121191400  -2.1693900400  -1.3619300800
| 91> H    2.8209505000  -2.6793042600  -1.4092989200
| 92> H    3.7369586500  -2.7766998900   0.1106702500
| 93> *
| 94> %eprnmr
| 95>  Nuclei = all C { ssfc }
| 96>  SpinSpinRThresh 8.0
| 97> end
| 98> 
| 99>                          ****END OF INPUT****
================================================================================

                       ****************************
                       * Single Point Calculation *
                       ****************************

---------------------------------
CARTESIAN COORDINATES (ANGSTROEM)
---------------------------------
  C     -5.191584    0.229841    0.222553
  C     -6.573076   -0.286307   -0.105517
  C     -7.147140    0.380770   -1.361330
  H     -7.257047   -0.054164    0.728517
  H     -6.559343   -1.374260   -0.233267
  C     -5.086971    1.704339    0.254725
  C     -5.705388    2.402363   -0.935343
  C     -7.128183    1.897822   -1.212071
  H     -5.085342    2.195538   -1.820882
  H     -5.703476    3.486545   -0.781160
  H     -7.526620    2.363665   -2.121047
  H     -7.787864    2.177602   -0.376764
  O     -8.462381   -0.109596   -1.652747
  H     -6.538892    0.092427   -2.230117
  C     -4.159079   -0.623609    0.420751
  C     -4.535868    2.380628    1.269216
  H     -4.120286    1.867840    2.132130
  H     -4.498894    3.467469    1.262190
  C     -2.778780   -0.262398    0.646710
  H     -4.394858   -1.685322    0.362014
  C     -1.764306   -1.107398    0.930654
  H     -2.544991    0.796955    0.568064
  C     -1.889142   -2.596691    1.131807
  C     -0.887828   -3.382242    0.263576
  H     -2.904980   -2.955981    0.945502
  H     -1.666712   -2.811475    2.189475
  C      0.549677   -2.862152    0.400601
  H     -1.202849   -3.328521   -0.786142
  H     -0.922882   -4.441886    0.545009
  C      0.638374   -1.354142    0.126409
  H      1.199859   -3.429356   -0.273590
  H      0.906275   -3.050551    1.424520
  C     -0.350470   -0.643840    1.103482
  H     -0.034843   -0.978598    2.109496
  C      0.011751    0.832369    0.985792
  H     -9.033333    0.130043   -0.910539
  C      1.552007    0.812170    0.833356
  H     -0.320368    1.411175    1.854284
  H     -0.459155    1.277243    0.101881
  C      1.968771   -0.664754    0.544689
  H      2.045354    1.184814    1.735125
  H      1.877880    1.462369    0.012603
  H      2.267404   -1.140470    1.492167
  C      3.160055   -0.744856   -0.420643
  C      0.281073   -1.037618   -1.332675
  H     -0.775803   -1.237511   -1.534066
  H      0.876081   -1.647357   -2.020969
  H      0.465349    0.013490   -1.576808
  H      2.865537   -0.234929   -1.351558
  C      3.574611   -2.180145   -0.794710
  C      4.393529   -0.031883    0.089292
  C      4.706115    0.248159    1.354226
  H      5.124111    0.218037   -0.685451
  H      4.011223   -0.013456    2.153703
  C      5.981759    0.916670    1.787452
  C      6.729228    0.024591    2.789533
  C      5.711069    2.351114    2.321652
  H      6.615102    1.033938    0.895316
  H      5.123271    2.852706    1.537804
  C      7.010443    3.140304    2.503713
  C      4.886688    2.376890    3.611084
  H      6.977168   -0.935612    2.325232
  H      6.113486   -0.183670    3.671563
  H      7.662642    0.486546    3.127228
  H      6.792380    4.187538    2.741225
  H      7.621136    3.118307    1.593736
  H      7.611552    2.735787    3.325993
  H      5.441872    1.932303    4.445115
  H      3.940272    1.836510    3.504620
  H      4.650310    3.410387    3.887814
  H      4.512119   -2.169390   -1.361930
  H      2.820950   -2.679304   -1.409299
  H      3.736959   -2.776700    0.110670

----------------------------
CARTESIAN COORDINATES (A.U.)
----------------------------
  NO LB      ZA    FRAG     MASS         X           Y           Z
   0 C     6.0000    0    12.011   -9.810673    0.434336    0.420564
   1 C     6.0000    0    12.011  -12.421314   -0.541042   -0.199399
   2 C     6.0000    0    12.011  -13.506137    0.719552   -2.572542
   3 H     1.0000    0     1.008  -13.713832   -0.102354    1.376698
   4 H     1.0000    0     1.008  -12.395361   -2.596974   -0.440811
   5 C     6.0000    0    12.011   -9.612982    3.220733    0.481361
   6 C     6.0000    0    12.011  -10.781620    4.539808   -1.767542
   7 C     6.0000    0    12.011  -13.470314    3.586363   -2.290483
   8 H     1.0000    0     1.008   -9.609903    4.148965   -3.440968
   9 H     1.0000    0     1.008  -10.778008    6.588615   -1.476179
  10 H     1.0000    0     1.008  -14.223250    4.466679   -4.008199
  11 H     1.0000    0     1.008  -14.716930    4.115071   -0.711982
  12 O     8.0000    0    15.999  -15.991583   -0.207107   -3.123239
  13 H     1.0000    0     1.008  -12.356715    0.174661   -4.214311
  14 C     6.0000    0    12.011   -7.859521   -1.178449    0.795104
  15 C     6.0000    0    12.011   -8.571549    4.498735    2.398471
  16 H     1.0000    0     1.008   -7.786211    3.529706    4.029141
  17 H     1.0000    0     1.008   -8.501678    6.552566    2.385194
  18 C     6.0000    0    12.011   -5.251134   -0.495861    1.222104
  19 H     1.0000    0     1.008   -8.305077   -3.184796    0.684108
  20 C     6.0000    0    12.011   -3.334055   -2.092678    1.758682
  21 H     1.0000    0     1.008   -4.809336    1.506027    1.073486
  22 C     6.0000    0    12.011   -3.569960   -4.907035    2.138804
  23 C     6.0000    0    12.011   -1.677751   -6.391510    0.498087
  24 H     1.0000    0     1.008   -5.489616   -5.585995    1.786740
  25 H     1.0000    0     1.008   -3.149629   -5.312918    4.137507
  26 C     6.0000    0    12.011    1.038739   -5.408683    0.757027
  27 H     1.0000    0     1.008   -2.273055   -6.289993   -1.485593
  28 H     1.0000    0     1.008   -1.743993   -8.393949    1.029919
  29 C     6.0000    0    12.011    1.206352   -2.558957    0.238879
  30 H     1.0000    0     1.008    2.267405   -6.480543   -0.517009
  31 H     1.0000    0     1.008    1.712611   -5.764707    2.691953
  32 C     6.0000    0    12.011   -0.662293   -1.216682    2.085278
  33 H     1.0000    0     1.008   -0.065844   -1.849283    3.986369
  34 C     6.0000    0    12.011    0.022207    1.572949    1.862878
  35 H     1.0000    0     1.008  -17.070525    0.245746   -1.720669
  36 C     6.0000    0    12.011    2.932868    1.534778    1.574815
  37 H     1.0000    0     1.008   -0.605408    2.666735    3.504088
  38 H     1.0000    0     1.008   -0.867678    2.413639    0.192527
  39 C     6.0000    0    12.011    3.720437   -1.256202    1.029313
  40 H     1.0000    0     1.008    3.865160    2.238975    3.278911
  41 H     1.0000    0     1.008    3.548678    2.763478    0.023815
  42 H     1.0000    0     1.008    4.284773   -2.155175    2.819788
  43 C     6.0000    0    12.011    5.971638   -1.407574   -0.794901
  44 C     6.0000    0    12.011    0.531151   -1.960813   -2.518391
  45 H     1.0000    0     1.008   -1.466055   -2.338557   -2.898965
  46 H     1.0000    0     1.008    1.655553   -3.113053   -3.819078
  47 H     1.0000    0     1.008    0.879383    0.025492   -2.979735
  48 H     1.0000    0     1.008    5.415079   -0.443951   -2.554074
  49 C     6.0000    0    12.011    6.755035   -4.119876   -1.501784
  50 C     6.0000    0    12.011    8.302566   -0.060250    0.168738
  51 C     6.0000    0    12.011    8.893269    0.468953    2.559116
  52 H     1.0000    0     1.008    9.683167    0.412030   -1.295314
  53 H     1.0000    0     1.008    7.580113   -0.025429    4.069909
  54 C     6.0000    0    12.011   11.303887    1.732254    3.377795
  55 C     6.0000    0    12.011   12.716398    0.046471    5.271454
  56 C     6.0000    0    12.011   10.792357    4.442961    4.387287
  57 H     1.0000    0     1.008   12.500731    1.953860    1.691901
  58 H     1.0000    0     1.008    9.681579    5.390834    2.906028
  59 C     6.0000    0    12.011   13.247817    5.934314    4.731332
  60 C     6.0000    0    12.011    9.234502    4.491671    6.823961
  61 H     1.0000    0     1.008   13.184936   -1.768051    4.394052
  62 H     1.0000    0     1.008   11.552813   -0.347086    6.938249
  63 H     1.0000    0     1.008   14.480295    0.919439    5.909605
  64 H     1.0000    0     1.008   12.835738    7.913300    5.180164
  65 H     1.0000    0     1.008   14.401860    5.892747    3.011724
  66 H     1.0000    0     1.008   14.383748    5.169889    6.285216
  67 H     1.0000    0     1.008   10.283647    3.651524    8.400051
  68 H     1.0000    0     1.008    7.446035    3.470501    6.622772
  69 H     1.0000    0     1.008    8.787812    6.444697    7.346903
  70 H     1.0000    0     1.008    8.526669   -4.099553   -2.573675
  71 H     1.0000    0     1.008    5.330824   -5.063151   -2.663189
  72 H     1.0000    0     1.008    7.061828   -5.247202    0.209136

--------------------------------
INTERNAL COORDINATES (ANGSTROEM)
--------------------------------
 C      0   0   0     0.000000000000     0.00000000     0.00000000
 C      1   0   0     1.510813673435     0.00000000     0.00000000
 C      2   1   0     1.533495250800   111.80942394     0.00000000
 H      2   1   3     1.103322344440   109.31890666   241.47753276
 H      2   1   3     1.095513453507   110.67928185   122.94642727
 C      1   2   3     1.478554428808   114.21242124    50.21242240
 C      6   1   2     1.511932300710   114.47794280   312.16008240
 C      3   2   1     1.524494094617   110.36792756   305.21545055
 H      7   6   1     1.100641705850   108.42777322   290.04977097
 H      7   6   1     1.095092272193   110.21484718   172.80507609
 H      8   3   2     1.096357119129   109.70235830   179.15941102
 H      8   3   2     1.100542579866   108.65306309   296.61330064
 O      3   2   1     1.433611642848   111.16858026   180.53936912
 H      3   2   1     1.099044086556   109.02904866    65.36093021
 C      1   2   3     1.354151050648   120.90899577   232.16489816
 C      6   1   2     1.338010810280   123.34625517   129.88023286
 H     16   6   1     1.086407106619   121.41393808     0.66523301
 H     16   6   1     1.087492167116   120.94709238   181.35170163
 C     15   1   2     1.444560842734   126.43119880   175.38086785
 H     15   1   2     1.089162938151   116.19401230   358.04537124
 C     19  15   1     1.350483761637   126.45622634   175.36656927
 H     19  15   1     1.087691297531   115.95104578   354.73902005
 C     21  19  15     1.507992591634   125.71845909   356.93685982
 C     23  21  19     1.540630513630   111.99896521   128.64337827
 H     23  21  19     1.093492452242   112.25158276     4.46507409
 H     23  21  19     1.101938566895   107.68714357   247.33851570
 C     24  23  21     1.534825383276   112.68304377    50.44898571
 H     24  23  21     1.097284018474   109.12142011   288.28825137
 H     24  23  21     1.096941385310   109.09869466   172.33447295
 C     27  24  23     1.535299308872   111.77733207   306.17246363
 H     27  24  23     1.094983869773   109.00393333   182.61538012
 H     27  24  23     1.100484662009   109.18046182    66.09322208
 C     21  19  15     1.497893868066   122.66048194   177.83848116
 H     33  21  19     1.106231152935   106.29506430   123.28418755
 C     33  21  19     1.524548338836   120.99831302     0.95979007
 H     13   3   2     0.966584722883   107.51935170    62.64969273
 C     35  33  21     1.547912105252   103.37859135   195.22626002
 H     35  33  21     1.095261549634   112.23764679    73.44421417
 H     35  33  21     1.095885866065   110.68606850   313.79071685
 C     30  27  24     1.555689334964   115.89036268   166.73120568
 H     37  35  33     1.093363421742   111.30416450   251.37398871
 H     37  35  33     1.096626190859   111.20202130   133.01964689
 H     40  30  27     1.101454920494   105.76876914   321.85043600
 C     40  30  27     1.535396185893   118.12232033    82.76285790
 C     30  27  24     1.535180079326   111.02708314   294.98284774
 H     45  30  27     1.094304175726   111.22510372    67.55137547
 H     45  30  27     1.095246544254   110.85863410   307.49785266
 H     45  30  27     1.094708171855   111.76172545   187.42017557
 H     44  40  30     1.101529881128   107.44181496    62.23045037
 C     44  40  30     1.540076799310   114.21613319   303.28625641
 C     44  40  30     1.513216068007   113.32805238   179.64268306
 C     51  44  40     1.332738109997   127.59184410    23.49387477
 H     51  44  40     1.093817978746   114.41932683   199.54874926
 H     52  51  44     1.091092280296   119.71549579   357.61579574
 C     52  51  44     1.503947770100   124.45410600   177.54477608
 C     55  52  51     1.535799470428   110.03388441   237.38266996
 C     55  52  51     1.554436716023   111.19114931   110.93709058
 H     55  52  51     1.100355721255   107.57939227   354.93332934
 H     57  55  52     1.100690861461   105.59221642   307.98318720
 C     57  55  52     1.531123218628   111.63700807   191.29683998
 C     57  55  52     1.530654655428   113.50512658    65.77402382
 H     56  55  52     1.095007292277   110.05282820    60.29447513
 H     56  55  52     1.095668143471   111.23240690   301.17598288
 H     56  55  52     1.094852507701   111.78349256   180.20573347
 H     60  57  55     1.095747482632   110.45668192   171.89879685
 H     60  57  55     1.096124364149   111.33089325    51.84141601
 H     60  57  55     1.095951340974   111.37261279   291.17328927
 H     61  57  55     1.096126666505   111.18362532    66.19504311
 H     61  57  55     1.095010889700   112.04158556   305.03581588
 H     61  57  55     1.095704845637   110.17137155   185.19149617
 H     50  44  40     1.095799327981   110.29630987   188.28419393
 H     50  44  40     1.093107268874   112.11980082    68.32274645
 H     50  44  40     1.096334159073   110.26668787   307.26321833

---------------------------
INTERNAL COORDINATES (A.U.)
---------------------------
 C      0   0   0     0.000000000000     0.00000000     0.00000000
 C      1   0   0     2.855024082175     0.00000000     0.00000000
 C      2   1   0     2.897886051681   111.80942394     0.00000000
 H      2   1   3     2.084977068427   109.31890666   241.47753276
 H      2   1   3     2.070220403154   110.67928185   122.94642727
 C      1   2   3     2.794062944544   114.21242124    50.21242240
 C      6   1   2     2.857137981372   114.47794280   312.16008240
 C      3   2   1     2.880876331606   110.36792756   305.21545055
 H      7   6   1     2.079911395627   108.42777322   290.04977097
 H      7   6   1     2.069424485818   110.21484718   172.80507609
 H      8   3   2     2.071814700128   109.70235830   179.15941102
 H      8   3   2     2.079724074665   108.65306309   296.61330064
 O      3   2   1     2.709133387384   111.16858026   180.53936912
 H      3   2   1     2.076892332697   109.02904866    65.36093021
 C      1   2   3     2.558974629686   120.90899577   232.16489816
 C      6   1   2     2.528473995655   123.34625517   129.88023286
 H     16   6   1     2.053011901456   121.41393808     0.66523301
 H     16   6   1     2.055062368634   120.94709238   181.35170163
 C     15   1   2     2.729824376553   126.43119880   175.38086785
 H     15   1   2     2.058219668322   116.19401230   358.04537124
 C     19  15   1     2.552044457802   126.45622634   175.36656927
 H     19  15   1     2.055438670583   115.95104578   354.73902005
 C     21  19  15     2.849693010171   125.71845909   356.93685982
 C     23  21  19     2.911369744322   111.99896521   128.64337827
 H     23  21  19     2.066401264248   112.25158276     4.46507409
 H     23  21  19     2.082362107837   107.68714357   247.33851570
 C     24  23  21     2.900399637782   112.68304377    50.44898571
 H     24  23  21     2.073566286045   109.12142011   288.28825137
 H     24  23  21     2.072918803201   109.09869466   172.33447295
 C     27  24  23     2.901295227367   111.77733207   306.17246363
 H     27  24  23     2.069219634933   109.00393333   182.61538012
 H     27  24  23     2.079614625777   109.18046182    66.09322208
 C     21  19  15     2.830609188325   122.66048194   177.83848116
 H     33  21  19     2.090473919858   106.29506430   123.28418755
 C     33  21  19     2.880978838325   120.99831302     0.95979007
 H     13   3   2     1.826580411481   107.51935170    62.64969273
 C     35  33  21     2.925129958308   103.37859135   195.22626002
 H     35  33  21     2.069744373823   112.23764679    73.44421417
 H     35  33  21     2.070924160897   110.68606850   313.79071685
 C     30  27  24     2.939826792544   115.89036268   166.73120568
 H     37  35  33     2.066157431940   111.30416450   251.37398871
 H     37  35  33     2.072323172010   111.20202130   133.01964689
 H     40  30  27     2.081448148594   105.76876914   321.85043600
 C     40  30  27     2.901478298405   118.12232033    82.76285790
 C     30  27  24     2.901069916178   111.02708314   294.98284774
 H     45  30  27     2.067935199328   111.22510372    67.55137547
 H     45  30  27     2.069716017763   110.85863410   307.49785266
 H     45  30  27     2.068698641372   111.76172545   187.42017557
 H     44  40  30     2.081589803663   107.44181496    62.23045037
 C     44  40  30     2.910323375903   114.21613319   303.28625641
 C     44  40  30     2.859563949982   113.32805238   179.64268306
 C     51  44  40     2.518510036134   127.59184410    23.49387477
 H     51  44  40     2.067016420190   114.41932683   199.54874926
 H     52  51  44     2.061865596596   119.71549579   357.61579574
 C     52  51  44     2.842049405210   124.45410600   177.54477608
 C     55  52  51     2.902240395731   110.03388441   237.38266996
 C     55  52  51     2.937459685795   111.19114931   110.93709058
 H     55  52  51     2.079370963066   107.57939227   354.93332934
 H     57  55  52     2.080004286272   105.59221642   307.98318720
 C     57  55  52     2.893403560496   111.63700807   191.29683998
 C     57  55  52     2.892518104371   113.50512658    65.77402382
 H     56  55  52     2.069263897050   110.05282820    60.29447513
 H     56  55  52     2.070512724823   111.23240690   301.17598288
 H     56  55  52     2.068971396593   111.78349256   180.20573347
 H     60  57  55     2.070662654108   110.45668192   171.89879685
 H     60  57  55     2.071374856960   111.33089325    51.84141601
 H     60  57  55     2.071047890545   111.37261279   291.17328927
 H     61  57  55     2.071379207783   111.18362532    66.19504311
 H     61  57  55     2.069270695194   112.04158556   305.03581588
 H     61  57  55     2.070582081865   110.17137155   185.19149617
 H     50  44  40     2.070760627618   110.29630987   188.28419393
 H     50  44  40     2.065673373170   112.11980082    68.32274645
 H     50  44  40     2.071771311911   110.26668787   307.26321833

---------------------
BASIS SET INFORMATION
---------------------
There are 3 groups of distinct atoms

 Group   1 Type C   : 7s4p contracted to 4s3p pattern {4111/211}
 Group   2 Type H   : 5s contracted to 3s pattern {311}
 Group   3 Type O   : 7s4p contracted to 4s3p pattern {4111/211}

Atom   0C    basis set group =>   1
Atom   1C    basis set group =>   1
Atom   2C    basis set group =>   1
Atom   3H    basis set group =>   2
Atom   4H    basis set group =>   2
Atom   5C    basis set group =>   1
Atom   6C    basis set group =>   1
Atom   7C    basis set group =>   1
Atom   8H    basis set group =>   2
Atom   9H    basis set group =>   2
Atom  10H    basis set group =>   2
Atom  11H    basis set group =>   2
Atom  12O    basis set group =>   3
Atom  13H    basis set group =>   2
Atom  14C    basis set group =>   1
Atom  15C    basis set group =>   1
Atom  16H    basis set group =>   2
Atom  17H    basis set group =>   2
Atom  18C    basis set group =>   1
Atom  19H    basis set group =>   2
Atom  20C    basis set group =>   1
Atom  21H    basis set group =>   2
Atom  22C    basis set group =>   1
Atom  23C    basis set group =>   1
Atom  24H    basis set group =>   2
Atom  25H    basis set group =>   2
Atom  26C    basis set group =>   1
Atom  27H    basis set group =>   2
Atom  28H    basis set group =>   2
Atom  29C    basis set group =>   1
Atom  30H    basis set group =>   2
Atom  31H    basis set group =>   2
Atom  32C    basis set group =>   1
Atom  33H    basis set group =>   2
Atom  34C    basis set group =>   1
Atom  35H    basis set group =>   2
Atom  36C    basis set group =>   1
Atom  37H    basis set group =>   2
Atom  38H    basis set group =>   2
Atom  39C    basis set group =>   1
Atom  40H    basis set group =>   2
Atom  41H    basis set group =>   2
Atom  42H    basis set group =>   2
Atom  43C    basis set group =>   1
Atom  44C    basis set group =>   1
Atom  45H    basis set group =>   2
Atom  46H    basis set group =>   2
Atom  47H    basis set group =>   2
Atom  48H    basis set group =>   2
Atom  49C    basis set group =>   1
Atom  50C    basis set group =>   1
Atom  51C    basis set group =>   1
Atom  52H    basis set group =>   2
Atom  53H    basis set group =>   2
Atom  54C    basis set group =>   1
Atom  55C    basis set group =>   1
Atom  56C    basis set group =>   1
Atom  57H    basis set group =>   2
Atom  58H    basis set group =>   2
Atom  59C    basis set group =>   1
Atom  60C    basis set group =>   1
Atom  61H    basis set group =>   2
Atom  62H    basis set group =>   2
Atom  63H    basis set group =>   2
Atom  64H    basis set group =>   2
Atom  65H    basis set group =>   2
Atom  66H    basis set group =>   2
Atom  67H    basis set group =>   2
Atom  68H    basis set group =>   2
Atom  69H    basis set group =>   2
Atom  70H    basis set group =>   2
Atom  71H    basis set group =>   2
Atom  72H    basis set group =>   2

-------------------------
BASIS SET IN INPUT FORMAT
-------------------------

 # Basis set for element : H 
 NewGTO H 
 S 3 
   1    1357.7500000000      0.0012928364
   2      54.3100000000      0.0588280685
   3       4.3448000000      0.9761499708
 S 1 
   1       0.6604910000      1.0000000000
 S 1 
   1       0.1366870000      1.0000000000
  end;

 # Basis set for element : C 
 NewGTO C 
 S 4 
   1  139534.0000000000      0.0001655246
   2    5581.3600000000      0.0074486101
   3     446.5090000000      0.1285821065
   4      67.4620000000      0.9218029311
 S 1 
   1      15.0674000000      1.0000000000
 S 1 
   1       3.9387600000      1.0000000000
 S 1 
   1       0.2999150000      1.0000000000
 P 2 
   1      28.3900000000      0.0816325586
   2       4.3676900000      0.9660360576
 P 1 
   1       0.8698170000      1.0000000000
 P 1 
   1       0.1889340000      1.0000000000
  end;

 # Basis set for element : O 
 NewGTO O 
 S 4 
   1  253789.0000000000      0.0001641076
   2   10151.6000000000      0.0074010921
   3     812.1250000000      0.1277711901
   4     122.6930000000      0.9223372164
 S 1 
   1      27.5608000000      1.0000000000
 S 1 
   1       7.3172600000      1.0000000000
 S 1 
   1       0.5792400000      1.0000000000
 P 2 
   1      53.4157000000      0.0793786106
   2       8.2177900000      0.9670506337
 P 1 
   1       1.6754400000      1.0000000000
 P 1 
   1       0.3506720000      1.0000000000
  end;

---------------------------------
AUXILIARY/J BASIS SET INFORMATION
---------------------------------
There are 3 groups of distinct atoms

 Group   1 Type C   : 12s5p4d2f1g contracted to 6s4p3d1f1g pattern {711111/2111/211/2/1}
 Group   2 Type H   : 5s2p1d contracted to 3s1p1d pattern {311/2/1}
 Group   3 Type O   : 12s5p4d2f1g contracted to 6s4p3d1f1g pattern {711111/2111/211/2/1}

Atom   0C    basis set group =>   1
Atom   1C    basis set group =>   1
Atom   2C    basis set group =>   1
Atom   3H    basis set group =>   2
Atom   4H    basis set group =>   2
Atom   5C    basis set group =>   1
Atom   6C    basis set group =>   1
Atom   7C    basis set group =>   1
Atom   8H    basis set group =>   2
Atom   9H    basis set group =>   2
Atom  10H    basis set group =>   2
Atom  11H    basis set group =>   2
Atom  12O    basis set group =>   3
Atom  13H    basis set group =>   2
Atom  14C    basis set group =>   1
Atom  15C    basis set group =>   1
Atom  16H    basis set group =>   2
Atom  17H    basis set group =>   2
Atom  18C    basis set group =>   1
Atom  19H    basis set group =>   2
Atom  20C    basis set group =>   1
Atom  21H    basis set group =>   2
Atom  22C    basis set group =>   1
Atom  23C    basis set group =>   1
Atom  24H    basis set group =>   2
Atom  25H    basis set group =>   2
Atom  26C    basis set group =>   1
Atom  27H    basis set group =>   2
Atom  28H    basis set group =>   2
Atom  29C    basis set group =>   1
Atom  30H    basis set group =>   2
Atom  31H    basis set group =>   2
Atom  32C    basis set group =>   1
Atom  33H    basis set group =>   2
Atom  34C    basis set group =>   1
Atom  35H    basis set group =>   2
Atom  36C    basis set group =>   1
Atom  37H    basis set group =>   2
Atom  38H    basis set group =>   2
Atom  39C    basis set group =>   1
Atom  40H    basis set group =>   2
Atom  41H    basis set group =>   2
Atom  42H    basis set group =>   2
Atom  43C    basis set group =>   1
Atom  44C    basis set group =>   1
Atom  45H    basis set group =>   2
Atom  46H    basis set group =>   2
Atom  47H    basis set group =>   2
Atom  48H    basis set group =>   2
Atom  49C    basis set group =>   1
Atom  50C    basis set group =>   1
Atom  51C    basis set group =>   1
Atom  52H    basis set group =>   2
Atom  53H    basis set group =>   2
Atom  54C    basis set group =>   1
Atom  55C    basis set group =>   1
Atom  56C    basis set group =>   1
Atom  57H    basis set group =>   2
Atom  58H    basis set group =>   2
Atom  59C    basis set group =>   1
Atom  60C    basis set group =>   1
Atom  61H    basis set group =>   2
Atom  62H    basis set group =>   2
Atom  63H    basis set group =>   2
Atom  64H    basis set group =>   2
Atom  65H    basis set group =>   2
Atom  66H    basis set group =>   2
Atom  67H    basis set group =>   2
Atom  68H    basis set group =>   2
Atom  69H    basis set group =>   2
Atom  70H    basis set group =>   2
Atom  71H    basis set group =>   2
Atom  72H    basis set group =>   2

-------------------------------------
AUXILIARY/J BASIS SET IN INPUT FORMAT
-------------------------------------

 # Auxiliary/J basis set for element : H 
 NewAuxJGTO H 
 S 3 
   1      15.6752927000      0.1007184237
   2       3.6063578000      0.3404257499
   3       1.2080016000      0.6491996172
 S 1 
   1       0.4726794000      1.0000000000
 S 1 
   1       0.2018100000      1.0000000000
 P 2 
   1       2.0281365000      0.5596620919
   2       0.5358730000      0.5596620919
 D 1 
   1       2.2165124000      1.0000000000
  end;

 # Auxiliary/J basis set for element : C 
 NewAuxJGTO C 
 S 7 
   1    1861.0916331000      0.0134602335
   2     642.9939764000      0.0299160374
   3     235.1105725000      0.1008649584
   4      90.7028894000      0.2370970548
   5      36.7794552000      0.3924037254
   6      15.6046273000      0.3195862154
   7       6.8907294000      0.0530104441
 S 1 
   1       3.1478850000     -1.0000000000
 S 1 
   1       1.4777287000      1.0000000000
 S 1 
   1       0.7076466000      1.0000000000
 S 1 
   1       0.3430122000      1.0000000000
 S 1 
   1       0.1669453000      1.0000000000
 P 2 
   1      13.5472892000     -0.6769313712
   2       5.4669419000     -0.3779500978
 P 1 
   1       2.1751721000      1.0000000000
 P 1 
   1       0.8582194000      1.0000000000
 P 1 
   1       0.3376720000      1.0000000000
 D 2 
   1       5.9287253000     -0.3533329857
   2       1.9809209000     -0.7456525731
 D 1 
   1       0.8055417000     -1.0000000000
 D 1 
   1       0.3531244000     -1.0000000000
 F 2 
   1       1.6755626000      0.6311076882
   2       0.5997536000      0.4968166032
 G 1 
   1       1.0024600000     -1.0000000000
  end;

 # Auxiliary/J basis set for element : O 
 NewAuxJGTO O 
 S 7 
   1    2876.8216605000      0.0168151159
   2    1004.7443032000      0.0340137548
   3     369.7579954000      0.1194951309
   4     142.9442404000      0.2664627624
   5      57.8366425000      0.4202764046
   6      24.3864983000      0.2765077335
   7      10.6622662000      0.0057008815
 S 1 
   1       4.8070437000     -1.0000000000
 S 1 
   1       2.2210770000      1.0000000000
 S 1 
   1       1.0447795000      1.0000000000
 S 1 
   1       0.4968425000      1.0000000000
 S 1 
   1       0.2371384000      1.0000000000
 P 2 
   1      64.2613382000     -0.2731534179
   2      16.3006076000     -0.8168011598
 P 1 
   1       4.3550542000      1.0000000000
 P 1 
   1       1.2019554000      1.0000000000
 P 1 
   1       0.3354196000      1.0000000000
 D 2 
   1       9.2146611000     -0.4661230638
   2       2.8435251000     -0.6600908911
 D 1 
   1       0.9955759000     -1.0000000000
 D 1 
   1       0.3649441000     -1.0000000000
 F 2 
   1       2.6420115000      0.5931563945
   2       0.7345613000      0.5931563945
 G 1 
   1       1.3931000000     -1.0000000000
  end;


Checking for AutoStart:
The File: inpJ.gbw exists
Trying to determine its content:
     ... Fine, the file contains calculation information
     ... Fine, the calculation information was read
     ... Fine, the file contains a basis set
     ... Fine, the basis set was read
     ... Fine, the file contains a geometry
     ... Fine, the geometry was read
     ... Fine, the file contains a set of orbitals
     ... Fine, the orbitals can be read
     => possible old guess file was deleted
     => GBW file was renamed to GES file
     => GES file is set as startup file
     => Guess is set to MORead
     ... now leaving AutoStart



           ************************************************************
           *        Program running with 4 parallel MPI-processes     *
           *              working on a common directory               *
           ************************************************************
------------------------------------------------------------------------------
                             ORCA STARTUP CALCULATIONS
                           -- RI-GTO INTEGRALS CHOSEN --
------------------------------------------------------------------------------
------------------------------------------------------------------------------
                   ___                                                        
                  /   \      - P O W E R E D   B Y -                         
                 /     \                                                     
                 |  |  |   _    _      __       _____    __    __             
                 |  |  |  | |  | |    /  \     |  _  \  |  |  /  |          
                  \  \/   | |  | |   /    \    | | | |  |  | /  /          
                 / \  \   | |__| |  /  /\  \   | |_| |  |  |/  /          
                |  |  |   |  __  | /  /__\  \  |    /   |      \           
                |  |  |   | |  | | |   __   |  |    \   |  |\   \          
                \     /   | |  | | |  |  |  |  | |\  \  |  | \   \       
                 \___/    |_|  |_| |__|  |__|  |_| \__\ |__|  \__/        
                                                                              
                      - O R C A' S   B I G   F R I E N D -                    
                                      &                                       
                       - I N T E G R A L  F E E D E R -                       
                                                                              
 v1 FN, 2020, v2 2021, v3 2022-2024                                           
------------------------------------------------------------------------------


----------------------
SHARK INTEGRAL PACKAGE
----------------------

Number of atoms                             ...     73
Number of basis functions                   ...    509
Number of shells                            ...    335
Maximum angular momentum                    ...      1
Integral batch strategy                     ... SHARK/LIBINT Hybrid
RI-J (if used) integral strategy            ... SPLIT-RIJ (Revised 2003 algorithm where possible)
Printlevel                                  ...      1
Contraction scheme used                     ... SEGMENTED contraction
Prescreening option                         ... SCHWARTZ
   Thresh                                   ... 3.000e-11
   Tcut                                     ... 1.000e-12
   Tpresel                                  ... 1.000e-12 
Coulomb Range Separation                    ... NOT USED
Exchange Range Separation                   ... NOT USED
Multipole approximations                    ... NOT USED
Finite Nucleus Model                        ... NOT USED
CABS basis                                  ... NOT available
Auxiliary Coulomb fitting basis             ... AVAILABLE
   # of basis functions in Aux-J            ...   1905
   # of shells in Aux-J                     ...    655
   Maximum angular momentum in Aux-J        ...      4
Auxiliary J/K fitting basis                 ... NOT available
Auxiliary Correlation fitting basis         ... NOT available
Auxiliary 'external' fitting basis          ... NOT available

Checking pre-screening integrals            ... done (  0.0 sec) Dimension = 335
Check shell pair data                       ... done (  0.0 sec)
Shell pair information
Shell pair cut-off parameter TPreSel        ...   1.0e-12
Total number of shell pairs                 ...     56280
Shell pairs after pre-screening             ...     21858
Total number of primitive shell pairs       ...    145865
Primitive shell pairs kept                  ...     37524
          la=0 lb=0:  11009 shell pairs
          la=1 lb=0:   8977 shell pairs
          la=1 lb=1:   1872 shell pairs

Calculating one electron integrals          ... done (  0.0 sec)
Calculating RI/J V-Matrix + Cholesky decomp.... done (  0.2 sec)
Calculating Nuclear repulsion               ... done (  0.0 sec) ENN=   2777.199298645997 Eh

Diagonalization of the overlap matrix:
Smallest eigenvalue                        ... 7.558e-03
Time for diagonalization                   ...    0.053 sec
Threshold for overlap eigenvalues          ... 1.000e-07
Number of eigenvalues below threshold      ... 0
Time for construction of square roots      ...    0.030 sec
Total time needed                          ...    0.088 sec

-------------------
DFT GRID GENERATION
-------------------

General Integration Accuracy     IntAcc      ... 4.388
Radial Grid Type                 RadialGrid  ... OptM3 with GC (2021)
Angular Grid (max. ang.)         AngularGrid ... 4 (Lebedev-302)
Angular grid pruning method      GridPruning ... 4 (adaptive)
Weight generation scheme         WeightScheme... mBecke (2022)
Basis function cutoff            BFCut       ... 1.0000e-11
Integration weight cutoff        WCut        ... 1.0000e-14
Partially contracted basis set               ... off
Rotationally invariant grid construction     ... off
Angular grids for H and He will be reduced by one unit

Total number of grid points                  ...   309922
Total number of batches                      ...     4878
Average number of points per batch           ...       63
Average number of grid points per atom       ...     4246

--------------------
COSX GRID GENERATION
--------------------

GRIDX 1
-------
General Integration Accuracy     IntAcc      ... 3.816
Radial Grid Type                 RadialGrid  ... OptM3 with GC (2021)
Angular Grid (max. ang.)         AngularGrid ... 1 (Lebedev-50)
Angular grid pruning method      GridPruning ... 4 (adaptive)
Weight generation scheme         WeightScheme... mBecke (2022)
Basis function cutoff            BFCut       ... 1.0000e-11
Integration weight cutoff        WCut        ... 1.0000e-14
Partially contracted basis set               ... on
Rotationally invariant grid construction     ... off
Angular grids for H and He will be reduced by one unit

Total number of grid points                  ...    39412
Total number of batches                      ...      351
Average number of points per batch           ...      112
Average number of grid points per atom       ...      540
UseSFitting                                  ... on

GRIDX 2
-------
General Integration Accuracy     IntAcc      ... 4.020
Radial Grid Type                 RadialGrid  ... OptM3 with GC (2021)
Angular Grid (max. ang.)         AngularGrid ... 2 (Lebedev-110)
Angular grid pruning method      GridPruning ... 4 (adaptive)
Weight generation scheme         WeightScheme... mBecke (2022)
Basis function cutoff            BFCut       ... 1.0000e-11
Integration weight cutoff        WCut        ... 1.0000e-14
Partially contracted basis set               ... on
Rotationally invariant grid construction     ... off
Angular grids for H and He will be reduced by one unit

Total number of grid points                  ...    81404
Total number of batches                      ...      674
Average number of points per batch           ...      120
Average number of grid points per atom       ...     1115
UseSFitting                                  ... on

GRIDX 3
-------
General Integration Accuracy     IntAcc      ... 4.338
Radial Grid Type                 RadialGrid  ... OptM3 with GC (2021)
Angular Grid (max. ang.)         AngularGrid ... 3 (Lebedev-194)
Angular grid pruning method      GridPruning ... 4 (adaptive)
Weight generation scheme         WeightScheme... mBecke (2022)
Basis function cutoff            BFCut       ... 1.0000e-11
Integration weight cutoff        WCut        ... 1.0000e-14
Partially contracted basis set               ... on
Rotationally invariant grid construction     ... off
Angular grids for H and He will be reduced by one unit

Total number of grid points                  ...   176333
Total number of batches                      ...     1421
Average number of points per batch           ...      124
Average number of grid points per atom       ...     2416
UseSFitting                                  ... on
Initializing property integral containers    ... done (  0.0 sec)

SHARK setup successfully completed in   3.8 seconds

Maximum memory used throughout the entire STARTUP-calculation: 85.3 MB


           ************************************************************
           *        Program running with 4 parallel MPI-processes     *
           *              working on a common directory               *
           ************************************************************
-------------------------------------------------------------------------------
                                 ORCA GUESS
                   Start orbitals & Density for SCF / CASSCF
-------------------------------------------------------------------------------

------------
SCF SETTINGS
------------
Hamiltonian:
 Density Functional     Method          .... DFT(GTOs)
 Exchange Functional    Exchange        .... PBE
   PBE kappa parameter   XKappa         ....  0.804000
   PBE mue parameter    XMuePBE         ....  0.219520
 Correlation Functional Correlation     .... PBE
   PBE beta parameter  CBetaPBE         ....  0.066725
 LDA part of GGA corr.  LDAOpt          .... PW91-LDA
 Gradients option       PostSCFGGA      .... off
 Hybrid DFT is turned on
   Fraction HF Exchange ScalHFX         ....  0.250000
   Scaling of DF-GGA-X  ScalDFX         ....  0.750000
   Scaling of DF-GGA-C  ScalDFC         ....  1.000000
   Scaling of DF-LDA-C  ScalLDAC        ....  1.000000
   Perturbative correction              ....  0.000000
   NL short-range parameter             ....  6.900000
 RI-approximation to the Coulomb term is turned on
   Number of AuxJ basis functions       .... 1905
   RIJ-COSX (HFX calculated with COS-X)).... on


General Settings:
 Integral files         IntName         .... inpJ
 Hartree-Fock type      HFTyp           .... RHF
 Total Charge           Charge          ....    0
 Multiplicity           Mult            ....    1
 Number of Electrons    NEL             ....  220
 Basis Dimension        Dim             ....  509
 Nuclear Repulsion      ENuc            ....   2777.1992986460 Eh

Convergence Acceleration:
 AO-DIIS                CNVDIIS         .... on
   Start iteration      DIISMaxIt       ....    12
   Startup error        DIISStart       ....  0.200000
   # of expansion vecs  DIISMaxEq       ....     5
   Bias factor          DIISBfac        ....   1.050
   Max. coefficient     DIISMaxC        ....  10.000
 MO-DIIS                CNVKDIIS        .... off
 Trust-Rad. Augm. Hess. CNVTRAH         .... auto
   Auto Start mean grad. ratio tolernc. ....  1.125000
   Auto Start start iteration           ....     1
   Auto Start num. interpolation iter.  ....    10
   Max. Number of Micro iterations      ....    24
   Max. Number of Macro iterations      .... Maxiter - #DIIS iter
   Number of Davidson start vectors     ....     2
   Converg. threshold    (grad. norm)   ....   1.000e-04
   Grad. Scal. Fac. for Micro threshold ....   0.100
   Minimum threshold for Micro iter.    ....   1.000e-02
   NR start threshold (gradient norm)   ....   1.000e-04
   Initial trust radius                 ....   0.400
   Minimum AH scaling param. (alpha)    ....   1.000
   Maximum AH scaling param. (alpha)    .... 1000.000
   Quad. conv. algorithm                .... NR
   White noise on init. David. guess    .... on
   Maximum white noise                  ....   0.010
   Pseudo random numbers                .... off
   Inactive MOs                         .... canonical
   Orbital update algorithm             .... Taylor
   Preconditioner                       .... Diag
   Full preconditioner red. dimension   ....   250
 SOSCF                  CNVSOSCF        .... off
 Level Shifting         CNVShift        .... on
   Level shift para.    LevelShift      ....    0.2500
   Turn off err/grad.   ShiftErr        ....    0.0010
 Zerner damping         CNVZerner       .... off
 Static damping         CNVDamp         .... on
   Fraction old density DampFac         ....    0.7000
   Max. Damping (<1)    DampMax         ....    0.9800
   Min. Damping (>=0)   DampMin         ....    0.0000
   Turn off err/grad.   DampErr         ....    0.1000

SCF Procedure:
 Maximum # iterations   MaxIter         ....   125
 SCF integral mode      SCFMode         .... Direct
   Integral package                     .... SHARK and LIBINT hybrid scheme
 Reset frequency        DirectResetFreq ....    20
 Integral Threshold     Thresh          ....  3.000e-11 Eh
 Primitive CutOff       TCut            ....  1.000e-12 Eh

Convergence Tolerance:
 Convergence Check Mode ConvCheckMode   .... Total+1el-Energy
 Convergence forced     ConvForced      .... 0
 Energy Change          TolE            ....  1.000e-07 Eh
 1-El. energy change                    ....  1.000e-04 Eh
 DIIS Error             TolErr          ....  1.000e-07

---------------------
INITIAL GUESS: MOREAD
---------------------
Guess MOs are being read from file: inpJ.ges
Input Geometry matches current geometry (good)
Input basis set matches current basis set (good)
Occupation numbers will be reassigned to an Aufbau configuration
MOs were renormalized
MOs were reorthogonalized (Cholesky)
                      ------------------
                      INITIAL GUESS DONE (   0.1 sec)
                      ------------------
             **** ENERGY FILE WAS UPDATED (inpJ.en.tmp) ****
Finished Guess after   0.2 sec
Maximum memory used throughout the entire GUESS-calculation: 36.7 MB


           ************************************************************
           *        Program running with 4 parallel MPI-processes     *
           *              working on a common directory               *
           ************************************************************

-------------------------------------------------------------------------------------------
                                      ORCA LEAN-SCF
                              memory conserving SCF solver
-------------------------------------------------------------------------------------------

--------------------
CPCM SOLVATION MODEL
--------------------
CPCM parameters:
  Epsilon                                         ...       4.8030
  Refrac                                          ...       1.4459
  Rsolv                                           ...       1.3000
  Surface type                                    ... GAUSSIAN VDW
  Discretization scheme                           ... Constant charge density
    Threshold for H atoms                         ...       5.0000 (charges/Ang^2)
    Threshold for non-H atoms                     ...       5.0000 (charges/Ang^2)
  Epsilon function type                           ...         CPCM
Solvent:                                          ... CHLOROFORM
Radii:
  Scheme                                          ... Element-dependent radii
  Radius for C  used is    3.8550 Bohr (=   2.0400 Ang.)
  Radius for H  used is    2.4944 Bohr (=   1.3200 Ang.)
  Radius for O  used is    3.4469 Bohr (=   1.8240 Ang.)
Calculating surface                               ...        done! (  0.0s)
Cavity surface points                             ...         5421
Cavity Volume                                     ...    3613.4568
Cavity Surface-area                               ...    1798.3066
Calculating surface distance matrix               ...        done! (  0.2s)
Performing Cholesky decomposition & store         ...        done! (  0.9s)
Overall time for CPCM initialization              ...                 1.2s

----------------------------------------D-I-I-S--------------------------------------------
Iteration    Energy (Eh)           Delta-E    RMSDP     MaxDP     DIISErr   Damp  Time(sec)
-------------------------------------------------------------------------------------------
               ***  Starting incremental Fock matrix formation  ***
    1    -1165.5072403762474096     0.00e+00  4.73e-08  5.42e-06  8.21e-06  0.700   6.1

  HOMO= 109 E= -5.923 eV LUMO=  5.982 eV gap=  11.904 eV
    2    -1165.5072404073398502    -3.11e-08  3.15e-08  3.22e-06  3.82e-06  0.700   2.0
                 **** Energy Check signals convergence ****

  HOMO= 109 E= -5.923 eV LUMO=  5.982 eV gap=  11.904 eV

               *****************************************************
               *                     SUCCESS                       *
               *           SCF CONVERGED AFTER   2 CYCLES          *
               *****************************************************

Recomputing exchange energy using gridx3       ... done (    8.344 sec)
Old exchange energy                            :    -42.067168265 Eh
New exchange energy                            :    -42.067196271 Eh
Exchange energy change after final integration :     -0.000028005 Eh
Total energy after final integration           :  -1165.507268413 Eh
             **** ENERGY FILE WAS UPDATED (inpJ.en.tmp) ****

----------------
TOTAL SCF ENERGY
----------------

Total Energy       :      -1165.50726841272103 Eh          -31715.06514 eV

Components:
Nuclear Repulsion  :       2777.19929864599681 Eh           75571.43489 eV
Electronic Energy  :      -3942.69079473292641 Eh         -107286.07084 eV
One Electron Energy:      -7096.45609889295065 Eh         -193104.38769 eV
Two Electron Energy:       3153.76530416002424 Eh           85818.31685 eV
CPCM Dielectric    :         -0.01574432041033 Eh              -0.42842 eV

Virial components:
Potential Energy   :      -2322.40519592589862 Eh          -63195.85820 eV
Kinetic Energy     :       1156.89792751317736 Eh           31480.79306 eV
Virial Ratio       :          2.00744174632420

DFT components:
N(Alpha)           :      110.000194301701 electrons
N(Beta)            :      110.000194301701 electrons
N(Total)           :      220.000388603401 electrons
E(X)               :     -125.744930434284 Eh       
E(C)               :       -7.326273455529 Eh       
E(XC)              :     -133.071203889813 Eh       

CPCM Solvation Model Properties:
Surface-charge          :         -0.03315287041474
Corrected charge        :         -0.00000000000000
Outlying charge corr.   :          0.00003840607252 Eh               0.00105 eV
Free-energy (cav+disp)  :  This term is not implemented in the current solvation scheme

---------------
SCF CONVERGENCE
---------------

  Last Energy change         ...    3.1092e-08  Tolerance :   1.0000e-07
  Last MAX-Density change    ...    3.2169e-06  Tolerance :   1.0000e-05
  Last RMS-Density change    ...    3.1539e-08  Tolerance :   1.0000e-06
  Last DIIS Error            ...    3.8233e-06  Tolerance :   1.0000e-07


----------------
ORBITAL ENERGIES
----------------

  NO   OCC          E(Eh)            E(eV) 
   0   2.0000     -19.215121      -522.8700 
   1   2.0000     -10.301406      -280.3155 
   2   2.0000     -10.269558      -279.4489 
   3   2.0000     -10.266881      -279.3760 
   4   2.0000     -10.261770      -279.2370 
   5   2.0000     -10.256222      -279.0860 
   6   2.0000     -10.253493      -279.0117 
   7   2.0000     -10.251735      -278.9639 
   8   2.0000     -10.249379      -278.8998 
   9   2.0000     -10.249249      -278.8962 
  10   2.0000     -10.248435      -278.8741 
  11   2.0000     -10.246180      -278.8127 
  12   2.0000     -10.245284      -278.7883 
  13   2.0000     -10.245080      -278.7828 
  14   2.0000     -10.244169      -278.7580 
  15   2.0000     -10.243908      -278.7509 
  16   2.0000     -10.243113      -278.7293 
  17   2.0000     -10.242069      -278.7009 
  18   2.0000     -10.241896      -278.6962 
  19   2.0000     -10.241167      -278.6763 
  20   2.0000     -10.239115      -278.6205 
  21   2.0000     -10.233553      -278.4691 
  22   2.0000     -10.233427      -278.4657 
  23   2.0000     -10.232464      -278.4395 
  24   2.0000     -10.226999      -278.2908 
  25   2.0000     -10.225597      -278.2526 
  26   2.0000     -10.224769      -278.2301 
  27   2.0000     -10.224152      -278.2133 
  28   2.0000     -10.220108      -278.1033 
  29   2.0000      -1.045939       -28.4614 
  30   2.0000      -0.900632       -24.5074 
  31   2.0000      -0.883663       -24.0457 
  32   2.0000      -0.859452       -23.3869 
  33   2.0000      -0.845125       -22.9970 
  34   2.0000      -0.822153       -22.3719 
  35   2.0000      -0.813756       -22.1434 
  36   2.0000      -0.795034       -21.6340 
  37   2.0000      -0.794779       -21.6270 
  38   2.0000      -0.777172       -21.1479 
  39   2.0000      -0.757365       -20.6089 
  40   2.0000      -0.739156       -20.1134 
  41   2.0000      -0.733758       -19.9666 
  42   2.0000      -0.713783       -19.4230 
  43   2.0000      -0.703462       -19.1422 
  44   2.0000      -0.699432       -19.0325 
  45   2.0000      -0.693594       -18.8737 
  46   2.0000      -0.668882       -18.2012 
  47   2.0000      -0.662546       -18.0288 
  48   2.0000      -0.632130       -17.2011 
  49   2.0000      -0.621891       -16.9225 
  50   2.0000      -0.619434       -16.8557 
  51   2.0000      -0.608992       -16.5715 
  52   2.0000      -0.596767       -16.2389 
  53   2.0000      -0.580030       -15.7834 
  54   2.0000      -0.562219       -15.2988 
  55   2.0000      -0.544158       -14.8073 
  56   2.0000      -0.539114       -14.6700 
  57   2.0000      -0.529697       -14.4138 
  58   2.0000      -0.515058       -14.0154 
  59   2.0000      -0.508784       -13.8447 
  60   2.0000      -0.500188       -13.6108 
  61   2.0000      -0.491636       -13.3781 
  62   2.0000      -0.480939       -13.0870 
  63   2.0000      -0.479408       -13.0454 
  64   2.0000      -0.476134       -12.9563 
  65   2.0000      -0.473117       -12.8742 
  66   2.0000      -0.464087       -12.6285 
  67   2.0000      -0.457011       -12.4359 
  68   2.0000      -0.456062       -12.4101 
  69   2.0000      -0.450847       -12.2682 
  70   2.0000      -0.449267       -12.2252 
  71   2.0000      -0.441499       -12.0138 
  72   2.0000      -0.435324       -11.8458 
  73   2.0000      -0.430678       -11.7193 
  74   2.0000      -0.426180       -11.5970 
  75   2.0000      -0.416558       -11.3351 
  76   2.0000      -0.415595       -11.3089 
  77   2.0000      -0.414032       -11.2664 
  78   2.0000      -0.407201       -11.0805 
  79   2.0000      -0.403733       -10.9861 
  80   2.0000      -0.402603       -10.9554 
  81   2.0000      -0.398454       -10.8425 
  82   2.0000      -0.397160       -10.8073 
  83   2.0000      -0.391641       -10.6571 
  84   2.0000      -0.387330       -10.5398 
  85   2.0000      -0.385016       -10.4768 
  86   2.0000      -0.378336       -10.2951 
  87   2.0000      -0.377261       -10.2658 
  88   2.0000      -0.368191       -10.0190 
  89   2.0000      -0.367264        -9.9937 
  90   2.0000      -0.362682        -9.8691 
  91   2.0000      -0.359076        -9.7710 
  92   2.0000      -0.355627        -9.6771 
  93   2.0000      -0.344139        -9.3645 
  94   2.0000      -0.340640        -9.2693 
  95   2.0000      -0.337382        -9.1806 
  96   2.0000      -0.333289        -9.0693 
  97   2.0000      -0.331515        -9.0210 
  98   2.0000      -0.329944        -8.9782 
  99   2.0000      -0.327723        -8.9178 
 100   2.0000      -0.326029        -8.8717 
 101   2.0000      -0.324664        -8.8345 
 102   2.0000      -0.316841        -8.6217 
 103   2.0000      -0.315294        -8.5796 
 104   2.0000      -0.310974        -8.4620 
 105   2.0000      -0.299426        -8.1478 
 106   2.0000      -0.280009        -7.6194 
 107   2.0000      -0.274863        -7.4794 
 108   2.0000      -0.256756        -6.9867 
 109   2.0000      -0.217654        -5.9227 
 110   0.0000      -0.030180        -0.8212 
 111   0.0000       0.021392         0.5821 
 112   0.0000       0.026169         0.7121 
 113   0.0000       0.079480         2.1628 
 114   0.0000       0.089678         2.4403 
 115   0.0000       0.102025         2.7762 
 116   0.0000       0.103291         2.8107 
 117   0.0000       0.107979         2.9383 
 118   0.0000       0.111317         3.0291 
 119   0.0000       0.112362         3.0575 
 120   0.0000       0.118587         3.2269 
*Only the first 10 virtual orbitals were printed.

                    ********************************
                    * MULLIKEN POPULATION ANALYSIS *
                    ********************************

-----------------------
MULLIKEN ATOMIC CHARGES
-----------------------
   0 C :    0.107883
   1 C :   -0.499862
   2 C :   -0.054837
   3 H :    0.207252
   4 H :    0.222140
   5 C :    0.135608
   6 C :   -0.475828
   7 C :   -0.451685
   8 H :    0.214147
   9 H :    0.224045
  10 H :    0.229136
  11 H :    0.204653
  12 O :   -0.487395
  13 H :    0.233879
  14 C :   -0.283475
  15 C :   -0.516471
  16 H :    0.201443
  17 H :    0.196688
  18 C :   -0.259267
  19 H :    0.217636
  20 C :    0.149690
  21 H :    0.219502
  22 C :   -0.479970
  23 C :   -0.427405
  24 H :    0.211494
  25 H :    0.206532
  26 C :   -0.396609
  27 H :    0.207967
  28 H :    0.216863
  29 C :    0.004111
  30 H :    0.222399
  31 H :    0.194201
  32 C :   -0.229216
  33 H :    0.226729
  34 C :   -0.433261
  35 H :    0.343129
  36 C :   -0.422530
  37 H :    0.206859
  38 H :    0.198292
  39 C :   -0.197936
  40 H :    0.212651
  41 H :    0.204901
  42 H :    0.209570
  43 C :   -0.241372
  44 C :   -0.629346
  45 H :    0.209338
  46 H :    0.201332
  47 H :    0.205134
  48 H :    0.220162
  49 C :   -0.619451
  50 C :   -0.178714
  51 C :   -0.181172
  52 H :    0.210541
  53 H :    0.216290
  54 C :   -0.241589
  55 C :   -0.626662
  56 C :   -0.197535
  57 H :    0.222722
  58 H :    0.220821
  59 C :   -0.612192
  60 C :   -0.622242
  61 H :    0.202972
  62 H :    0.198130
  63 H :    0.208031
  64 H :    0.204220
  65 H :    0.200778
  66 H :    0.197883
  67 H :    0.197826
  68 H :    0.208714
  69 H :    0.203307
  70 H :    0.204532
  71 H :    0.208165
  72 H :    0.195722
Sum of atomic charges:   -0.0000000

--------------------------------
MULLIKEN REDUCED ORBITAL CHARGES
--------------------------------
  0 C s       :     3.355806  s :     3.355806
      pz      :     1.009472  p :     2.536311
      px      :     0.793172
      py      :     0.733668

  1 C s       :     3.383662  s :     3.383662
      pz      :     1.012809  p :     3.116199
      px      :     0.952374
      py      :     1.151016

  2 C s       :     3.306309  s :     3.306309
      pz      :     1.055677  p :     2.748528
      px      :     0.804395
      py      :     0.888456

  3 H s       :     0.792748  s :     0.792748

  4 H s       :     0.777860  s :     0.777860

  5 C s       :     3.345302  s :     3.345302
      pz      :     0.826766  p :     2.519090
      px      :     0.943908
      py      :     0.748415

  6 C s       :     3.368386  s :     3.368386
      pz      :     1.019914  p :     3.107442
      px      :     0.949674
      py      :     1.137854

  7 C s       :     3.340427  s :     3.340427
      pz      :     1.195326  p :     3.111258
      px      :     0.995245
      py      :     0.920687

  8 H s       :     0.785853  s :     0.785853

  9 H s       :     0.775955  s :     0.775955

 10 H s       :     0.770864  s :     0.770864

 11 H s       :     0.795347  s :     0.795347

 12 O s       :     3.685537  s :     3.685537
      pz      :     1.659564  p :     4.801858
      px      :     1.288578
      py      :     1.853716

 13 H s       :     0.766121  s :     0.766121

 14 C s       :     3.392515  s :     3.392515
      pz      :     1.004669  p :     2.890960
      px      :     0.796058
      py      :     1.090233

 15 C s       :     3.386937  s :     3.386937
      pz      :     1.008290  p :     3.129535
      px      :     1.017317
      py      :     1.103928

 16 H s       :     0.798557  s :     0.798557

 17 H s       :     0.803312  s :     0.803312

 18 C s       :     3.396635  s :     3.396635
      pz      :     1.025706  p :     2.862632
      px      :     0.746436
      py      :     1.090490

 19 H s       :     0.782364  s :     0.782364

 20 C s       :     3.350664  s :     3.350664
      pz      :     0.952139  p :     2.499645
      px      :     0.751748
      py      :     0.795759

 21 H s       :     0.780498  s :     0.780498

 22 C s       :     3.372616  s :     3.372616
      pz      :     1.108016  p :     3.107354
      px      :     1.114287
      py      :     0.885051

 23 C s       :     3.327177  s :     3.327177
      pz      :     1.105228  p :     3.100228
      px      :     0.894439
      py      :     1.100561

 24 H s       :     0.788506  s :     0.788506

 25 H s       :     0.793468  s :     0.793468

 26 C s       :     3.349362  s :     3.349362
      pz      :     1.170390  p :     3.047247
      px      :     0.966920
      py      :     0.909938

 27 H s       :     0.792033  s :     0.792033

 28 H s       :     0.783137  s :     0.783137

 29 C s       :     3.317481  s :     3.317481
      pz      :     0.871157  p :     2.678407
      px      :     0.905273
      py      :     0.901977

 30 H s       :     0.777601  s :     0.777601

 31 H s       :     0.805799  s :     0.805799

 32 C s       :     3.362307  s :     3.362307
      pz      :     1.084528  p :     2.866909
      px      :     0.873044
      py      :     0.909336

 33 H s       :     0.773271  s :     0.773271

 34 C s       :     3.343903  s :     3.343903
      pz      :     1.186534  p :     3.089358
      px      :     0.940592
      py      :     0.962233

 35 H s       :     0.656871  s :     0.656871

 36 C s       :     3.338550  s :     3.338550
      pz      :     1.176336  p :     3.083980
      px      :     0.931261
      py      :     0.976383

 37 H s       :     0.793141  s :     0.793141

 38 H s       :     0.801708  s :     0.801708

 39 C s       :     3.342139  s :     3.342139
      pz      :     1.072746  p :     2.855797
      px      :     0.868220
      py      :     0.914831

 40 H s       :     0.787349  s :     0.787349

 41 H s       :     0.795099  s :     0.795099

 42 H s       :     0.790430  s :     0.790430

 43 C s       :     3.348127  s :     3.348127
      pz      :     1.060547  p :     2.893245
      px      :     0.887465
      py      :     0.945233

 44 C s       :     3.366352  s :     3.366352
      pz      :     0.953048  p :     3.262994
      px      :     1.157754
      py      :     1.152192

 45 H s       :     0.790662  s :     0.790662

 46 H s       :     0.798668  s :     0.798668

 47 H s       :     0.794866  s :     0.794866

 48 H s       :     0.779838  s :     0.779838

 49 C s       :     3.348288  s :     3.348288
      pz      :     1.154571  p :     3.271163
      px      :     1.151346
      py      :     0.965245

 50 C s       :     3.340874  s :     3.340874
      pz      :     0.903528  p :     2.837840
      px      :     0.960759
      py      :     0.973552

 51 C s       :     3.342927  s :     3.342927
      pz      :     0.908092  p :     2.838245
      px      :     0.949549
      py      :     0.980604

 52 H s       :     0.789459  s :     0.789459

 53 H s       :     0.783710  s :     0.783710

 54 C s       :     3.338362  s :     3.338362
      pz      :     1.054583  p :     2.903227
      px      :     0.963555
      py      :     0.885089

 55 C s       :     3.346508  s :     3.346508
      pz      :     1.071932  p :     3.280154
      px      :     1.113374
      py      :     1.094848

 56 C s       :     3.311767  s :     3.311767
      pz      :     1.003163  p :     2.885769
      px      :     0.951403
      py      :     0.931203

 57 H s       :     0.777278  s :     0.777278

 58 H s       :     0.779179  s :     0.779179

 59 C s       :     3.341479  s :     3.341479
      pz      :     1.160465  p :     3.270714
      px      :     1.002709
      py      :     1.107539

 60 C s       :     3.344568  s :     3.344568
      pz      :     1.008344  p :     3.277674
      px      :     1.105284
      py      :     1.164047

 61 H s       :     0.797028  s :     0.797028

 62 H s       :     0.801870  s :     0.801870

 63 H s       :     0.791969  s :     0.791969

 64 H s       :     0.795780  s :     0.795780

 65 H s       :     0.799222  s :     0.799222

 66 H s       :     0.802117  s :     0.802117

 67 H s       :     0.802174  s :     0.802174

 68 H s       :     0.791286  s :     0.791286

 69 H s       :     0.796693  s :     0.796693

 70 H s       :     0.795468  s :     0.795468

 71 H s       :     0.791835  s :     0.791835

 72 H s       :     0.804278  s :     0.804278


------------------------
MULLIKEN OVERLAP CHARGES
------------------------
B(  0-C ,  1-C ) :   0.4956 B(  0-C ,  2-C ) :  -0.1303 B(  0-C ,  3-H ) :  -0.0878 
B(  0-C ,  4-H ) :  -0.0673 B(  0-C ,  5-C ) :   0.4218 B(  0-C ,  6-C ) :  -0.1562 
B(  0-C , 14-C ) :   0.9466 B(  0-C , 15-C ) :  -0.2027 B(  0-C , 18-C ) :  -0.1837 
B(  0-C , 19-H ) :  -0.0751 B(  1-C ,  2-C ) :   0.5271 B(  1-C ,  3-H ) :   0.7957 
B(  1-C ,  4-H ) :   0.8138 B(  1-C ,  5-C ) :  -0.1483 B(  1-C ,  7-C ) :  -0.1690 
B(  1-C , 12-O ) :  -0.0832 B(  1-C , 13-H ) :  -0.0843 B(  1-C , 14-C ) :  -0.1076 
B(  2-C ,  3-H ) :  -0.0820 B(  2-C ,  4-H ) :  -0.0581 B(  2-C ,  6-C ) :  -0.1288 
B(  2-C ,  7-C ) :   0.5343 B(  2-C , 10-H ) :  -0.0697 B(  2-C , 11-H ) :  -0.0826 
B(  2-C , 12-O ) :   0.6902 B(  2-C , 13-H ) :   0.7985 B(  2-C , 35-H ) :  -0.1133 
B(  5-C ,  6-C ) :   0.5389 B(  5-C ,  7-C ) :  -0.1717 B(  5-C ,  8-H ) :  -0.0879 
B(  5-C ,  9-H ) :  -0.0737 B(  5-C , 14-C ) :  -0.1962 B(  5-C , 15-C ) :   1.0580 
B(  5-C , 16-H ) :  -0.0994 B(  5-C , 17-H ) :  -0.0943 B(  6-C ,  7-C ) :   0.5411 
B(  6-C ,  8-H ) :   0.8037 B(  6-C ,  9-H ) :   0.8190 B(  6-C , 11-H ) :  -0.0739 
B(  6-C , 15-C ) :  -0.1291 B(  7-C ,  8-H ) :  -0.0769 B(  7-C , 10-H ) :   0.8059 
B(  7-C , 11-H ) :   0.7944 B(  7-C , 12-O ) :  -0.0901 B(  7-C , 13-H ) :  -0.0843 
B( 12-O , 35-H ) :   0.6600 B( 14-C , 18-C ) :   0.6128 B( 14-C , 19-H ) :   0.8252 
B( 14-C , 20-C ) :  -0.1953 B( 14-C , 21-H ) :  -0.0735 B( 15-C , 16-H ) :   0.8143 
B( 15-C , 17-H ) :   0.8068 B( 18-C , 19-H ) :  -0.0610 B( 18-C , 20-C ) :   0.9228 
B( 18-C , 21-H ) :   0.8314 B( 18-C , 22-C ) :  -0.1497 B( 18-C , 32-C ) :  -0.1481 
B( 20-C , 21-H ) :  -0.0847 B( 20-C , 22-C ) :   0.5322 B( 20-C , 23-C ) :  -0.1695 
B( 20-C , 24-H ) :  -0.0669 B( 20-C , 25-H ) :  -0.0932 B( 20-C , 29-C ) :  -0.1249 
B( 20-C , 32-C ) :   0.5176 B( 20-C , 33-H ) :  -0.0920 B( 20-C , 34-C ) :  -0.0992 
[...]
        0.0000         1.6149        0.0000
        0.0000         0.0000        1.6149

 Diagonalized JT*J matrix:
 
 J[55,60](FC)             1.615            1.615            1.615  iso=      1.615
                ---------------  ---------------  ---------------  ---------------
 J[55,60](Total)          1.615            1.615            1.615  iso=      1.615



-----------------------------------------------------------
 NUCLEUS A = C   56 NUCLEUS B = C   59 
 ( 13C  gnA =  1.405  13C  gnB =  1.405) r(AB) =     1.5311
-----------------------------------------------------------

Fermi-contact contribution to J (Hz):
       26.2395         0.0000        0.0000
        0.0000        26.2395        0.0000
        0.0000         0.0000       26.2395

Total spin-spin coupling tensor J (Hz):
       26.2395         0.0000        0.0000
        0.0000        26.2395        0.0000
        0.0000         0.0000       26.2395

 Diagonalized JT*J matrix:
 
 J[56,59](FC)            26.240           26.240           26.240  iso=     26.240
                ---------------  ---------------  ---------------  ---------------
 J[56,59](Total)         26.240           26.240           26.240  iso=     26.240



-----------------------------------------------------------
 NUCLEUS A = C   56 NUCLEUS B = C   60 
 ( 13C  gnA =  1.405  13C  gnB =  1.405) r(AB) =     1.5307
-----------------------------------------------------------

Fermi-contact contribution to J (Hz):
       26.2337         0.0000        0.0000
        0.0000        26.2337        0.0000
        0.0000         0.0000       26.2337

Total spin-spin coupling tensor J (Hz):
       26.2337         0.0000        0.0000
        0.0000        26.2337        0.0000
        0.0000         0.0000       26.2337

 Diagonalized JT*J matrix:
 
 J[56,60](FC)            26.234           26.234           26.234  iso=     26.234
                ---------------  ---------------  ---------------  ---------------
 J[56,60](Total)         26.234           26.234           26.234  iso=     26.234



-----------------------------------------------------------
 NUCLEUS A = C   59 NUCLEUS B = C   60 
 ( 13C  gnA =  1.405  13C  gnB =  1.405) r(AB) =     2.5138
-----------------------------------------------------------

Fermi-contact contribution to J (Hz):
       -0.8463         0.0000        0.0000
        0.0000        -0.8463        0.0000
        0.0000         0.0000       -0.8463

Total spin-spin coupling tensor J (Hz):
       -0.8463         0.0000        0.0000
        0.0000        -0.8463        0.0000
        0.0000         0.0000       -0.8463

 Diagonalized JT*J matrix:
 
 J[59,60](FC)            -0.846           -0.846           -0.846  iso=     -0.846
                ---------------  ---------------  ---------------  ---------------
 J[59,60](Total)         -0.846           -0.846           -0.846  iso=     -0.846



-----------------------------------------------------------------------------
                SUMMARY OF ISOTROPIC COUPLING CONSTANTS J (Hz)                
-----------------------------------------------------------------------------
                  0 C        1 C        2 C        5 C        6 C        7 C  
      0 C        0.000     32.391     -2.359     42.221     -0.176      0.881
      1 C       32.391      0.000     25.393     -1.184      0.379     -0.397
      2 C       -2.359     25.393      0.000      2.031     -1.354     25.835
      5 C       42.221     -1.184      2.031      0.000     31.038     -2.901
      6 C       -0.176      0.379     -1.354     31.038      0.000     23.081
      7 C        0.881     -0.397     25.835     -2.901     23.081      0.000
     14 C       70.298     -0.394      3.573     -3.194      2.735     -0.707
     15 C       -3.287      2.724     -0.829     64.279     -0.889      2.835
     18 C       -2.633      4.222     -1.056      3.284     -1.013      0.207
     20 C        6.952     -1.149      1.241     -1.507      0.780     -0.146
     22 C       -0.945      0.332     -0.376      0.445     -0.235      0.046
     23 C        0.778     -0.264      0.283     -0.325      0.185      0.000
     26 C       -0.074      0.029      0.000      0.040      0.000      0.000
     29 C        1.114     -0.356      0.000     -0.482      0.254      0.000
     32 C       -1.152      0.555     -0.410      0.515     -0.276      0.058
     34 C        0.021     -0.015      0.016     -0.017      0.008     -0.002
     36 C       -0.012      0.000      0.000      0.015     -0.008      0.000
     39 C       -0.078      0.000      0.000      0.033      0.000      0.000
     43 C        0.000      0.000      0.000      0.000      0.000      0.000
     44 C        0.012     -0.004      0.005     -0.007      0.006     -0.001
     49 C        0.000      0.000      0.000      0.000      0.000      0.000
     50 C        0.000      0.000      0.000      0.000      0.000      0.000
     51 C        0.000      0.000      0.000      0.000      0.000      0.000
     54 C        0.000      0.000      0.000      0.000      0.000      0.000
     55 C        0.000      0.000      0.000      0.000      0.000      0.000
     56 C        0.000      0.000      0.000      0.000      0.000      0.000
     59 C        0.000      0.000      0.000      0.000      0.000      0.000
     60 C        0.000      0.000      0.000      0.000      0.000      0.000
                 14 C       15 C       18 C       20 C       22 C       23 C  
      0 C       70.298     -3.287     -2.633      6.952     -0.945      0.778
      1 C       -0.394      2.724      4.222     -1.149      0.332     -0.264
      2 C        3.573     -0.829     -1.056      1.241     -0.376      0.283
      5 C       -3.194     64.279      3.284     -1.507      0.445     -0.325
      6 C        2.735     -0.889     -1.013      0.780     -0.235      0.185
      7 C       -0.707      2.835      0.207     -0.146      0.046      0.000
     14 C        0.000      3.066     54.463     -2.784      3.848     -0.870
     15 C        3.066      0.000     -1.121      1.067     -0.274      0.231
     18 C       54.463     -1.121      0.000     70.080     -2.181      2.463
     20 C       -2.784      1.067     70.080      0.000     32.204     -2.831
     22 C        3.848     -0.274     -2.181     32.204      0.000     24.526
     23 C       -0.870      0.231      2.463     -2.831     24.526      0.000
     26 C        0.111     -0.019     -0.366      1.028     -1.929     25.430
     29 C       -1.138      0.337      2.398     -2.338      1.113     -2.187
     32 C        4.410     -0.337     -1.328     37.061     -0.262      1.506
     34 C        0.067      0.004      2.459     -1.319      1.592     -0.252
     36 C        0.011     -0.014     -0.155      3.522      0.059      0.179
     39 C        0.267     -0.023     -0.037      2.934     -0.338      2.550
     43 C        0.010      0.000      0.302      0.192      0.002     -0.109
     44 C       -0.002      0.004     -0.067      0.707     -0.137      0.638
     49 C       -0.001      0.000     -0.010     -0.037      0.138      0.038
     50 C        0.000      0.000      0.032      0.151     -0.010      0.134
     51 C        0.000      0.000     -0.006      0.042     -0.002     -0.006
     54 C        0.000      0.000      0.000      0.000      0.000      0.000
     55 C        0.000      0.000      0.000      0.000      0.000      0.000
     56 C        0.000      0.000      0.000      0.000      0.000      0.000
     59 C        0.000      0.000      0.000      0.000      0.000      0.000
     60 C        0.000      0.000      0.000      0.001      0.000      0.000
                 26 C       29 C       32 C       34 C       36 C       39 C  
      0 C       -0.074      1.114     -1.152      0.021     -0.012     -0.078
      1 C        0.029     -0.356      0.555     -0.015      0.000      0.000
      2 C        0.000      0.000     -0.410      0.016      0.000      0.000
      5 C        0.040     -0.482      0.515     -0.017      0.015      0.033
      6 C        0.000      0.254     -0.276      0.008     -0.008      0.000
      7 C        0.000      0.000      0.058     -0.002      0.000      0.000
     14 C        0.111     -1.138      4.410      0.067      0.011      0.267
     15 C       -0.019      0.337     -0.337      0.004     -0.014     -0.023
     18 C       -0.366      2.398     -1.328      2.459     -0.155     -0.037
     20 C        1.028     -2.338     37.061     -1.319      3.522      2.934
     22 C       -1.929      1.113     -0.262      1.592      0.059     -0.338
     23 C       25.430     -2.187      1.506     -0.252      0.179      2.550
     26 C        0.000     27.821     -0.949      2.326      3.034     -0.598
     29 C       27.821      0.000     23.456      0.911      0.565     28.936
     32 C       -0.949     23.456      0.000     27.892      1.327      3.508
     34 C        2.326      0.911     27.892      0.000     25.898      0.079
     36 C        3.034      0.565      1.327     25.898      0.000     26.285
     39 C       -0.598     28.936      3.508      0.079     26.285      0.000
     43 C       -0.012     -0.676      2.731      1.661      0.239     30.450
     44 C       -0.555     27.276     -0.927      0.820      0.253     -1.222
     49 C        0.352      0.207      0.002     -0.008      3.128     -1.011
     50 C       -0.093      3.333      0.010     -0.054      0.602     -1.659
     51 C        0.017     -0.098      0.041      0.000      0.072      2.090
     54 C        0.004      0.024     -0.002     -0.003      0.033     -0.180
     55 C        0.002     -0.023      0.004      0.002     -0.037      0.054
     56 C        0.000     -0.002      0.000     -0.004     -0.056      0.094
     59 C        0.000      0.000      0.000     -0.001     -0.005      0.002
     60 C       -0.000     -0.000      0.003     -0.002      0.014     -0.005
                 43 C       44 C       49 C       50 C       51 C       54 C  
      0 C        0.000      0.012      0.000      0.000      0.000      0.000
      1 C        0.000     -0.004      0.000      0.000      0.000      0.000
      2 C        0.000      0.005      0.000      0.000      0.000      0.000
      5 C        0.000     -0.007      0.000      0.000      0.000      0.000
      6 C        0.000      0.006      0.000      0.000      0.000      0.000
      7 C        0.000     -0.001      0.000      0.000      0.000      0.000
     14 C        0.010     -0.002     -0.001      0.000      0.000      0.000
     15 C        0.000      0.004      0.000      0.000      0.000      0.000
     18 C        0.302     -0.067     -0.010      0.032     -0.006      0.000
     20 C        0.192      0.707     -0.037      0.151      0.042      0.000
     22 C        0.002     -0.137      0.138     -0.010     -0.002      0.000
     23 C       -0.109      0.638      0.038      0.134     -0.006      0.000
     26 C       -0.012     -0.555      0.352     -0.093      0.017      0.004
     29 C       -0.676     27.276      0.207      3.333     -0.098      0.024
     32 C        2.731     -0.927      0.002      0.010      0.041     -0.002
     34 C        1.661      0.820     -0.008     -0.054      0.000     -0.003
     36 C        0.239      0.253      3.128      0.602      0.072      0.033
     39 C       30.450     -1.222     -1.011     -1.659      2.090     -0.180
     43 C        0.000      1.499     24.902     35.240     -1.706      3.837
     44 C        1.499      0.000     -0.088     -0.146      0.134      0.022
     49 C       24.902     -0.088      0.000     -3.458      3.440     -1.030
     50 C       35.240     -0.146     -3.458      0.000     68.386     -0.261
     51 C       -1.706      0.134      3.440     68.386      0.000     36.665
     54 C        3.837      0.022     -1.030     -0.261     36.665      0.000
     55 C       -0.529      0.015      1.245      3.668     -2.138     26.149
     56 C       -0.696      0.023      1.423      3.134     -2.316     25.598
     59 C        0.055      0.000      0.085     -0.007      3.039     -0.437
     60 C        0.023     -0.002     -0.039     -0.115      0.982     -1.631
                 55 C       56 C       59 C       60 C  
      0 C        0.000      0.000      0.000      0.000
      1 C        0.000      0.000      0.000      0.000
      2 C        0.000      0.000      0.000      0.000
      5 C        0.000      0.000      0.000      0.000
      6 C        0.000      0.000      0.000      0.000
      7 C        0.000      0.000      0.000      0.000
     14 C        0.000      0.000      0.000      0.000
     15 C        0.000      0.000      0.000      0.000
     18 C        0.000      0.000      0.000      0.000
     20 C        0.000      0.000      0.000      0.001
     22 C        0.000      0.000      0.000      0.000
     23 C        0.000      0.000      0.000      0.000
     26 C        0.002      0.000      0.000     -0.000
     29 C       -0.023     -0.002      0.000     -0.000
     32 C        0.004      0.000      0.000      0.003
     34 C        0.002     -0.004     -0.001     -0.002
     36 C       -0.037     -0.056     -0.005      0.014
     39 C        0.054      0.094      0.002     -0.005
     43 C       -0.529     -0.696      0.055      0.023
     44 C        0.015      0.023      0.000     -0.002
     49 C        1.245      1.423      0.085     -0.039
     50 C        3.668      3.134     -0.007     -0.115
     51 C       -2.138     -2.316      3.039      0.982
     54 C       26.149     25.598     -0.437     -1.631
     55 C        0.000     -1.908      0.726      1.615
     56 C       -1.908      0.000     26.240     26.234
     59 C        0.726     26.240      0.000     -0.846
     60 C        1.615     26.234     -0.846      0.000

NMR spin-spin coupling calculation done in   0.3 sec 

Maximum memory used throughout the entire PROP-calculation: 34.2 MB

--------------------------------
SUGGESTED CITATIONS FOR THIS RUN
--------------------------------

Below you find a list of papers that are relevant to this ORCA run
We neither can nor want to force you to cite these papers, but we appreciate if you do
You receive ORCA, which is the product of decades of hard work by many enthusiastic individuals, for free
The only thing we kindly ask in return is that you cite our papers,
We deeply appreciate it, if you show your appreciation for ORCA by not just citing the generic ORCA reference.

Please note that relegating all ORCA citations to the supporting information does *not* help us.
SI sections are not indexed - citations you put there will not count into any citation statistics
But we need these citations in order to attract the funding resources that allow us to do what we are doing

Therefore, if you are a happy ORCA user, please consider citing a few of the papers listed below in the main body of your paper

In addition to the list printed below, the program has created the file inpJ.bibtex that contains the list in bibtex format
You can import this file easily into all common literature databanks and citation aid programs


List of essential papers. We consider these as the minimum necessary citations

  1. Neese,F.
     Software update: the ORCA program system, version 5.0
     WIRES Comput. Molec. Sci., 2022 12(1)e1606
     doi.org/10.1002/wcms.1606

List of papers to cite with high priority. The work reported in these papers was absolutely
necessary for this run to complete.
Our perspective: the developers of density functionals and basis sets usually get cited in chemistry papers
Good! But without the algorithms to do something with them, the functionals or basis sets would not do anything.
Hence, in our opinion, the algorithm design and method developments papers are equally worthy of getting cited

  1. Neese,F.
     An improvement of the resolution of the identity approximation for the formation of the Coulomb matrix
     J. Comp. Chem., 2003 24(14)1740-1747
     doi.org/10.1002/jcc.10318
  2. Neese,F.; Wennmohs,F.; Hansen,A.; Becker,U.
     Efficient, approximate and parallel Hartree-Fock and hybrid DFT calculations. A 'chain-of-spheres' algorithm for the Hartree-Fock exchange
     Chem. Phys., 2009 356(1-3)98-109
     doi.org/10.1016/j.chemphys.2008.10.036
  3. Stoychev,G.L.; Auer,A.A.; Izsak,R.; Neese,F.
     Self-Consistent Field Calculation of Nuclear Magnetic Resonance Chemical Shielding Constants Using Gauge-Including Atomic Orbitals and Approximate Two-Electron Integrals
     J. Chem. Theory Comput., 2018 14(2)619-637
     doi.org/10.1021/acs.jctc.7b01006
  4. Garcia-Rates,M.; Neese,F.
     Effect of the Solute Cavity on the Solvation Energy and its Derivatives within the Framework of the Gaussian Charge Scheme
     J. Comput. Chem., 2020 41 922-939
     doi.org/10.1002/jcc.26139
  5. Helmich-Paris,B.; de Souza,B.; Neese,F.; Izsák,R.
     An improved chain of spheres for exchange algorithm
     J. Chem. Phys., 2021 155 104109
     doi.org/doi: 10.1063/5.0058766.
  6. Neese,F.
     The SHARK Integral Generation and Digestion System
     J. Comp. Chem., 2022  1-16
     doi.org/10.1002/jcc.26942
  7. Grimme,S.; Bannwarth,C.; Dohm,S.; Hansen,A.; Pisarek,J.; Pracht,P.; Seibert,J.; Neese,F.
     Fully Automated Quantum-Chemistry-Based Computation of Spin-Spin-Coupled Nuclear Magnetic Resonance Spectra
     Angew. Chem., Int. Ed., 2017 56 14763-14769
     doi.org/10.1002/anie.201708266
  8. Caldeweyher,E.; Bannwarth,C.; Grimme,S.
     Extension of the D3 dispersion coefficient model
     J. Chem. Phys., 2017 147 034112-XXXX
     doi.org/10.1063/1.4993215
  9. Caldeweyher,E.; Ehlert,S.; Hansen,A.; Neugebauer,H.; Spicher,S.; Bannwarth,C.; Grimme,S.
     A generally applicable atomic-charge dependent London dispersion correction
     J. Chem. Phys., 2019 150 154122-XXXX
     doi.org/10.1063/1.5090222
 10. Caldeweyher,E.; Mewes,J.; Ehlert,S.; Grimme,S.
     Extension and evaluation of the D4 London-dispersion model for periodic systems
     Phys. Chem. Chem. Phys., 2020 22(16)8499-8512
     doi.org/10.1039/D0CP00502A

List of suggested additional citations. These are papers that are important in the 'surrounding' of 
of this run, or papers that preceded the highly important papers. If you like your results we are grateful for a citation.

  1. Izsak,R.; Neese,F.
     An overlap fitted chain of spheres exchange method
     J. Chem. Phys., 2011 135 144105
     doi.org/10.1063/1.3646921
  2. Izsak,R.; Hansen,A.; Neese,F.
     The resolution of identity and chain of spheres approximations for the LPNO-CCSD singles Fock term
     Molec. Phys., 2012 110 2413-2417
     doi.org/10.1080/00268976.2012.687466
  3. Neese,F.
     The ORCA program system
     WIRES Comput. Molec. Sci., 2012 2(1)73-78
     doi.org/10.1002/wcms.81
  4. Izsak,R.; Neese,F.; Klopper,W.
     Robust fitting techniques in the chain of spheres approximation to the Fock exchange: The role of the complementary space
     J. Chem. Phys., 2013 139 
     doi.org/10.1063/1.4819264
  5. Neese,F.
     Software update: the ORCA program system, version 4.0
     WIRES Comput. Molec. Sci., 2018 8(1)1-6
     doi.org/10.1002/wcms.1327
  6. Neese,F.; Wennmohs,F.; Becker,U.; Riplinger,C.
     The ORCA quantum chemistry program package
     J. Chem. Phys., 2020 152 Art. No. L224108
     doi.org/10.1063/5.0004608

Timings for individual modules:

Sum of individual times          ...      137.076 sec (=   2.285 min)
Startup calculation              ...        4.027 sec (=   0.067 min)   2.9 %
SCF iterations                   ...       18.987 sec (=   0.316 min)  13.9 %
Property integrals               ...        0.794 sec (=   0.013 min)   0.6 %
SCF Response                     ...      112.738 sec (=   1.879 min)  82.2 %
Property calculations            ...        0.531 sec (=   0.009 min)   0.4 %
                             ****ORCA TERMINATED NORMALLY****
TOTAL RUN TIME: 0 days 0 hours 2 minutes 17 seconds 363 msec
