
                                 *****************
                                 * O   R   C   A *
                                 *****************

                                            #,                                       
                                            ###                                      
                                            ####                                     
                                            #####                                    
                                            ######                                   
                                           ########,                                 
                                     ,,################,,,,,                         
                               ,,#################################,,                 
                          ,,##########################################,,             
                       ,#########################################, ''#####,          
                    ,#############################################,,   '####,        
                  ,##################################################,,,,####,       
                ,###########''''           ''''###############################       
              ,#####''   ,,,,##########,,,,          '''####'''          '####       
            ,##' ,,,,###########################,,,                        '##       
           ' ,,###''''                  '''############,,,                           
         ,,##''                                '''############,,,,        ,,,,,,###''
      ,#''                                            '''#######################'''  
     '                                                          ''''####''''         
             ,#######,   #######,   ,#######,      ##                                
            ,#'     '#,  ##    ##  ,#'     '#,    #''#        ,####,   ,####,        
            ##       ##  ##   ,#'  ##            #'  '#       #'       #'  '#        
            ##       ##  #######   ##           ,######,      #####,   #    #        
            '#,     ,#'  ##    ##  '#,     ,#' ,#      #,     #,   #   #,  ,#        
             '#######'   ##     ##  '#######'  #'      '#     '####' # '####'        



                #########################################################
                #                        -***-                          #
                #          Department of theory and spectroscopy        #
                #                                                       #
                #                      Frank Neese                      #
                #                                                       #
                #     Directorship, Architecture, Infrastructure        #
                #                    SHARK, DRIVERS                     #
                #        Core code/Algorithms in most modules           #
                #                                                       #
                #        Max Planck Institute fuer Kohlenforschung      #
                #                Kaiser Wilhelm Platz 1                 #
                #                 D-45470 Muelheim/Ruhr                 #
                #                      Germany                          #
                #                                                       #
                #                  All rights reserved                  #
                #                        -***-                          #
                #########################################################


                         Program Version 6.0.0  -   RELEASE  -


 With contributions from (in alphabetic order):
   Daniel Aravena         : Magnetic Suceptibility
   Michael Atanasov       : Ab Initio Ligand Field Theory (pilot matlab implementation)
   Alexander A. Auer      : GIAO ZORA, VPT2 properties, NMR spectrum
   Ute Becker             : All parallelization in ORCA, NUMFREQ, NUMCALC
   Giovanni Bistoni       : ED, misc. LED, open-shell LED, HFLD
   Martin Brehm           : Molecular dynamics
   Dmytro Bykov           : pre 5.0 version of the SCF Hessian
   Marcos Casanova-Páez   : Triplet and SCS-CIS(D). UHF-(DLPNO)-IP/EA/STEOM-CCSD. UHF-CVS-IP/STEOM-CCSD
   Vijay G. Chilkuri      : MRCI spin determinant printing, contributions to CSF-ICE
   Pauline Colinet        : FMM embedding
   Dipayan Datta          : RHF DLPNO-CCSD density
   Achintya Kumar Dutta   : EOM-CC, STEOM-CC
   Nicolas Foglia         : Exact transition moments, OPA infrastructure, MCD improvements
   Dmitry Ganyushin       : Spin-Orbit,Spin-Spin,Magnetic field MRCI
   Miquel Garcia          : C-PCM and meta-GGA Hessian, CCSD/C-PCM, Gaussian charge scheme
   Tiago L. C. Gouveia    : GS-ROHF, GS-ROCIS
   Yang Guo               : DLPNO-NEVPT2, F12-NEVPT2, CIM, IAO-localization
   Andreas Hansen         : Spin unrestricted coupled pair/coupled cluster methods
   Ingolf Harden          : AUTO-CI MPn and infrastructure 
   Benjamin Helmich-Paris : MC-RPA, TRAH-(SCF,CASSCF), AVAS, COSX integrals, SCF dyn. polar.
   Lee Huntington         : MR-EOM, pCC
   Robert Izsak           : Overlap fitted RIJCOSX, COSX-SCS-MP3, EOM
   Riya Kayal             : Wick's Theorem for AUTO-CI, AUTO-CI UHF-CCSDT
   Emily Kempfer          : AUTO-CI, RHF CISDT and CCSDT
   Christian Kollmar      : KDIIS, OOCD, Brueckner-CCSD(T), CCSD density, CASPT2, CASPT2-K, improved NEVPT2
   Axel Koslowski         : Symmetry handling
   Simone Kossmann        : Meta GGA functionals, TD-DFT gradient, OOMP2, (MP2 Hessian; deprecated post 5.0)
   Lucas Lang             : DCDCAS
   Marvin Lechner         : AUTO-CI (C++ implementation), FIC-MRCC
   Spencer Leger          : CASSCF response
   Dagmar Lenk            : GEPOL surface, SMD, ORCA-2-JSON
   Dimitrios Liakos       : Extrapolation schemes; Compound Job, initial MDCI parallelization
   Dimitrios Manganas     : Further ROCIS development; embedding schemes. LFT, Crystal Embedding
   Dimitrios Pantazis     : SARC Basis sets
   Anastasios Papadopoulos: AUTO-CI, single reference methods and gradients
   Taras Petrenko         : pre 6.0 DFT Hessian and TD-DFT gradient, (ASA, deprecated), ECA, 1-Electron XAS/XES, NRVS
   Peter Pinski           : DLPNO-MP2, DLPNO-MP2 Gradient
   Christoph Reimann      : Effective Core Potentials
   Marius Retegan         : Local ZFS, SOC
   Christoph Riplinger    : Optimizer, TS searches, QM/MM, DLPNO-CCSD(T), (RO)-DLPNO pert. Triples
   Michael Roemelt        : Original ROCIS implementation
   Masaaki Saitow         : Open-shell DLPNO-CCSD energy and density
   Barbara Sandhoefer     : DKH picture change effects
   Kantharuban Sivalingam : CASSCF convergence/infrastructure, NEVPT2 and variants, FIC-MRCI
   Bernardo de Souza      : ESD, SOC TD-DFT
   Georgi Stoychev        : AutoAux, RI-MP2 NMR, DLPNO-MP2 response, X2C
   Van Anh Tran           : RI-MP2 g-tensors
   Willem Van den Heuvel  : Paramagnetic NMR
   Zikuan Wang            : NOTCH, Electric field optimization 
   Frank Wennmohs         : Technical directorship and infrastructure
   Hang Xu                : AUTO-CI-Response properties 


 We gratefully acknowledge several colleagues who have allowed us to
 interface, adapt or use parts of their codes:
   Stefan Grimme, W. Hujo, H. Kruse, P. Pracht,  : VdW corrections, initial TS optimization,
                  C. Bannwarth, S. Ehlert,         DFT functionals, gCP, sTDA/sTD-DF
                  L. Wittmann, M. Mueller
   Ed Valeev, F. Pavosevic, A. Kumar             : LibInt (2-el integral package), F12 methods
   Garnet Chan, S. Sharma, J. Yang, R. Olivares  : DMRG
   Ulf Ekstrom                                   : XCFun DFT Library
   Mihaly Kallay                                 : mrcc  (arbitrary order and MRCC methods)
   Frank Weinhold                                : gennbo (NPA and NBO analysis)
   Simon Mueller                                 : openCOSMO-RS
   Christopher J. Cramer and Donald G. Truhlar   : smd solvation model
   Lars Goerigk                                  : TD-DFT with DH, B97 family of functionals
   V. Asgeirsson, H. Jonsson                     : NEB implementation
   FAccTs GmbH                                   : IRC, NEB, NEB-TS, DLPNO-Multilevel, CI-OPT
                                                   MM, QMMM, 2- and 3-layer-ONIOM, Crystal-QMMM,
                                                   LR-CPCM, SF, NACMEs, symmetry and pop. for TD-DFT,
                                                   nearIR, NL-DFT gradient (VV10), updates on ESD,
                                                   ML-optimized integration grids, MBIS, APM,
                                                   GOAT, DOCKER, SOLVATOR, interface openCOSMO-RS
   S Lehtola, MJT Oliveira, MAL Marques          : LibXC Library
   Liviu Ungur et al                             : ANISO software


 Your calculation uses the libint2 library for the computation of 2-el integrals
 For citations please refer to: http://libint.valeyev.net

 Your ORCA version has been built with support for libXC version: 6.2.2
 For citations please refer to: https://libxc.gitlab.io

 This ORCA versions uses:
   CBLAS   interface :  Fast vector & matrix operations
   LAPACKE interface :  Fast linear algebra routines
   SCALAPACK package :  Parallel linear algebra routines
   Shared memory     :  Shared parallel matrices
   BLAS/LAPACK       :  OpenBLAS 0.3.27  USE64BITINT DYNAMIC_ARCH NO_AFFINITY Zen SINGLE_THREADED
        Core in use  :  Zen
   Copyright (c) 2011-2014, The OpenBLAS Project


NOTE: MaxCore=8000 MB was set to SCF,MP2,MDCI,CIPSI,MRCI and CIS
      => If you want to overwrite this, your respective input block should be placed after the MaxCore statement
Your calculation utilizes the atom-pairwise dispersion correction
based on EEQ partial charges (D4)


================================================================================

----- Orbital basis set information -----
Your calculation utilizes the basis: def2-SVP
   F. Weigend and R. Ahlrichs, Phys. Chem. Chem. Phys. 7, 3297 (2005).

----- AuxJ basis set information -----
Your calculation utilizes the auxiliary basis: def2/J
   F. Weigend, Phys. Chem. Chem. Phys. 8, 1057 (2006).

================================================================================
                                        WARNINGS
                       Please study these warnings very carefully!
================================================================================

WARNING: Old DensityContainer found on disk!
         Will remove this file - 
         If you want to keep old densities, please start your calculation with a different basename. 


================================================================================
                                       INPUT FILE
================================================================================
NAME = inpS
|  1> ! wb97x-d4
|  2> ! def2-svp
|  3> ! def2/J RIJCOSX
|  4> ! DEFGRID2
|  5> ! scfconv7
|  6> ! smallprint printgap noloewdin
|  7> ! NOSOSCF
|  8> %MaxCore 8000
|  9> %output
| 10>        print[P_BondOrder_M] 1
| 11>        print[P_Mayer] 1
| 12>        print[P_basis] 2
| 13> end
| 14> %pal
| 15>     nprocs 4
| 16> end
| 17> ! CPCM(chloroform)
| 18> *xyz 0 1
| 19> C   -5.1915844600   0.2298407900   0.2225527800
| 20> C   -6.5730762500  -0.2863069200  -0.1055172300
| 21> C   -7.1471397600   0.3807702700  -1.3613304300
| 22> H   -7.2570472200  -0.0541635500   0.7285171600
| 23> H   -6.5593425300  -1.3742596000  -0.2332672900
| 24> C   -5.0869710800   1.7043387300   0.2547252000
| 25> C   -5.7053877400   2.4023627000  -0.9353431400
| 26> C   -7.1281831100   1.8978215700  -1.2120714500
| 27> H   -5.0853416300   2.1955376000  -1.8208816000
| 28> H   -5.7034762800   3.4865448900  -0.7811601000
| 29> H   -7.5266195100   2.3636649100  -2.1210474400
| 30> H   -7.7878641500   2.1776020100  -0.3767644400
| 31> O   -8.4623810200  -0.1095960700  -1.6527470100
| 32> H   -6.5388919600   0.0924266100  -2.2301172000
| 33> C   -4.1590794200  -0.6236085900   0.4207510800
| 34> C   -4.5358683100   2.3806279000   1.2692160200
| 35> H   -4.1202855600   1.8678402200   2.1321297900
| 36> H   -4.4988942500   3.4674686300   1.2621903500
| 37> C   -2.7787802800  -0.2623981800   0.6467098200
| 38> H   -4.3948575100  -1.6853216400   0.3620144000
| 39> C   -1.7643060300  -1.1073975100   0.9306543900
| 40> H   -2.5449912000   0.7969553600   0.5680644000
| 41> C   -1.8891415100  -2.5966911600   1.1318065300
| 42> C   -0.8878277900  -3.3822415700   0.2635762800
| 43> H   -2.9049796100  -2.9559812700   0.9455021700
| 44> H   -1.6667121100  -2.8114748700   2.1894745900
| 45> C    0.5496769600  -2.8621519700   0.4006013100
| 46> H   -1.2028487700  -3.3285211000  -0.7861418300
| 47> H   -0.9228815700  -4.4418863300   0.5450094300
| 48> C    0.6383738600  -1.3541415300   0.1264091500
| 49> H    1.1998588500  -3.4293555100  -0.2735895600
| 50> H    0.9062746700  -3.0505514500   1.4245203500
| 51> C   -0.3504703400  -0.6438402200   1.1034818200
| 52> H   -0.0348430300  -0.9785981600   2.1094956800
| 53> C    0.0117513400   0.8323685300   0.9857923200
| 54> H   -9.0333328100   0.1300432600  -0.9105387700
| 55> C    1.5520068600   0.8121696900   0.8333560200
| 56> H   -0.3203682700   1.4111752800   1.8542836400
| 57> H   -0.4591554300   1.2772425100   0.1018806800
| 58> C    1.9687705200  -0.6647535100   0.5446891900
| 59> H    2.0453544900   1.1848142900   1.7351252200
| 60> H    1.8778796200   1.4623694700   0.0126025900
| 61> H    2.2674041300  -1.1404697400   1.4921674100
| 62> C    3.1600546600  -0.7448558300  -0.4206434800
| 63> C    0.2810728600  -1.0376176400  -1.3326749800
| 64> H   -0.7758026300  -1.2375108500  -1.5340664700
| 65> H    0.8760808800  -1.6473565200  -2.0209692100
| 66> H    0.4653494700   0.0134900200  -1.5768077300
| 67> H    2.8655365200  -0.2349286500  -1.3515577700
| 68> C    3.5746107400  -2.1801446400  -0.7947101000
| 69> C    4.3935286500  -0.0318829300   0.0892922300
| 70> C    4.7061154500   0.2481592600   1.3542257200
| 71> H    5.1241114900   0.2180367800  -0.6854507100
| 72> H    4.0112228200  -0.0134561900   2.1537030200
| 73> C    5.9817594700   0.9166695400   1.7874522600
| 74> C    6.7292282100   0.0245912000   2.7895334600
| 75> C    5.7110693200   2.3511138700   2.3216524200
| 76> H    6.6151021400   1.0339381200   0.8953155800
| 77> H    5.1232711900   2.8527063900   1.5378037900
| 78> C    7.0104428600   3.1403036900   2.5037132400
| 79> C    4.8866882200   2.3768900800   3.6110844900
| 80> H    6.9771676800  -0.9356124700   2.3252319400
| 81> H    6.1134855300  -0.1836699200   3.6715634700
| 82> H    7.6626422800   0.4865461500   3.1272283100
| 83> H    6.7923801500   4.1875378600   2.7412249100
| 84> H    7.6211360200   3.1183074200   1.5937359600
| 85> H    7.6115518300   2.7357872200   3.3259928600
| 86> H    5.4418717300   1.9323031400   4.4451153000
| 87> H    3.9402720600   1.8365100500   3.5046198300
| 88> H    4.6503097400   3.4103867500   3.8878135200
| 89> H    4.5121191400  -2.1693900400  -1.3619300800
| 90> H    2.8209505000  -2.6793042600  -1.4092989200
| 91> H    3.7369586500  -2.7766998900   0.1106702500
| 92> *
| 93> %eprnmr
| 94>  Nuclei = all C { shift }
| 95>  origin giao
| 96>  giao_2el giao_2el_same_as_scf
| 97>  giao_1el giao_1el_analytic
| 98> end
| 99> 
|100>                          ****END OF INPUT****
================================================================================

                       ****************************
                       * Single Point Calculation *
                       ****************************

---------------------------------
CARTESIAN COORDINATES (ANGSTROEM)
---------------------------------
  C     -5.191584    0.229841    0.222553
  C     -6.573076   -0.286307   -0.105517
  C     -7.147140    0.380770   -1.361330
  H     -7.257047   -0.054164    0.728517
  H     -6.559343   -1.374260   -0.233267
  C     -5.086971    1.704339    0.254725
  C     -5.705388    2.402363   -0.935343
  C     -7.128183    1.897822   -1.212071
  H     -5.085342    2.195538   -1.820882
  H     -5.703476    3.486545   -0.781160
  H     -7.526620    2.363665   -2.121047
  H     -7.787864    2.177602   -0.376764
  O     -8.462381   -0.109596   -1.652747
  H     -6.538892    0.092427   -2.230117
  C     -4.159079   -0.623609    0.420751
  C     -4.535868    2.380628    1.269216
  H     -4.120286    1.867840    2.132130
  H     -4.498894    3.467469    1.262190
  C     -2.778780   -0.262398    0.646710
  H     -4.394858   -1.685322    0.362014
  C     -1.764306   -1.107398    0.930654
  H     -2.544991    0.796955    0.568064
  C     -1.889142   -2.596691    1.131807
  C     -0.887828   -3.382242    0.263576
  H     -2.904980   -2.955981    0.945502
  H     -1.666712   -2.811475    2.189475
  C      0.549677   -2.862152    0.400601
  H     -1.202849   -3.328521   -0.786142
  H     -0.922882   -4.441886    0.545009
  C      0.638374   -1.354142    0.126409
  H      1.199859   -3.429356   -0.273590
  H      0.906275   -3.050551    1.424520
  C     -0.350470   -0.643840    1.103482
  H     -0.034843   -0.978598    2.109496
  C      0.011751    0.832369    0.985792
  H     -9.033333    0.130043   -0.910539
  C      1.552007    0.812170    0.833356
  H     -0.320368    1.411175    1.854284
  H     -0.459155    1.277243    0.101881
  C      1.968771   -0.664754    0.544689
  H      2.045354    1.184814    1.735125
  H      1.877880    1.462369    0.012603
  H      2.267404   -1.140470    1.492167
  C      3.160055   -0.744856   -0.420643
  C      0.281073   -1.037618   -1.332675
  H     -0.775803   -1.237511   -1.534066
  H      0.876081   -1.647357   -2.020969
  H      0.465349    0.013490   -1.576808
  H      2.865537   -0.234929   -1.351558
  C      3.574611   -2.180145   -0.794710
  C      4.393529   -0.031883    0.089292
  C      4.706115    0.248159    1.354226
  H      5.124111    0.218037   -0.685451
  H      4.011223   -0.013456    2.153703
  C      5.981759    0.916670    1.787452
  C      6.729228    0.024591    2.789533
  C      5.711069    2.351114    2.321652
  H      6.615102    1.033938    0.895316
  H      5.123271    2.852706    1.537804
  C      7.010443    3.140304    2.503713
  C      4.886688    2.376890    3.611084
  H      6.977168   -0.935612    2.325232
  H      6.113486   -0.183670    3.671563
  H      7.662642    0.486546    3.127228
  H      6.792380    4.187538    2.741225
  H      7.621136    3.118307    1.593736
  H      7.611552    2.735787    3.325993
  H      5.441872    1.932303    4.445115
  H      3.940272    1.836510    3.504620
  H      4.650310    3.410387    3.887814
  H      4.512119   -2.169390   -1.361930
  H      2.820950   -2.679304   -1.409299
  H      3.736959   -2.776700    0.110670

----------------------------
CARTESIAN COORDINATES (A.U.)
----------------------------
  NO LB      ZA    FRAG     MASS         X           Y           Z
   0 C     6.0000    0    12.011   -9.810673    0.434336    0.420564
   1 C     6.0000    0    12.011  -12.421314   -0.541042   -0.199399
   2 C     6.0000    0    12.011  -13.506137    0.719552   -2.572542
   3 H     1.0000    0     1.008  -13.713832   -0.102354    1.376698
   4 H     1.0000    0     1.008  -12.395361   -2.596974   -0.440811
   5 C     6.0000    0    12.011   -9.612982    3.220733    0.481361
   6 C     6.0000    0    12.011  -10.781620    4.539808   -1.767542
   7 C     6.0000    0    12.011  -13.470314    3.586363   -2.290483
   8 H     1.0000    0     1.008   -9.609903    4.148965   -3.440968
   9 H     1.0000    0     1.008  -10.778008    6.588615   -1.476179
  10 H     1.0000    0     1.008  -14.223250    4.466679   -4.008199
  11 H     1.0000    0     1.008  -14.716930    4.115071   -0.711982
  12 O     8.0000    0    15.999  -15.991583   -0.207107   -3.123239
  13 H     1.0000    0     1.008  -12.356715    0.174661   -4.214311
  14 C     6.0000    0    12.011   -7.859521   -1.178449    0.795104
  15 C     6.0000    0    12.011   -8.571549    4.498735    2.398471
  16 H     1.0000    0     1.008   -7.786211    3.529706    4.029141
  17 H     1.0000    0     1.008   -8.501678    6.552566    2.385194
  18 C     6.0000    0    12.011   -5.251134   -0.495861    1.222104
  19 H     1.0000    0     1.008   -8.305077   -3.184796    0.684108
  20 C     6.0000    0    12.011   -3.334055   -2.092678    1.758682
  21 H     1.0000    0     1.008   -4.809336    1.506027    1.073486
  22 C     6.0000    0    12.011   -3.569960   -4.907035    2.138804
  23 C     6.0000    0    12.011   -1.677751   -6.391510    0.498087
  24 H     1.0000    0     1.008   -5.489616   -5.585995    1.786740
  25 H     1.0000    0     1.008   -3.149629   -5.312918    4.137507
  26 C     6.0000    0    12.011    1.038739   -5.408683    0.757027
  27 H     1.0000    0     1.008   -2.273055   -6.289993   -1.485593
  28 H     1.0000    0     1.008   -1.743993   -8.393949    1.029919
  29 C     6.0000    0    12.011    1.206352   -2.558957    0.238879
  30 H     1.0000    0     1.008    2.267405   -6.480543   -0.517009
  31 H     1.0000    0     1.008    1.712611   -5.764707    2.691953
  32 C     6.0000    0    12.011   -0.662293   -1.216682    2.085278
  33 H     1.0000    0     1.008   -0.065844   -1.849283    3.986369
  34 C     6.0000    0    12.011    0.022207    1.572949    1.862878
  35 H     1.0000    0     1.008  -17.070525    0.245746   -1.720669
  36 C     6.0000    0    12.011    2.932868    1.534778    1.574815
  37 H     1.0000    0     1.008   -0.605408    2.666735    3.504088
  38 H     1.0000    0     1.008   -0.867678    2.413639    0.192527
  39 C     6.0000    0    12.011    3.720437   -1.256202    1.029313
  40 H     1.0000    0     1.008    3.865160    2.238975    3.278911
  41 H     1.0000    0     1.008    3.548678    2.763478    0.023815
  42 H     1.0000    0     1.008    4.284773   -2.155175    2.819788
  43 C     6.0000    0    12.011    5.971638   -1.407574   -0.794901
  44 C     6.0000    0    12.011    0.531151   -1.960813   -2.518391
  45 H     1.0000    0     1.008   -1.466055   -2.338557   -2.898965
  46 H     1.0000    0     1.008    1.655553   -3.113053   -3.819078
  47 H     1.0000    0     1.008    0.879383    0.025492   -2.979735
  48 H     1.0000    0     1.008    5.415079   -0.443951   -2.554074
  49 C     6.0000    0    12.011    6.755035   -4.119876   -1.501784
  50 C     6.0000    0    12.011    8.302566   -0.060250    0.168738
  51 C     6.0000    0    12.011    8.893269    0.468953    2.559116
  52 H     1.0000    0     1.008    9.683167    0.412030   -1.295314
  53 H     1.0000    0     1.008    7.580113   -0.025429    4.069909
  54 C     6.0000    0    12.011   11.303887    1.732254    3.377795
  55 C     6.0000    0    12.011   12.716398    0.046471    5.271454
  56 C     6.0000    0    12.011   10.792357    4.442961    4.387287
  57 H     1.0000    0     1.008   12.500731    1.953860    1.691901
  58 H     1.0000    0     1.008    9.681579    5.390834    2.906028
  59 C     6.0000    0    12.011   13.247817    5.934314    4.731332
  60 C     6.0000    0    12.011    9.234502    4.491671    6.823961
  61 H     1.0000    0     1.008   13.184936   -1.768051    4.394052
  62 H     1.0000    0     1.008   11.552813   -0.347086    6.938249
  63 H     1.0000    0     1.008   14.480295    0.919439    5.909605
  64 H     1.0000    0     1.008   12.835738    7.913300    5.180164
  65 H     1.0000    0     1.008   14.401860    5.892747    3.011724
  66 H     1.0000    0     1.008   14.383748    5.169889    6.285216
  67 H     1.0000    0     1.008   10.283647    3.651524    8.400051
  68 H     1.0000    0     1.008    7.446035    3.470501    6.622772
  69 H     1.0000    0     1.008    8.787812    6.444697    7.346903
  70 H     1.0000    0     1.008    8.526669   -4.099553   -2.573675
  71 H     1.0000    0     1.008    5.330824   -5.063151   -2.663189
  72 H     1.0000    0     1.008    7.061828   -5.247202    0.209136

--------------------------------
INTERNAL COORDINATES (ANGSTROEM)
--------------------------------
 C      0   0   0     0.000000000000     0.00000000     0.00000000
 C      1   0   0     1.510813673435     0.00000000     0.00000000
 C      2   1   0     1.533495250800   111.80942394     0.00000000
 H      2   1   3     1.103322344440   109.31890666   241.47753276
 H      2   1   3     1.095513453507   110.67928185   122.94642727
 C      1   2   3     1.478554428808   114.21242124    50.21242240
 C      6   1   2     1.511932300710   114.47794280   312.16008240
 C      3   2   1     1.524494094617   110.36792756   305.21545055
 H      7   6   1     1.100641705850   108.42777322   290.04977097
 H      7   6   1     1.095092272193   110.21484718   172.80507609
 H      8   3   2     1.096357119129   109.70235830   179.15941102
 H      8   3   2     1.100542579866   108.65306309   296.61330064
 O      3   2   1     1.433611642848   111.16858026   180.53936912
 H      3   2   1     1.099044086556   109.02904866    65.36093021
 C      1   2   3     1.354151050648   120.90899577   232.16489816
 C      6   1   2     1.338010810280   123.34625517   129.88023286
 H     16   6   1     1.086407106619   121.41393808     0.66523301
 H     16   6   1     1.087492167116   120.94709238   181.35170163
 C     15   1   2     1.444560842734   126.43119880   175.38086785
 H     15   1   2     1.089162938151   116.19401230   358.04537124
 C     19  15   1     1.350483761637   126.45622634   175.36656927
 H     19  15   1     1.087691297531   115.95104578   354.73902005
 C     21  19  15     1.507992591634   125.71845909   356.93685982
 C     23  21  19     1.540630513630   111.99896521   128.64337827
 H     23  21  19     1.093492452242   112.25158276     4.46507409
 H     23  21  19     1.101938566895   107.68714357   247.33851570
 C     24  23  21     1.534825383276   112.68304377    50.44898571
 H     24  23  21     1.097284018474   109.12142011   288.28825137
 H     24  23  21     1.096941385310   109.09869466   172.33447295
 C     27  24  23     1.535299308872   111.77733207   306.17246363
 H     27  24  23     1.094983869773   109.00393333   182.61538012
 H     27  24  23     1.100484662009   109.18046182    66.09322208
 C     21  19  15     1.497893868066   122.66048194   177.83848116
 H     33  21  19     1.106231152935   106.29506430   123.28418755
 C     33  21  19     1.524548338836   120.99831302     0.95979007
 H     13   3   2     0.966584722883   107.51935170    62.64969273
 C     35  33  21     1.547912105252   103.37859135   195.22626002
 H     35  33  21     1.095261549634   112.23764679    73.44421417
 H     35  33  21     1.095885866065   110.68606850   313.79071685
 C     30  27  24     1.555689334964   115.89036268   166.73120568
 H     37  35  33     1.093363421742   111.30416450   251.37398871
 H     37  35  33     1.096626190859   111.20202130   133.01964689
 H     40  30  27     1.101454920494   105.76876914   321.85043600
 C     40  30  27     1.535396185893   118.12232033    82.76285790
 C     30  27  24     1.535180079326   111.02708314   294.98284774
 H     45  30  27     1.094304175726   111.22510372    67.55137547
 H     45  30  27     1.095246544254   110.85863410   307.49785266
 H     45  30  27     1.094708171855   111.76172545   187.42017557
 H     44  40  30     1.101529881128   107.44181496    62.23045037
 C     44  40  30     1.540076799310   114.21613319   303.28625641
 C     44  40  30     1.513216068007   113.32805238   179.64268306
 C     51  44  40     1.332738109997   127.59184410    23.49387477
 H     51  44  40     1.093817978746   114.41932683   199.54874926
 H     52  51  44     1.091092280296   119.71549579   357.61579574
 C     52  51  44     1.503947770100   124.45410600   177.54477608
 C     55  52  51     1.535799470428   110.03388441   237.38266996
 C     55  52  51     1.554436716023   111.19114931   110.93709058
 H     55  52  51     1.100355721255   107.57939227   354.93332934
 H     57  55  52     1.100690861461   105.59221642   307.98318720
 C     57  55  52     1.531123218628   111.63700807   191.29683998
 C     57  55  52     1.530654655428   113.50512658    65.77402382
 H     56  55  52     1.095007292277   110.05282820    60.29447513
 H     56  55  52     1.095668143471   111.23240690   301.17598288
 H     56  55  52     1.094852507701   111.78349256   180.20573347
 H     60  57  55     1.095747482632   110.45668192   171.89879685
 H     60  57  55     1.096124364149   111.33089325    51.84141601
 H     60  57  55     1.095951340974   111.37261279   291.17328927
 H     61  57  55     1.096126666505   111.18362532    66.19504311
 H     61  57  55     1.095010889700   112.04158556   305.03581588
 H     61  57  55     1.095704845637   110.17137155   185.19149617
 H     50  44  40     1.095799327981   110.29630987   188.28419393
 H     50  44  40     1.093107268874   112.11980082    68.32274645
 H     50  44  40     1.096334159073   110.26668787   307.26321833

---------------------------
INTERNAL COORDINATES (A.U.)
---------------------------
 C      0   0   0     0.000000000000     0.00000000     0.00000000
 C      1   0   0     2.855024082175     0.00000000     0.00000000
 C      2   1   0     2.897886051681   111.80942394     0.00000000
 H      2   1   3     2.084977068427   109.31890666   241.47753276
 H      2   1   3     2.070220403154   110.67928185   122.94642727
 C      1   2   3     2.794062944544   114.21242124    50.21242240
 C      6   1   2     2.857137981372   114.47794280   312.16008240
 C      3   2   1     2.880876331606   110.36792756   305.21545055
 H      7   6   1     2.079911395627   108.42777322   290.04977097
 H      7   6   1     2.069424485818   110.21484718   172.80507609
 H      8   3   2     2.071814700128   109.70235830   179.15941102
 H      8   3   2     2.079724074665   108.65306309   296.61330064
 O      3   2   1     2.709133387384   111.16858026   180.53936912
 H      3   2   1     2.076892332697   109.02904866    65.36093021
 C      1   2   3     2.558974629686   120.90899577   232.16489816
 C      6   1   2     2.528473995655   123.34625517   129.88023286
 H     16   6   1     2.053011901456   121.41393808     0.66523301
 H     16   6   1     2.055062368634   120.94709238   181.35170163
 C     15   1   2     2.729824376553   126.43119880   175.38086785
 H     15   1   2     2.058219668322   116.19401230   358.04537124
 C     19  15   1     2.552044457802   126.45622634   175.36656927
 H     19  15   1     2.055438670583   115.95104578   354.73902005
 C     21  19  15     2.849693010171   125.71845909   356.93685982
 C     23  21  19     2.911369744322   111.99896521   128.64337827
 H     23  21  19     2.066401264248   112.25158276     4.46507409
 H     23  21  19     2.082362107837   107.68714357   247.33851570
 C     24  23  21     2.900399637782   112.68304377    50.44898571
 H     24  23  21     2.073566286045   109.12142011   288.28825137
 H     24  23  21     2.072918803201   109.09869466   172.33447295
 C     27  24  23     2.901295227367   111.77733207   306.17246363
 H     27  24  23     2.069219634933   109.00393333   182.61538012
 H     27  24  23     2.079614625777   109.18046182    66.09322208
 C     21  19  15     2.830609188325   122.66048194   177.83848116
 H     33  21  19     2.090473919858   106.29506430   123.28418755
 C     33  21  19     2.880978838325   120.99831302     0.95979007
 H     13   3   2     1.826580411481   107.51935170    62.64969273
 C     35  33  21     2.925129958308   103.37859135   195.22626002
 H     35  33  21     2.069744373823   112.23764679    73.44421417
 H     35  33  21     2.070924160897   110.68606850   313.79071685
 C     30  27  24     2.939826792544   115.89036268   166.73120568
 H     37  35  33     2.066157431940   111.30416450   251.37398871
 H     37  35  33     2.072323172010   111.20202130   133.01964689
 H     40  30  27     2.081448148594   105.76876914   321.85043600
 C     40  30  27     2.901478298405   118.12232033    82.76285790
 C     30  27  24     2.901069916178   111.02708314   294.98284774
 H     45  30  27     2.067935199328   111.22510372    67.55137547
 H     45  30  27     2.069716017763   110.85863410   307.49785266
 H     45  30  27     2.068698641372   111.76172545   187.42017557
 H     44  40  30     2.081589803663   107.44181496    62.23045037
 C     44  40  30     2.910323375903   114.21613319   303.28625641
 C     44  40  30     2.859563949982   113.32805238   179.64268306
 C     51  44  40     2.518510036134   127.59184410    23.49387477
 H     51  44  40     2.067016420190   114.41932683   199.54874926
 H     52  51  44     2.061865596596   119.71549579   357.61579574
 C     52  51  44     2.842049405210   124.45410600   177.54477608
 C     55  52  51     2.902240395731   110.03388441   237.38266996
 C     55  52  51     2.937459685795   111.19114931   110.93709058
 H     55  52  51     2.079370963066   107.57939227   354.93332934
 H     57  55  52     2.080004286272   105.59221642   307.98318720
 C     57  55  52     2.893403560496   111.63700807   191.29683998
 C     57  55  52     2.892518104371   113.50512658    65.77402382
 H     56  55  52     2.069263897050   110.05282820    60.29447513
 H     56  55  52     2.070512724823   111.23240690   301.17598288
 H     56  55  52     2.068971396593   111.78349256   180.20573347
 H     60  57  55     2.070662654108   110.45668192   171.89879685
 H     60  57  55     2.071374856960   111.33089325    51.84141601
 H     60  57  55     2.071047890545   111.37261279   291.17328927
 H     61  57  55     2.071379207783   111.18362532    66.19504311
 H     61  57  55     2.069270695194   112.04158556   305.03581588
 H     61  57  55     2.070582081865   110.17137155   185.19149617
 H     50  44  40     2.070760627618   110.29630987   188.28419393
 H     50  44  40     2.065673373170   112.11980082    68.32274645
 H     50  44  40     2.071771311911   110.26668787   307.26321833

---------------------
BASIS SET INFORMATION
---------------------
There are 3 groups of distinct atoms

 Group   1 Type C   : 7s4p1d contracted to 3s2p1d pattern {511/31/1}
 Group   2 Type H   : 4s1p contracted to 2s1p pattern {31/1}
 Group   3 Type O   : 7s4p1d contracted to 3s2p1d pattern {511/31/1}

Atom   0C    basis set group =>   1
Atom   1C    basis set group =>   1
Atom   2C    basis set group =>   1
Atom   3H    basis set group =>   2
Atom   4H    basis set group =>   2
Atom   5C    basis set group =>   1
Atom   6C    basis set group =>   1
Atom   7C    basis set group =>   1
Atom   8H    basis set group =>   2
Atom   9H    basis set group =>   2
Atom  10H    basis set group =>   2
Atom  11H    basis set group =>   2
Atom  12O    basis set group =>   3
Atom  13H    basis set group =>   2
Atom  14C    basis set group =>   1
Atom  15C    basis set group =>   1
Atom  16H    basis set group =>   2
Atom  17H    basis set group =>   2
Atom  18C    basis set group =>   1
Atom  19H    basis set group =>   2
Atom  20C    basis set group =>   1
Atom  21H    basis set group =>   2
Atom  22C    basis set group =>   1
Atom  23C    basis set group =>   1
Atom  24H    basis set group =>   2
Atom  25H    basis set group =>   2
Atom  26C    basis set group =>   1
Atom  27H    basis set group =>   2
Atom  28H    basis set group =>   2
Atom  29C    basis set group =>   1
Atom  30H    basis set group =>   2
Atom  31H    basis set group =>   2
Atom  32C    basis set group =>   1
Atom  33H    basis set group =>   2
Atom  34C    basis set group =>   1
Atom  35H    basis set group =>   2
Atom  36C    basis set group =>   1
Atom  37H    basis set group =>   2
Atom  38H    basis set group =>   2
Atom  39C    basis set group =>   1
Atom  40H    basis set group =>   2
Atom  41H    basis set group =>   2
Atom  42H    basis set group =>   2
Atom  43C    basis set group =>   1
Atom  44C    basis set group =>   1
Atom  45H    basis set group =>   2
Atom  46H    basis set group =>   2
Atom  47H    basis set group =>   2
Atom  48H    basis set group =>   2
Atom  49C    basis set group =>   1
Atom  50C    basis set group =>   1
Atom  51C    basis set group =>   1
Atom  52H    basis set group =>   2
Atom  53H    basis set group =>   2
Atom  54C    basis set group =>   1
Atom  55C    basis set group =>   1
Atom  56C    basis set group =>   1
Atom  57H    basis set group =>   2
Atom  58H    basis set group =>   2
Atom  59C    basis set group =>   1
Atom  60C    basis set group =>   1
Atom  61H    basis set group =>   2
Atom  62H    basis set group =>   2
Atom  63H    basis set group =>   2
Atom  64H    basis set group =>   2
Atom  65H    basis set group =>   2
Atom  66H    basis set group =>   2
Atom  67H    basis set group =>   2
Atom  68H    basis set group =>   2
Atom  69H    basis set group =>   2
Atom  70H    basis set group =>   2
Atom  71H    basis set group =>   2
Atom  72H    basis set group =>   2

-------------------------
BASIS SET IN INPUT FORMAT
-------------------------

 # Basis set for element : H 
 NewGTO H 
 S 3 
   1      13.0107010000      0.0334854848
   2       1.9622572000      0.2347218709
   3       0.4445379600      0.8137702853
 S 1 
   1       0.1219496200      1.0000000000
 P 1 
   1       0.8000000000      1.0000000000
  end;

 # Basis set for element : C 
 NewGTO C 
 S 5 
   1    1238.4016938000      0.0055173650
   2     186.2900499200      0.0410888285
   3      42.2511763460      0.1822538213
   4      11.6765579320      0.4682845944
   5       3.5930506482      0.4457581734
 S 1 
   1       0.4024514736      1.0000000000
 S 1 
   1       0.1309018267      1.0000000000
 P 3 
   1       9.4680970621      0.0568883320
   2       2.0103545142      0.3129405934
   3       0.5477100471      0.7606501651
 P 1 
   1       0.1526861379      1.0000000000
 D 1 
   1       0.8000000000      1.0000000000
  end;

 # Basis set for element : O 
 NewGTO O 
 S 5 
   1    2266.1767785000     -0.0053893504
   2     340.8701019100     -0.0402347214
   3      77.3631351670     -0.1800818421
   4      21.4796449400     -0.4682885766
   5       6.6589433124     -0.4469261716
 S 1 
   1       0.8097597567      1.0000000000
 S 1 
   1       0.2553077223      1.0000000000
 P 3 
   1      17.7215043170      0.0626302488
   2       3.8635505440      0.3333113849
   3       1.0480920883      0.7414863830
 P 1 
   1       0.2764154441      1.0000000000
 D 1 
   1       1.2000000000      1.0000000000
  end;

---------------------------------
AUXILIARY/J BASIS SET INFORMATION
---------------------------------
There are 3 groups of distinct atoms

 Group   1 Type C   : 12s5p4d2f1g contracted to 6s4p3d1f1g pattern {711111/2111/211/2/1}
 Group   2 Type H   : 5s2p1d contracted to 3s1p1d pattern {311/2/1}
 Group   3 Type O   : 12s5p4d2f1g contracted to 6s4p3d1f1g pattern {711111/2111/211/2/1}

Atom   0C    basis set group =>   1
Atom   1C    basis set group =>   1
Atom   2C    basis set group =>   1
Atom   3H    basis set group =>   2
Atom   4H    basis set group =>   2
Atom   5C    basis set group =>   1
Atom   6C    basis set group =>   1
Atom   7C    basis set group =>   1
Atom   8H    basis set group =>   2
Atom   9H    basis set group =>   2
Atom  10H    basis set group =>   2
Atom  11H    basis set group =>   2
Atom  12O    basis set group =>   3
Atom  13H    basis set group =>   2
Atom  14C    basis set group =>   1
Atom  15C    basis set group =>   1
Atom  16H    basis set group =>   2
Atom  17H    basis set group =>   2
Atom  18C    basis set group =>   1
Atom  19H    basis set group =>   2
Atom  20C    basis set group =>   1
Atom  21H    basis set group =>   2
Atom  22C    basis set group =>   1
Atom  23C    basis set group =>   1
Atom  24H    basis set group =>   2
Atom  25H    basis set group =>   2
Atom  26C    basis set group =>   1
Atom  27H    basis set group =>   2
Atom  28H    basis set group =>   2
Atom  29C    basis set group =>   1
Atom  30H    basis set group =>   2
Atom  31H    basis set group =>   2
Atom  32C    basis set group =>   1
Atom  33H    basis set group =>   2
Atom  34C    basis set group =>   1
Atom  35H    basis set group =>   2
Atom  36C    basis set group =>   1
Atom  37H    basis set group =>   2
Atom  38H    basis set group =>   2
Atom  39C    basis set group =>   1
Atom  40H    basis set group =>   2
Atom  41H    basis set group =>   2
Atom  42H    basis set group =>   2
Atom  43C    basis set group =>   1
Atom  44C    basis set group =>   1
Atom  45H    basis set group =>   2
Atom  46H    basis set group =>   2
Atom  47H    basis set group =>   2
Atom  48H    basis set group =>   2
Atom  49C    basis set group =>   1
Atom  50C    basis set group =>   1
Atom  51C    basis set group =>   1
Atom  52H    basis set group =>   2
Atom  53H    basis set group =>   2
Atom  54C    basis set group =>   1
Atom  55C    basis set group =>   1
Atom  56C    basis set group =>   1
Atom  57H    basis set group =>   2
Atom  58H    basis set group =>   2
Atom  59C    basis set group =>   1
Atom  60C    basis set group =>   1
Atom  61H    basis set group =>   2
Atom  62H    basis set group =>   2
Atom  63H    basis set group =>   2
Atom  64H    basis set group =>   2
Atom  65H    basis set group =>   2
Atom  66H    basis set group =>   2
Atom  67H    basis set group =>   2
Atom  68H    basis set group =>   2
Atom  69H    basis set group =>   2
Atom  70H    basis set group =>   2
Atom  71H    basis set group =>   2
Atom  72H    basis set group =>   2

-------------------------------------
AUXILIARY/J BASIS SET IN INPUT FORMAT
-------------------------------------

 # Auxiliary/J basis set for element : H 
 NewAuxJGTO H 
 S 3 
   1      15.6752927000      0.1007184237
   2       3.6063578000      0.3404257499
   3       1.2080016000      0.6491996172
 S 1 
   1       0.4726794000      1.0000000000
 S 1 
   1       0.2018100000      1.0000000000
 P 2 
   1       2.0281365000      0.5596620919
   2       0.5358730000      0.5596620919
 D 1 
   1       2.2165124000      1.0000000000
  end;

 # Auxiliary/J basis set for element : C 
 NewAuxJGTO C 
 S 7 
   1    1861.0916331000      0.0134602335
   2     642.9939764000      0.0299160374
   3     235.1105725000      0.1008649584
   4      90.7028894000      0.2370970548
   5      36.7794552000      0.3924037254
   6      15.6046273000      0.3195862154
   7       6.8907294000      0.0530104441
 S 1 
   1       3.1478850000     -1.0000000000
 S 1 
   1       1.4777287000      1.0000000000
 S 1 
   1       0.7076466000      1.0000000000
 S 1 
   1       0.3430122000      1.0000000000
 S 1 
   1       0.1669453000      1.0000000000
 P 2 
   1      13.5472892000     -0.6769313712
   2       5.4669419000     -0.3779500978
 P 1 
   1       2.1751721000      1.0000000000
 P 1 
   1       0.8582194000      1.0000000000
 P 1 
   1       0.3376720000      1.0000000000
 D 2 
   1       5.9287253000     -0.3533329857
   2       1.9809209000     -0.7456525731
 D 1 
   1       0.8055417000     -1.0000000000
 D 1 
   1       0.3531244000     -1.0000000000
 F 2 
   1       1.6755626000      0.6311076882
   2       0.5997536000      0.4968166032
 G 1 
   1       1.0024600000     -1.0000000000
  end;

 # Auxiliary/J basis set for element : O 
 NewAuxJGTO O 
 S 7 
   1    2876.8216605000      0.0168151159
   2    1004.7443032000      0.0340137548
   3     369.7579954000      0.1194951309
   4     142.9442404000      0.2664627624
   5      57.8366425000      0.4202764046
   6      24.3864983000      0.2765077335
   7      10.6622662000      0.0057008815
 S 1 
   1       4.8070437000     -1.0000000000
 S 1 
   1       2.2210770000      1.0000000000
 S 1 
   1       1.0447795000      1.0000000000
 S 1 
   1       0.4968425000      1.0000000000
 S 1 
   1       0.2371384000      1.0000000000
 P 2 
   1      64.2613382000     -0.2731534179
   2      16.3006076000     -0.8168011598
 P 1 
   1       4.3550542000      1.0000000000
 P 1 
   1       1.2019554000      1.0000000000
 P 1 
   1       0.3354196000      1.0000000000
 D 2 
   1       9.2146611000     -0.4661230638
   2       2.8435251000     -0.6600908911
 D 1 
   1       0.9955759000     -1.0000000000
 D 1 
   1       0.3649441000     -1.0000000000
 F 2 
   1       2.6420115000      0.5931563945
   2       0.7345613000      0.5931563945
 G 1 
   1       1.3931000000     -1.0000000000
  end;


Checking for AutoStart:
The File: inpS.gbw exists
Trying to determine its content:
     ... Fine, the file contains calculation information
     ... Fine, the calculation information was read
     ... Fine, the file contains a basis set
     ... Fine, the basis set was read
     ... Fine, the file contains a geometry
     ... Fine, the geometry was read
     ... Fine, the file contains a set of orbitals
     ... Fine, the orbitals can be read
     => possible old guess file was deleted
     => GBW file was renamed to GES file
     => GES file is set as startup file
     => Guess is set to MORead
     ... now leaving AutoStart



           ************************************************************
           *        Program running with 4 parallel MPI-processes     *
           *              working on a common directory               *
           ************************************************************
------------------------------------------------------------------------------
                             ORCA STARTUP CALCULATIONS
                           -- RI-GTO INTEGRALS CHOSEN --
------------------------------------------------------------------------------
------------------------------------------------------------------------------
                   ___                                                        
                  /   \      - P O W E R E D   B Y -                         
                 /     \                                                     
                 |  |  |   _    _      __       _____    __    __             
                 |  |  |  | |  | |    /  \     |  _  \  |  |  /  |          
                  \  \/   | |  | |   /    \    | | | |  |  | /  /          
                 / \  \   | |__| |  /  /\  \   | |_| |  |  |/  /          
                |  |  |   |  __  | /  /__\  \  |    /   |      \           
                |  |  |   | |  | | |   __   |  |    \   |  |\   \          
                \     /   | |  | | |  |  |  |  | |\  \  |  | \   \       
                 \___/    |_|  |_| |__|  |__|  |_| \__\ |__|  \__/        
                                                                              
                      - O R C A' S   B I G   F R I E N D -                    
                                      &                                       
                       - I N T E G R A L  F E E D E R -                       
                                                                              
 v1 FN, 2020, v2 2021, v3 2022-2024                                           
------------------------------------------------------------------------------


----------------------
SHARK INTEGRAL PACKAGE
----------------------

Number of atoms                             ...     73
Number of basis functions                   ...    626
Number of shells                            ...    306
Maximum angular momentum                    ...      2
Integral batch strategy                     ... SHARK/LIBINT Hybrid
RI-J (if used) integral strategy            ... SPLIT-RIJ (Revised 2003 algorithm where possible)
Printlevel                                  ...      1
Contraction scheme used                     ... SEGMENTED contraction
Prescreening option                         ... SCHWARTZ
   Thresh                                   ... 3.000e-11
   Tcut                                     ... 1.000e-12
   Tpresel                                  ... 1.000e-12 
Coulomb Range Separation                    ... NOT USED
Exchange Range Separation                   ... Long Range
   Mu parameter                             ... 3.000e-01
   Scaling (regular/separated)              ... 1.670e-01 8.330e-01
Multipole approximations                    ... NOT USED
Finite Nucleus Model                        ... NOT USED
CABS basis                                  ... NOT available
Auxiliary Coulomb fitting basis             ... AVAILABLE
   # of basis functions in Aux-J            ...   1905
   # of shells in Aux-J                     ...    655
   Maximum angular momentum in Aux-J        ...      4
Auxiliary J/K fitting basis                 ... NOT available
Auxiliary Correlation fitting basis         ... NOT available
Auxiliary 'external' fitting basis          ... NOT available

Checking pre-screening integrals            ... done (  0.0 sec) Dimension = 306
Check shell pair data                       ... done (  0.0 sec)
Shell pair information
Shell pair cut-off parameter TPreSel        ...   1.0e-12
Total number of shell pairs                 ...     46971
Shell pairs after pre-screening             ...     27551
Total number of primitive shell pairs       ...    162105
Primitive shell pairs kept                  ...     60731
          la=0 lb=0:   9673 shell pairs
          la=1 lb=0:  10554 shell pairs
          la=1 lb=1:   2919 shell pairs
          la=2 lb=0:   2739 shell pairs
          la=2 lb=1:   1469 shell pairs
          la=2 lb=2:    197 shell pairs

Calculating one electron integrals          ... done (  0.1 sec)
Calculating RI/J V-Matrix + Cholesky decomp.... done (  0.2 sec)
Calculating Nuclear repulsion               ... done (  0.0 sec) ENN=   2777.199298645997 Eh

Diagonalization of the overlap matrix:
Smallest eigenvalue                        ... 4.527e-04
Time for diagonalization                   ...    0.048 sec
Threshold for overlap eigenvalues          ... 1.000e-07
Number of eigenvalues below threshold      ... 0
Time for construction of square roots      ...    0.028 sec
Total time needed                          ...    0.079 sec

-------------------
DFT GRID GENERATION
-------------------

General Integration Accuracy     IntAcc      ... 4.388
Radial Grid Type                 RadialGrid  ... OptM3 with GC (2021)
Angular Grid (max. ang.)         AngularGrid ... 4 (Lebedev-302)
Angular grid pruning method      GridPruning ... 4 (adaptive)
Weight generation scheme         WeightScheme... mBecke (2022)
Basis function cutoff            BFCut       ... 1.0000e-11
Integration weight cutoff        WCut        ... 1.0000e-14
Partially contracted basis set               ... off
Rotationally invariant grid construction     ... off
Angular grids for H and He will be reduced by one unit

Total number of grid points                  ...   309922
Total number of batches                      ...     4878
Average number of points per batch           ...       63
Average number of grid points per atom       ...     4246

--------------------
COSX GRID GENERATION
--------------------

GRIDX 1
-------
General Integration Accuracy     IntAcc      ... 3.816
Radial Grid Type                 RadialGrid  ... OptM3 with GC (2021)
Angular Grid (max. ang.)         AngularGrid ... 1 (Lebedev-50)
Angular grid pruning method      GridPruning ... 4 (adaptive)
Weight generation scheme         WeightScheme... mBecke (2022)
Basis function cutoff            BFCut       ... 1.0000e-11
Integration weight cutoff        WCut        ... 1.0000e-14
Partially contracted basis set               ... on
Rotationally invariant grid construction     ... off
Angular grids for H and He will be reduced by one unit

Total number of grid points                  ...    39412
Total number of batches                      ...      351
Average number of points per batch           ...      112
Average number of grid points per atom       ...      540
UseSFitting                                  ... on

GRIDX 2
-------
General Integration Accuracy     IntAcc      ... 4.020
Radial Grid Type                 RadialGrid  ... OptM3 with GC (2021)
Angular Grid (max. ang.)         AngularGrid ... 2 (Lebedev-110)
Angular grid pruning method      GridPruning ... 4 (adaptive)
Weight generation scheme         WeightScheme... mBecke (2022)
Basis function cutoff            BFCut       ... 1.0000e-11
Integration weight cutoff        WCut        ... 1.0000e-14
Partially contracted basis set               ... on
Rotationally invariant grid construction     ... off
Angular grids for H and He will be reduced by one unit

Total number of grid points                  ...    81404
Total number of batches                      ...      674
Average number of points per batch           ...      120
Average number of grid points per atom       ...     1115
UseSFitting                                  ... on

GRIDX 3
-------
General Integration Accuracy     IntAcc      ... 4.338
Radial Grid Type                 RadialGrid  ... OptM3 with GC (2021)
Angular Grid (max. ang.)         AngularGrid ... 3 (Lebedev-194)
Angular grid pruning method      GridPruning ... 4 (adaptive)
Weight generation scheme         WeightScheme... mBecke (2022)
Basis function cutoff            BFCut       ... 1.0000e-11
Integration weight cutoff        WCut        ... 1.0000e-14
Partially contracted basis set               ... on
Rotationally invariant grid construction     ... off
Angular grids for H and He will be reduced by one unit

Total number of grid points                  ...   176333
Total number of batches                      ...     1421
Average number of points per batch           ...      124
Average number of grid points per atom       ...     2416
UseSFitting                                  ... on
Initializing property integral containers    ... done (  0.0 sec)

SHARK setup successfully completed in   4.6 seconds

Maximum memory used throughout the entire STARTUP-calculation: 95.5 MB


           ************************************************************
           *        Program running with 4 parallel MPI-processes     *
           *              working on a common directory               *
           ************************************************************
-------------------------------------------------------------------------------
                                 ORCA GUESS
                   Start orbitals & Density for SCF / CASSCF
-------------------------------------------------------------------------------

------------
SCF SETTINGS
------------
Hamiltonian:
 Density Functional     Method          .... DFT(GTOs)
 Exchange Functional    Exchange        .... WB97X-V
 Correlation Functional Correlation     .... WB97X-V
 Gradients option       PostSCFGGA      .... off
 Hybrid DFT is turned on
   Fraction HF Exchange ScalHFX         ....  0.167000
   Scaling of DF-GGA-X  ScalDFX         ....  0.000000
   Scaling of DF-GGA-C  ScalDFC         ....  1.000000
   Scaling of DF-LDA-C  ScalLDAC        ....  1.000000
   Perturbative correction              ....  0.000000
 Long-range corrected/Screened/Range-Separated Hybrid DFT is turned on
   Amount of maximum screened exact exchange              ....  0.833000
   Range separation parameter mu (erf(mu*r12)/r12)        ....  0.300000
 RI-approximation to the Coulomb term is turned on
   Number of AuxJ basis functions       .... 1905
   RIJ-COSX (HFX calculated with COS-X)).... on


General Settings:
 Integral files         IntName         .... inpS
 Hartree-Fock type      HFTyp           .... RHF
 Total Charge           Charge          ....    0
 Multiplicity           Mult            ....    1
 Number of Electrons    NEL             ....  220
 Basis Dimension        Dim             ....  626
 Nuclear Repulsion      ENuc            ....   2777.1992986460 Eh

Convergence Acceleration:
 AO-DIIS                CNVDIIS         .... on
   Start iteration      DIISMaxIt       ....    12
   Startup error        DIISStart       ....  0.200000
   # of expansion vecs  DIISMaxEq       ....     5
   Bias factor          DIISBfac        ....   1.050
   Max. coefficient     DIISMaxC        ....  10.000
 MO-DIIS                CNVKDIIS        .... off
 Trust-Rad. Augm. Hess. CNVTRAH         .... auto
   Auto Start mean grad. ratio tolernc. ....  1.125000
   Auto Start start iteration           ....     1
   Auto Start num. interpolation iter.  ....    10
   Max. Number of Micro iterations      ....    24
   Max. Number of Macro iterations      .... Maxiter - #DIIS iter
   Number of Davidson start vectors     ....     2
   Converg. threshold    (grad. norm)   ....   1.000e-04
   Grad. Scal. Fac. for Micro threshold ....   0.100
   Minimum threshold for Micro iter.    ....   1.000e-02
   NR start threshold (gradient norm)   ....   1.000e-04
   Initial trust radius                 ....   0.400
   Minimum AH scaling param. (alpha)    ....   1.000
   Maximum AH scaling param. (alpha)    .... 1000.000
   Quad. conv. algorithm                .... NR
   White noise on init. David. guess    .... on
   Maximum white noise                  ....   0.010
   Pseudo random numbers                .... off
   Inactive MOs                         .... canonical
   Orbital update algorithm             .... Taylor
   Preconditioner                       .... Diag
   Full preconditioner red. dimension   ....   250
 SOSCF                  CNVSOSCF        .... off
 Level Shifting         CNVShift        .... on
   Level shift para.    LevelShift      ....    0.2500
   Turn off err/grad.   ShiftErr        ....    0.0010
 Zerner damping         CNVZerner       .... off
 Static damping         CNVDamp         .... on
   Fraction old density DampFac         ....    0.7000
   Max. Damping (<1)    DampMax         ....    0.9800
   Min. Damping (>=0)   DampMin         ....    0.0000
   Turn off err/grad.   DampErr         ....    0.1000

SCF Procedure:
 Maximum # iterations   MaxIter         ....   125
 SCF integral mode      SCFMode         .... Direct
   Integral package                     .... SHARK and LIBINT hybrid scheme
 Reset frequency        DirectResetFreq ....    20
 Integral Threshold     Thresh          ....  3.000e-11 Eh
 Primitive CutOff       TCut            ....  1.000e-12 Eh

Convergence Tolerance:
 Convergence Check Mode ConvCheckMode   .... Total+1el-Energy
 Convergence forced     ConvForced      .... 0
 Energy Change          TolE            ....  1.000e-07 Eh
 1-El. energy change                    ....  1.000e-04 Eh
 DIIS Error             TolErr          ....  1.000e-07

---------------------
INITIAL GUESS: MOREAD
---------------------
Guess MOs are being read from file: inpS.ges
Input Geometry matches current geometry (good)
Input basis set matches current basis set (good)
Occupation numbers will be reassigned to an Aufbau configuration
MOs were renormalized
MOs were reorthogonalized (Cholesky)
                      ------------------
                      INITIAL GUESS DONE (   0.2 sec)
                      ------------------
             **** ENERGY FILE WAS UPDATED (inpS.en.tmp) ****
Finished Guess after   0.3 sec
Maximum memory used throughout the entire GUESS-calculation: 52.4 MB


           ************************************************************
           *        Program running with 4 parallel MPI-processes     *
           *              working on a common directory               *
           ************************************************************

-------------------------------------------------------------------------------------------
                                      ORCA LEAN-SCF
                              memory conserving SCF solver
-------------------------------------------------------------------------------------------

--------------------
CPCM SOLVATION MODEL
--------------------
CPCM parameters:
  Epsilon                                         ...       4.8030
  Refrac                                          ...       1.4459
  Rsolv                                           ...       1.3000
  Surface type                                    ... GAUSSIAN VDW
  Discretization scheme                           ... Constant charge density
    Threshold for H atoms                         ...       5.0000 (charges/Ang^2)
    Threshold for non-H atoms                     ...       5.0000 (charges/Ang^2)
  Epsilon function type                           ...         CPCM
Solvent:                                          ... CHLOROFORM
Radii:
  Scheme                                          ... Element-dependent radii
  Radius for C  used is    3.8550 Bohr (=   2.0400 Ang.)
  Radius for H  used is    2.4944 Bohr (=   1.3200 Ang.)
  Radius for O  used is    3.4469 Bohr (=   1.8240 Ang.)
Calculating surface                               ...        done! (  0.0s)
Cavity surface points                             ...         5421
Cavity Volume                                     ...    3613.4568
Cavity Surface-area                               ...    1798.3066
Calculating surface distance matrix               ...        done! (  0.2s)
Performing Cholesky decomposition & store         ...        done! (  0.9s)
Overall time for CPCM initialization              ...                 1.2s

----------------------------------------D-I-I-S--------------------------------------------
Iteration    Energy (Eh)           Delta-E    RMSDP     MaxDP     DIISErr   Damp  Time(sec)
-------------------------------------------------------------------------------------------
               ***  Starting incremental Fock matrix formation  ***
    1    -1168.3608058812524177     0.00e+00  3.19e-08  1.90e-06  6.36e-06  0.700  23.7

  HOMO= 109 E= -7.883 eV LUMO=  8.096 eV gap=  15.979 eV
    2    -1168.3608058589475149     2.23e-08  2.72e-08  1.31e-06  3.20e-06  0.700   4.8
                 **** Energy Check signals convergence ****

  HOMO= 109 E= -7.883 eV LUMO=  8.096 eV gap=  15.979 eV

               *****************************************************
               *                     SUCCESS                       *
               *           SCF CONVERGED AFTER   2 CYCLES          *
               *****************************************************

Recomputing exchange energy using gridx3       ... done (   40.781 sec)
Old exchange energy                            :    -56.782547796 Eh
New exchange energy                            :    -56.782471741 Eh
Exchange energy change after final integration :      0.000076054 Eh
Total energy after final integration           :  -1168.360729805 Eh
             **** ENERGY FILE WAS UPDATED (inpS.en.tmp) ****

----------------
TOTAL SCF ENERGY
----------------

Total Energy       :      -1168.36072980455265 Eh          -31792.71177 eV

Components:
Nuclear Repulsion  :       2777.19929864599681 Eh           75571.43489 eV
Electronic Energy  :      -3945.54928437338231 Eh         -107363.85430 eV
One Electron Energy:      -7099.69645212807518 Eh         -193192.56218 eV
Two Electron Energy:       3154.14716775469287 Eh           85828.70788 eV
CPCM Dielectric    :         -0.01082013156196 Eh              -0.29443 eV

Virial components:
Potential Energy   :      -2321.66791674712704 Eh          -63175.79581 eV
Kinetic Energy     :       1153.30718694257439 Eh           31383.08404 eV
Virial Ratio       :          2.01305250069748

DFT components:
N(Alpha)           :      110.000131638783 electrons
N(Beta)            :      110.000131638783 electrons
N(Total)           :      220.000263277567 electrons
E(X)               :     -111.768443879304 Eh       
E(C)               :       -8.950662618344 Eh       
E(XC)              :     -120.719106497648 Eh       

CPCM Solvation Model Properties:
Surface-charge          :         -0.04156096155074
Corrected charge        :         -0.00000000000000
Outlying charge corr.   :          0.00006035716034 Eh               0.00164 eV
Free-energy (cav+disp)  :  This term is not implemented in the current solvation scheme

---------------
SCF CONVERGENCE
---------------

  Last Energy change         ...   -2.2305e-08  Tolerance :   1.0000e-07
  Last MAX-Density change    ...    1.3128e-06  Tolerance :   1.0000e-05
  Last RMS-Density change    ...    2.7174e-08  Tolerance :   1.0000e-06
  Last DIIS Error            ...    3.2024e-06  Tolerance :   1.0000e-07


----------------
ORBITAL ENERGIES
----------------

  NO   OCC          E(Eh)            E(eV) 
   0   2.0000     -19.213684      -522.8309 
   1   2.0000     -10.329755      -281.0869 
   2   2.0000     -10.293428      -280.0984 
   3   2.0000     -10.290228      -280.0113 
   4   2.0000     -10.285921      -279.8941 
   5   2.0000     -10.285888      -279.8932 
   6   2.0000     -10.285091      -279.8716 
   7   2.0000     -10.283037      -279.8157 
   8   2.0000     -10.281953      -279.7862 
   9   2.0000     -10.280946      -279.7588 
  10   2.0000     -10.280841      -279.7559 
  11   2.0000     -10.280761      -279.7537 
  12   2.0000     -10.279428      -279.7175 
  13   2.0000     -10.278488      -279.6919 
  14   2.0000     -10.276731      -279.6441 
  15   2.0000     -10.276585      -279.6401 
  16   2.0000     -10.276492      -279.6376 
  17   2.0000     -10.276399      -279.6350 
  18   2.0000     -10.274609      -279.5863 
  19   2.0000     -10.271803      -279.5100 
  20   2.0000     -10.271577      -279.5038 
  21   2.0000     -10.271446      -279.5003 
  22   2.0000     -10.270720      -279.4805 
  23   2.0000     -10.269886      -279.4578 
  24   2.0000     -10.269776      -279.4548 
  25   2.0000     -10.269557      -279.4489 
  26   2.0000     -10.268267      -279.4137 
  27   2.0000     -10.268243      -279.4131 
  28   2.0000     -10.266560      -279.3673 
  29   2.0000      -1.131680       -30.7946 
  30   2.0000      -0.997853       -27.1530 
  31   2.0000      -0.979078       -26.6421 
  32   2.0000      -0.956783       -26.0354 
  33   2.0000      -0.942009       -25.6334 
  34   2.0000      -0.917386       -24.9633 
  35   2.0000      -0.910396       -24.7731 
  36   2.0000      -0.889461       -24.2035 
  37   2.0000      -0.887104       -24.1393 
  38   2.0000      -0.872863       -23.7518 
  39   2.0000      -0.852652       -23.2018 
  40   2.0000      -0.832487       -22.6531 
  41   2.0000      -0.828600       -22.5474 
  42   2.0000      -0.808224       -21.9929 
  43   2.0000      -0.801328       -21.8052 
  44   2.0000      -0.795275       -21.6405 
  45   2.0000      -0.786781       -21.4094 
  46   2.0000      -0.759219       -20.6594 
  47   2.0000      -0.757074       -20.6010 
  48   2.0000      -0.724864       -19.7245 
  49   2.0000      -0.712856       -19.3978 
  50   2.0000      -0.712237       -19.3810 
  51   2.0000      -0.701560       -19.0904 
  52   2.0000      -0.689090       -18.7511 
  53   2.0000      -0.671112       -18.2619 
  54   2.0000      -0.653616       -17.7858 
  55   2.0000      -0.633443       -17.2369 
  56   2.0000      -0.631197       -17.1757 
  57   2.0000      -0.620483       -16.8842 
  58   2.0000      -0.604945       -16.4614 
  59   2.0000      -0.601109       -16.3570 
  60   2.0000      -0.590224       -16.0608 
  61   2.0000      -0.584697       -15.9104 
  62   2.0000      -0.572423       -15.5764 
  63   2.0000      -0.568330       -15.4650 
  64   2.0000      -0.564032       -15.3481 
  65   2.0000      -0.561714       -15.2850 
  66   2.0000      -0.554006       -15.0753 
  67   2.0000      -0.547451       -14.8969 
  68   2.0000      -0.546779       -14.8786 
  69   2.0000      -0.538776       -14.6608 
  70   2.0000      -0.537087       -14.6149 
  71   2.0000      -0.531128       -14.4527 
  72   2.0000      -0.525046       -14.2872 
  73   2.0000      -0.518176       -14.1003 
  74   2.0000      -0.515254       -14.0208 
  75   2.0000      -0.506230       -13.7752 
  76   2.0000      -0.503732       -13.7073 
  77   2.0000      -0.502526       -13.6744 
  78   2.0000      -0.496638       -13.5142 
  79   2.0000      -0.492916       -13.4129 
  80   2.0000      -0.489218       -13.3123 
  81   2.0000      -0.488501       -13.2928 
  82   2.0000      -0.484776       -13.1914 
  83   2.0000      -0.480018       -13.0619 
  84   2.0000      -0.474861       -12.9216 
  85   2.0000      -0.473666       -12.8891 
  86   2.0000      -0.466324       -12.6893 
  87   2.0000      -0.464514       -12.6401 
  88   2.0000      -0.460920       -12.5423 
  89   2.0000      -0.451833       -12.2950 
  90   2.0000      -0.448781       -12.2120 
  91   2.0000      -0.446556       -12.1514 
  92   2.0000      -0.442384       -12.0379 
  93   2.0000      -0.430707       -11.7201 
  94   2.0000      -0.426103       -11.5948 
  95   2.0000      -0.421626       -11.4730 
  96   2.0000      -0.420394       -11.4395 
  97   2.0000      -0.416550       -11.3349 
  98   2.0000      -0.415531       -11.3072 
  99   2.0000      -0.413188       -11.2434 
 100   2.0000      -0.411745       -11.2042 
 101   2.0000      -0.407574       -11.0907 
 102   2.0000      -0.402882       -10.9630 
 103   2.0000      -0.399678       -10.8758 
 104   2.0000      -0.393743       -10.7143 
 105   2.0000      -0.380467       -10.3530 
 106   2.0000      -0.371718       -10.1150 
 107   2.0000      -0.357092        -9.7170 
 108   2.0000      -0.337221        -9.1763 
 109   2.0000      -0.289681        -7.8826 
 110   0.0000       0.047519         1.2931 
 111   0.0000       0.100418         2.7325 
 112   0.0000       0.107352         2.9212 
 113   0.0000       0.133694         3.6380 
 114   0.0000       0.142947         3.8898 
 115   0.0000       0.145859         3.9690 
 116   0.0000       0.152850         4.1593 
 117   0.0000       0.156013         4.2453 
 118   0.0000       0.158863         4.3229 
 119   0.0000       0.163365         4.4454 
 120   0.0000       0.169063         4.6004 
*Only the first 10 virtual orbitals were printed.

                    ********************************
                    * MULLIKEN POPULATION ANALYSIS *
                    ********************************

-----------------------
MULLIKEN ATOMIC CHARGES
-----------------------
   0 C :   -0.127080
   1 C :    0.144606
   2 C :    0.081527
   3 H :    0.016855
   4 H :    0.013134
   5 C :   -0.184498
   6 C :    0.111001
   7 C :    0.006660
   8 H :    0.029803
   9 H :    0.012224
  10 H :    0.023519
  11 H :    0.011275
  12 O :   -0.355266
  13 H :    0.014232
  14 C :   -0.024930
  15 C :   -0.044400
  16 H :    0.036368
  17 H :    0.029183
  18 C :   -0.060690
  19 H :   -0.006784
  20 C :   -0.116914
  21 H :    0.001484
  22 C :    0.115455
  23 C :   -0.001817
  24 H :    0.012462
  25 H :    0.017885
  26 C :    0.106271
  27 H :    0.012753
  28 H :    0.014728
  29 C :   -0.418196
  30 H :    0.008633
  31 H :   -0.002356
  32 C :   -0.038478
  33 H :    0.009964
  34 C :    0.109279
  35 H :    0.181717
  36 C :    0.069452
  37 H :    0.006335
  38 H :    0.015357
  39 C :   -0.039090
  40 H :    0.012381
  41 H :    0.000459
  42 H :   -0.001236
  43 C :   -0.011463
  44 C :    0.093981
  45 H :    0.023709
  46 H :    0.017062
  47 H :    0.020230
  48 H :    0.008268
  49 C :    0.052947
  50 C :   -0.084153
  51 C :   -0.051125
  52 H :    0.006067
  53 H :    0.020105
  54 C :   -0.063065
  55 C :    0.019399
  56 C :   -0.142076
  57 H :    0.002012
  58 H :    0.007295
  59 C :    0.034402
  60 C :    0.007461
  61 H :    0.020402
  62 H :    0.021425
  63 H :    0.021468
  64 H :    0.019277
  65 H :    0.016842
  66 H :    0.017095
  67 H :    0.018613
  68 H :    0.023673
  69 H :    0.019624
  70 H :    0.013534
  71 H :    0.030658
  72 H :    0.013068
Sum of atomic charges:   -0.0000000

--------------------------------
MULLIKEN REDUCED ORBITAL CHARGES
--------------------------------
  0 C s       :     3.077882  s :     3.077882
      pz      :     1.003077  p :     3.006377
      px      :     0.996941
      py      :     1.006360
      dz2     :     0.003335  d :     0.042821
      dxz     :     0.007117
      dyz     :     0.005811
      dx2y2   :     0.014529
      dxy     :     0.012029

  1 C s       :     2.931930  s :     2.931930
      pz      :     0.980495  p :     2.889031
      px      :     0.940550
      py      :     0.967987
      dz2     :     0.007249  d :     0.034433
      dxz     :     0.009402
      dyz     :     0.004325
      dx2y2   :     0.008771
      dxy     :     0.004686

  2 C s       :     3.075202  s :     3.075202
      pz      :     1.038910  p :     2.772105
      px      :     0.767627
      py      :     0.965568
      dz2     :     0.011991  d :     0.071166
      dxz     :     0.016211
      dyz     :     0.008807
      dx2y2   :     0.019027
      dxy     :     0.015130

  3 H s       :     0.959947  s :     0.959947
      pz      :     0.010484  p :     0.023198
      px      :     0.007933
      py      :     0.004781

  4 H s       :     0.964070  s :     0.964070
      pz      :     0.004069  p :     0.022796
      px      :     0.003797
      py      :     0.014930

  5 C s       :     3.111901  s :     3.111901
      pz      :     1.008716  p :     3.027813
      px      :     0.975603
      py      :     1.043494
      dz2     :     0.011299  d :     0.044785
      dxz     :     0.006765
      dyz     :     0.011750
      dx2y2   :     0.008360
      dxy     :     0.006611

  6 C s       :     2.949353  s :     2.949353
      pz      :     0.973021  p :     2.904173
      px      :     0.965070
      py      :     0.966082
      dz2     :     0.007219  d :     0.035473
      dxz     :     0.009741
      dyz     :     0.004511
      dx2y2   :     0.009120
      dxy     :     0.004882

  7 C s       :     3.013091  s :     3.013091
      pz      :     0.990250  p :     2.945225
      px      :     0.992395
      py      :     0.962580
      dz2     :     0.005549  d :     0.035025
      dxz     :     0.008428
      dyz     :     0.006105
      dx2y2   :     0.009628
      dxy     :     0.005314

  8 H s       :     0.946911  s :     0.946911
      pz      :     0.011101  p :     0.023287
      px      :     0.007410
      py      :     0.004776

  9 H s       :     0.964955  s :     0.964955
      pz      :     0.004261  p :     0.022821
      px      :     0.003723
      py      :     0.014837

 10 H s       :     0.953787  s :     0.953787
      pz      :     0.011783  p :     0.022695
      px      :     0.005255
      py      :     0.005656

 11 H s       :     0.966036  s :     0.966036
      pz      :     0.010584  p :     0.022689
      px      :     0.007491
      py      :     0.004613

 12 O s       :     3.726460  s :     3.726460
      pz      :     1.554454  p :     4.616596
      px      :     1.250950
      py      :     1.811192
      dz2     :     0.002371  d :     0.012210
      dxz     :     0.004037
      dyz     :     0.001743
      dx2y2   :     0.001682
      dxy     :     0.002378

 13 H s       :     0.965545  s :     0.965545
      pz      :     0.010716  p :     0.020223
      px      :     0.005324
      py      :     0.004184

 14 C s       :     3.197631  s :     3.197631
      pz      :     0.988141  p :     2.791073
      px      :     0.894581
      py      :     0.908350
      dz2     :     0.002989  d :     0.036226
      dxz     :     0.007770
      dyz     :     0.002906
      dx2y2   :     0.012441
      dxy     :     0.010120

 15 C s       :     3.122803  s :     3.122803
      pz      :     0.971963  p :     2.895349
      px      :     1.000827
      py      :     0.922559
      dz2     :     0.007234  d :     0.026248
      dxz     :     0.004143
      dyz     :     0.006915
      dx2y2   :     0.004946
      dxy     :     0.003010

 16 H s       :     0.939083  s :     0.939083
      pz      :     0.011492  p :     0.024548
      px      :     0.006313
      py      :     0.006743

 17 H s       :     0.946194  s :     0.946194
      pz      :     0.004025  p :     0.024624
      px      :     0.004621
      py      :     0.015978

 18 C s       :     3.200822  s :     3.200822
      pz      :     1.029415  p :     2.824559
      px      :     0.883798
      py      :     0.911346
      dz2     :     0.003111  d :     0.035310
      dxz     :     0.007218
      dyz     :     0.002858
      dx2y2   :     0.012393
      dxy     :     0.009730

 19 H s       :     0.982474  s :     0.982474
      pz      :     0.004558  p :     0.024310
      px      :     0.004086
      py      :     0.015666

 20 C s       :     3.099746  s :     3.099746
      pz      :     0.956823  p :     2.973163
      px      :     0.986363
      py      :     1.029977
      dz2     :     0.004037  d :     0.044005
      dxz     :     0.007376
      dyz     :     0.006540
      dx2y2   :     0.014226
      dxy     :     0.011826

 21 H s       :     0.974024  s :     0.974024
      pz      :     0.004674  p :     0.024491
      px      :     0.004016
      py      :     0.015801

 22 C s       :     2.923833  s :     2.923833
      pz      :     1.004843  p :     2.925177
      px      :     0.975518
      py      :     0.944816
      dz2     :     0.009895  d :     0.035535
      dxz     :     0.003988
      dyz     :     0.005415
      dx2y2   :     0.009562
      dxy     :     0.006675

 23 C s       :     3.001785  s :     3.001785
      pz      :     1.007908  p :     2.963618
      px      :     0.966185
      py      :     0.989525
      dz2     :     0.009639  d :     0.036414
      dxz     :     0.007428
      dyz     :     0.003306
      dx2y2   :     0.009963
      dxy     :     0.006079

 24 H s       :     0.964292  s :     0.964292
      pz      :     0.004769  p :     0.023246
      px      :     0.013498
      py      :     0.004979

 25 H s       :     0.958798  s :     0.958798
      pz      :     0.013969  p :     0.023317
      px      :     0.004912
      py      :     0.004436

 26 C s       :     2.970625  s :     2.970625
      pz      :     0.969465  p :     2.887768
      px      :     0.976919
      py      :     0.941385
      dz2     :     0.007310  d :     0.035336
      dxz     :     0.006562
      dyz     :     0.005302
      dx2y2   :     0.008369
      dxy     :     0.007792

 27 H s       :     0.964370  s :     0.964370
      pz      :     0.013816  p :     0.022877
      px      :     0.004489
      py      :     0.004573

 28 H s       :     0.962628  s :     0.962628
      pz      :     0.005065  p :     0.022644
      px      :     0.003757
      py      :     0.013822

 29 C s       :     3.259044  s :     3.259044
      pz      :     1.048797  p :     3.108161
      px      :     1.005386
      py      :     1.053978
      dz2     :     0.012025  d :     0.050991
      dxz     :     0.010182
      dyz     :     0.009189
      dx2y2   :     0.010472
      dxy     :     0.009123

 30 H s       :     0.968348  s :     0.968348
      pz      :     0.008584  p :     0.023019
      px      :     0.007859
      py      :     0.006576

 31 H s       :     0.979833  s :     0.979833
      pz      :     0.013387  p :     0.022523
      px      :     0.005055
      py      :     0.004081

 32 C s       :     3.030951  s :     3.030951
      pz      :     0.989425  p :     2.963651
      px      :     0.947711
      py      :     1.026515
      dz2     :     0.009173  d :     0.043876
      dxz     :     0.007319
      dyz     :     0.007092
      dx2y2   :     0.011028
      dxy     :     0.009264

 33 H s       :     0.968754  s :     0.968754
      pz      :     0.012804  p :     0.021282
      px      :     0.004407
      py      :     0.004071

 34 C s       :     2.905997  s :     2.905997
      pz      :     0.987080  p :     2.949760
      px      :     0.986045
      py      :     0.976634
      dz2     :     0.005426  d :     0.034964
      dxz     :     0.006309
      dyz     :     0.007930
      dx2y2   :     0.009218
      dxy     :     0.006080

 35 H s       :     0.750158  s :     0.750158
[...]
 Total          138.223          176.325          190.165  iso=     168.238

 Orientation: 
  X           0.2893689   -0.5373826    0.7921399
  Y          -0.0142789   -0.8298754   -0.5577661
  Z           0.9571112    0.1500893   -0.2478133

 --------------
 Nucleus  39C :
 --------------

Diamagnetic contribution to the shielding tensor (ppm) : 
           266.072          4.177        -7.436
             1.660        271.625         4.490
            -7.083          2.478       255.615

Paramagnetic contribution to the shielding tensor (ppm): 
          -101.377         -4.507         8.579
             9.159       -124.501         4.160
            15.323          1.959      -127.129

Total shielding tensor (ppm): 
           164.696         -0.330         1.142
            10.819        147.124         8.650
             8.240          4.436       128.486


 Diagonalized sT*s matrix:
 
 sDSO           256.210          271.141          265.961  iso=     264.437
 sPSO          -130.018         -124.205          -98.783  iso=    -117.669
        ---------------  ---------------  ---------------
 Total          126.192          146.935          167.178  iso=     146.769

 Orientation: 
  X          -0.0728427   -0.3132033   -0.9468884
  Y          -0.2868075    0.9158850   -0.2808846
  Z           0.9552148    0.2511143   -0.1565446

 --------------
 Nucleus  43C :
 --------------

Diamagnetic contribution to the shielding tensor (ppm) : 
           260.217          0.585        -5.689
            -5.217        257.753         6.058
            -2.859          6.870       238.075

Paramagnetic contribution to the shielding tensor (ppm): 
           -90.685         -8.515        -2.213
             2.063        -96.971        -2.855
            -0.424         -7.783       -87.849

Total shielding tensor (ppm): 
           169.532         -7.930        -7.901
            -3.154        160.782         3.202
            -3.283         -0.913       150.226


 Diagonalized sT*s matrix:
 
 sDSO           237.730          255.035          263.279  iso=     252.015
 sPSO           -89.015          -96.746          -89.745  iso=     -91.835
        ---------------  ---------------  ---------------
 Total          148.715          158.290          173.534  iso=     160.180

 Orientation: 
  X           0.2731057   -0.3899480    0.8794054
  Y           0.0214549   -0.9114616   -0.4108254
  Z           0.9617448    0.1310663   -0.2405590

 --------------
 Nucleus  44C :
 --------------

Diamagnetic contribution to the shielding tensor (ppm) : 
           251.416          0.860         1.501
            -1.458        258.367        -2.993
             1.107          1.610       269.497

Paramagnetic contribution to the shielding tensor (ppm): 
           -72.278         -4.816        -0.962
            -1.584        -79.384         1.314
             0.076         -3.168       -75.708

Total shielding tensor (ppm): 
           179.138         -3.956         0.539
            -3.042        178.984        -1.680
             1.183         -1.558       193.789


 Diagonalized sT*s matrix:
 
 sDSO           254.753          254.941          269.586  iso=     259.760
 sPSO           -79.209          -72.645          -75.515  iso=     -75.790
        ---------------  ---------------  ---------------
 Total          175.544          182.296          194.071  iso=     183.970

 Orientation: 
  X           0.6942852   -0.7143957    0.0872174
  Y           0.7190572    0.6834319   -0.1260064
  Z           0.0304113    0.1501987    0.9881880

 --------------
 Nucleus  49C :
 --------------

Diamagnetic contribution to the shielding tensor (ppm) : 
           244.620         -5.919        -2.939
           -19.966        259.344         1.337
            -4.910          5.118       240.747

Paramagnetic contribution to the shielding tensor (ppm): 
           -75.303          0.648         1.175
            18.852        -73.349         7.368
             6.210          1.256       -70.120

Total shielding tensor (ppm): 
           169.317         -5.271        -1.764
            -1.114        185.994         8.706
             1.299          6.374       170.627


 Diagonalized sT*s matrix:
 
 sDSO           240.608          241.629          262.474  iso=     248.237
 sPSO           -73.588          -72.245          -72.941  iso=     -72.924
        ---------------  ---------------  ---------------
 Total          167.020          169.384          189.534  iso=     175.313

 Orientation: 
  X           0.4651716    0.8736989   -0.1423576
  Y           0.3933719   -0.0599559    0.9174224
  Z          -0.7930157    0.4827583    0.3715784

 --------------
 Nucleus  50C :
 --------------

Diamagnetic contribution to the shielding tensor (ppm) : 
           267.887         11.249         2.849
            17.336        234.385        -1.427
             0.026          6.604       267.095

Paramagnetic contribution to the shielding tensor (ppm): 
          -256.949        -71.842        46.707
           -82.109       -113.595        13.722
            40.009         12.002      -209.644

Total shielding tensor (ppm): 
            10.938        -60.592        49.556
           -64.773        120.790        12.295
            40.035         18.606        57.451


 Diagonalized sT*s matrix:
 
 sDSO           270.582          269.306          229.479  iso=     256.456
 sPSO          -310.157         -189.969          -80.062  iso=    -193.396
        ---------------  ---------------  ---------------
 Total          -39.575           79.337          149.416  iso=      63.059

 Orientation: 
  X          -0.8509060    0.2983734    0.4323567
  Y          -0.3777691    0.2243586   -0.8983061
  Z           0.3650336    0.9277050    0.0781918

 --------------
 Nucleus  51C :
 --------------

Diamagnetic contribution to the shielding tensor (ppm) : 
           270.224         13.823         1.265
             2.255        258.628        -0.212
             5.071         -5.654       277.682

Paramagnetic contribution to the shielding tensor (ppm): 
          -256.959        -88.057        54.075
           -82.195       -134.772         1.647
            37.705          8.261      -226.702

Total shielding tensor (ppm): 
            13.265        -74.234        55.340
           -79.939        123.856         1.435
            42.776          2.606        50.980


 Diagonalized sT*s matrix:
 
 sDSO           273.920          275.412          257.202  iso=     268.845
 sPSO          -314.012         -214.616          -89.805  iso=    -206.144
        ---------------  ---------------  ---------------
 Total          -40.092           60.795          167.397  iso=      62.700

 Orientation: 
  X           0.8675685    0.0676898    0.4926895
  Y           0.4590391    0.2721519   -0.8457047
  Z          -0.1913320    0.9598705    0.2050382

 --------------
 Nucleus  54C :
 --------------

Diamagnetic contribution to the shielding tensor (ppm) : 
           251.935          0.225         5.554
             3.161        243.984        -0.920
             1.280          1.474       248.738

Paramagnetic contribution to the shielding tensor (ppm): 
           -92.237          7.139        -6.556
             8.220        -89.724        14.628
            -2.913          5.674       -98.695

Total shielding tensor (ppm): 
           159.698          7.364        -1.001
            11.381        154.260        13.708
            -1.633          7.148       150.043


 Diagonalized sT*s matrix:
 
 sDSO           247.454          245.998          251.205  iso=     248.219
 sPSO          -108.482          -89.555          -82.618  iso=     -93.552
        ---------------  ---------------  ---------------
 Total          138.972          156.443          168.587  iso=     154.667

 Orientation: 
  X           0.3373041   -0.6675104   -0.6638192
  Y          -0.6727831    0.3222974   -0.6659484
  Z           0.6584747    0.6712334   -0.3403774

 --------------
 Nucleus  55C :
 --------------

Diamagnetic contribution to the shielding tensor (ppm) : 
           249.329         -2.163         4.861
           -17.735        227.562        -8.688
             7.172         -6.165       249.609

Paramagnetic contribution to the shielding tensor (ppm): 
           -63.715          1.160         4.277
            12.100        -47.469         3.275
             2.935          2.831       -64.154

Total shielding tensor (ppm): 
           185.614         -1.003         9.138
            -5.635        180.093        -5.413
            10.107         -3.334       185.455


 Diagonalized sT*s matrix:
 
 sDSO           242.902          223.590          260.008  iso=     242.167
 sPSO           -67.196          -45.050          -63.092  iso=     -58.446
        ---------------  ---------------  ---------------
 Total          175.706          178.540          196.916  iso=     183.720

 Orientation: 
  X          -0.6276556    0.3956473    0.6704563
  Y           0.2562373    0.9182311   -0.3019837
  Z           0.7351129    0.0177458    0.6777125

 --------------
 Nucleus  56C :
 --------------

Diamagnetic contribution to the shielding tensor (ppm) : 
           245.878          5.252        -3.970
            12.645        240.960        11.165
            -6.198          6.395       244.777

Paramagnetic contribution to the shielding tensor (ppm): 
           -84.652         -6.938         6.656
           -11.818        -65.571       -10.301
            10.334          0.438       -88.454

Total shielding tensor (ppm): 
           161.226         -1.686         2.685
             0.828        175.388         0.863
             4.136          6.833       156.324


 Diagonalized sT*s matrix:
 
 sDSO           247.463          239.556          244.595  iso=     243.872
 sPSO           -93.504          -76.714          -68.458  iso=     -79.559
        ---------------  ---------------  ---------------
 Total          153.960          162.842          176.137  iso=     164.313

 Orientation: 
  X          -0.4255001    0.9047280    0.0204169
  Y          -0.1584327   -0.0966868    0.9826244
  Z           0.8909819    0.4148721    0.1844788

 --------------
 Nucleus  59C :
 --------------

Diamagnetic contribution to the shielding tensor (ppm) : 
           245.457         13.228         7.514
            20.433        229.066         5.834
             6.357         -3.478       227.678

Paramagnetic contribution to the shielding tensor (ppm): 
           -58.017          3.377       -16.974
            -4.607        -57.209        -3.528
           -11.513         10.395       -60.677

Total shielding tensor (ppm): 
           187.440         16.604        -9.460
            15.826        171.856         2.306
            -5.156          6.917       167.001


 Diagonalized sT*s matrix:
 
 sDSO           224.860          223.628          253.713  iso=     234.067
 sPSO           -68.883          -51.416          -55.604  iso=     -58.635
        ---------------  ---------------  ---------------
 Total          155.977          172.212          198.108  iso=     175.432

 Orientation: 
  X           0.4787439   -0.2108223   -0.8522665
  Y          -0.6509108    0.5662036   -0.5056962
  Z           0.5891684    0.7968485    0.1338400

 --------------
 Nucleus  60C :
 --------------

Diamagnetic contribution to the shielding tensor (ppm) : 
           238.477         -4.012       -10.168
            11.699        243.503         7.775
             6.697         10.065       263.052

Paramagnetic contribution to the shielding tensor (ppm): 
           -51.882          8.289         2.163
            -9.110        -69.572        -6.118
           -18.793        -12.428       -77.680

Total shielding tensor (ppm): 
           186.595          4.276        -8.005
             2.589        173.931         1.657
           -12.096         -2.363       185.372


 Diagonalized sT*s matrix:
 
 sDSO           236.588          258.070          250.375  iso=     248.344
 sPSO           -64.214          -80.935          -53.985  iso=     -66.378
        ---------------  ---------------  ---------------
 Total          172.373          177.135          196.390  iso=     181.966

 Orientation: 
  X           0.4204003    0.5326165   -0.7345633
  Y          -0.8565884    0.4999383   -0.1277420
  Z           0.2991988    0.6829212    0.6664073



--------------------------------
CHEMICAL SHIELDING SUMMARY (ppm)
--------------------------------


  Nucleus  Element    Isotropic     Anisotropy
  -------  -------  ------------   ------------
      0       C           59.647        147.984 
      1       C          151.200         30.173 
      2       C          128.933         55.219 
      5       C           51.538        179.205 
      6       C          165.027         22.991 
      7       C          161.645         22.506 
     14       C           74.680        128.462 
     15       C           82.922        121.191 
     18       C           79.269        134.075 
     20       C           52.379        174.948 
     22       C          169.437          8.836 
     23       C          174.639         12.319 
     26       C          158.634         24.369 
     29       C          154.573         16.944 
     32       C          143.163         27.775 
     34       C          174.338         23.086 
     36       C          168.238         32.891 
     39       C          146.769         30.614 
     43       C          160.180         20.032 
     44       C          183.970         15.151 
     49       C          175.313         21.331 
     50       C           63.059        129.535 
     51       C           62.700        157.045 
     54       C          154.667         20.879 
     55       C          183.720         19.793 
     56       C          164.313         17.736 
     59       C          175.432         34.014 
     60       C          181.966         21.635 


NMR shielding tensor and spin rotation calculation done in   1.6 sec 

Maximum memory used throughout the entire PROP-calculation: 51.9 MB

--------------------------------
SUGGESTED CITATIONS FOR THIS RUN
--------------------------------

Below you find a list of papers that are relevant to this ORCA run
We neither can nor want to force you to cite these papers, but we appreciate if you do
You receive ORCA, which is the product of decades of hard work by many enthusiastic individuals, for free
The only thing we kindly ask in return is that you cite our papers,
We deeply appreciate it, if you show your appreciation for ORCA by not just citing the generic ORCA reference.

Please note that relegating all ORCA citations to the supporting information does *not* help us.
SI sections are not indexed - citations you put there will not count into any citation statistics
But we need these citations in order to attract the funding resources that allow us to do what we are doing

Therefore, if you are a happy ORCA user, please consider citing a few of the papers listed below in the main body of your paper

In addition to the list printed below, the program has created the file inpS.bibtex that contains the list in bibtex format
You can import this file easily into all common literature databanks and citation aid programs


List of essential papers. We consider these as the minimum necessary citations

  1. Neese,F.
     Software update: the ORCA program system, version 5.0
     WIRES Comput. Molec. Sci., 2022 12(1)e1606
     doi.org/10.1002/wcms.1606

List of papers to cite with high priority. The work reported in these papers was absolutely
necessary for this run to complete.
Our perspective: the developers of density functionals and basis sets usually get cited in chemistry papers
Good! But without the algorithms to do something with them, the functionals or basis sets would not do anything.
Hence, in our opinion, the algorithm design and method developments papers are equally worthy of getting cited

  1. Neese,F.
     An improvement of the resolution of the identity approximation for the formation of the Coulomb matrix
     J. Comp. Chem., 2003 24(14)1740-1747
     doi.org/10.1002/jcc.10318
  2. Neese,F.; Wennmohs,F.; Hansen,A.; Becker,U.
     Efficient, approximate and parallel Hartree-Fock and hybrid DFT calculations. A 'chain-of-spheres' algorithm for the Hartree-Fock exchange
     Chem. Phys., 2009 356(1-3)98-109
     doi.org/10.1016/j.chemphys.2008.10.036
  3. Stoychev,G.L.; Auer,A.A.; Izsak,R.; Neese,F.
     Self-Consistent Field Calculation of Nuclear Magnetic Resonance Chemical Shielding Constants Using Gauge-Including Atomic Orbitals and Approximate Two-Electron Integrals
     J. Chem. Theory Comput., 2018 14(2)619-637
     doi.org/10.1021/acs.jctc.7b01006
  4. Garcia-Rates,M.; Neese,F.
     Effect of the Solute Cavity on the Solvation Energy and its Derivatives within the Framework of the Gaussian Charge Scheme
     J. Comput. Chem., 2020 41 922-939
     doi.org/10.1002/jcc.26139
  5. Helmich-Paris,B.; de Souza,B.; Neese,F.; Izsák,R.
     An improved chain of spheres for exchange algorithm
     J. Chem. Phys., 2021 155 104109
     doi.org/doi: 10.1063/5.0058766.
  6. Neese,F.
     The SHARK Integral Generation and Digestion System
     J. Comp. Chem., 2022  1-16
     doi.org/10.1002/jcc.26942
  7. Caldeweyher,E.; Bannwarth,C.; Grimme,S.
     Extension of the D3 dispersion coefficient model
     J. Chem. Phys., 2017 147 034112-XXXX
     doi.org/10.1063/1.4993215
  8. Caldeweyher,E.; Ehlert,S.; Hansen,A.; Neugebauer,H.; Spicher,S.; Bannwarth,C.; Grimme,S.
     A generally applicable atomic-charge dependent London dispersion correction
     J. Chem. Phys., 2019 150 154122-XXXX
     doi.org/10.1063/1.5090222
  9. Caldeweyher,E.; Mewes,J.; Ehlert,S.; Grimme,S.
     Extension and evaluation of the D4 London-dispersion model for periodic systems
     Phys. Chem. Chem. Phys., 2020 22(16)8499-8512
     doi.org/10.1039/D0CP00502A

List of suggested additional citations. These are papers that are important in the 'surrounding' of 
of this run, or papers that preceded the highly important papers. If you like your results we are grateful for a citation.

  1. Izsak,R.; Neese,F.
     An overlap fitted chain of spheres exchange method
     J. Chem. Phys., 2011 135 144105
     doi.org/10.1063/1.3646921
  2. Izsak,R.; Hansen,A.; Neese,F.
     The resolution of identity and chain of spheres approximations for the LPNO-CCSD singles Fock term
     Molec. Phys., 2012 110 2413-2417
     doi.org/10.1080/00268976.2012.687466
  3. Neese,F.
     The ORCA program system
     WIRES Comput. Molec. Sci., 2012 2(1)73-78
     doi.org/10.1002/wcms.81
  4. Izsak,R.; Neese,F.; Klopper,W.
     Robust fitting techniques in the chain of spheres approximation to the Fock exchange: The role of the complementary space
     J. Chem. Phys., 2013 139 
     doi.org/10.1063/1.4819264
  5. Neese,F.
     Software update: the ORCA program system, version 4.0
     WIRES Comput. Molec. Sci., 2018 8(1)1-6
     doi.org/10.1002/wcms.1327
  6. Neese,F.; Wennmohs,F.; Becker,U.; Riplinger,C.
     The ORCA quantum chemistry program package
     J. Chem. Phys., 2020 152 Art. No. L224108
     doi.org/10.1063/5.0004608

Timings for individual modules:

Sum of individual times          ...      178.242 sec (=   2.971 min)
Startup calculation              ...        4.781 sec (=   0.080 min)   2.7 %
SCF iterations                   ...       71.870 sec (=   1.198 min)  40.3 %
Property integrals               ...       60.628 sec (=   1.010 min)  34.0 %
SCF Response                     ...       39.049 sec (=   0.651 min)  21.9 %
Property calculations            ...        1.914 sec (=   0.032 min)   1.1 %
                             ****ORCA TERMINATED NORMALLY****
TOTAL RUN TIME: 0 days 0 hours 2 minutes 58 seconds 548 msec
