
                                 *****************
                                 * O   R   C   A *
                                 *****************

                                            #,                                       
                                            ###                                      
                                            ####                                     
                                            #####                                    
                                            ######                                   
                                           ########,                                 
                                     ,,################,,,,,                         
                               ,,#################################,,                 
                          ,,##########################################,,             
                       ,#########################################, ''#####,          
                    ,#############################################,,   '####,        
                  ,##################################################,,,,####,       
                ,###########''''           ''''###############################       
              ,#####''   ,,,,##########,,,,          '''####'''          '####       
            ,##' ,,,,###########################,,,                        '##       
           ' ,,###''''                  '''############,,,                           
         ,,##''                                '''############,,,,        ,,,,,,###''
      ,#''                                            '''#######################'''  
     '                                                          ''''####''''         
             ,#######,   #######,   ,#######,      ##                                
            ,#'     '#,  ##    ##  ,#'     '#,    #''#        ######   ,####,        
            ##       ##  ##   ,#'  ##            #'  '#       #        #'  '#        
            ##       ##  #######   ##           ,######,      #####,   #    #        
            '#,     ,#'  ##    ##  '#,     ,#' ,#      #,         ##   #,  ,#        
             '#######'   ##     ##  '#######'  #'      '#     #####' # '####'        



                  #######################################################
                  #                        -***-                        #
                  #          Department of theory and spectroscopy      #
                  #    Directorship and core code : Frank Neese         #
                  #        Max Planck Institute fuer Kohlenforschung    #
                  #                Kaiser Wilhelm Platz 1               #
                  #                 D-45470 Muelheim/Ruhr               #
                  #                      Germany                        #
                  #                                                     #
                  #                  All rights reserved                #
                  #                        -***-                        #
                  #######################################################


                         Program Version 5.0.2 -  RELEASE  -


 With contributions from (in alphabetic order):
   Daniel Aravena         : Magnetic Suceptibility
   Michael Atanasov       : Ab Initio Ligand Field Theory (pilot matlab implementation)
   Alexander A. Auer      : GIAO ZORA, VPT2 properties, NMR spectrum
   Ute Becker             : Parallelization
   Giovanni Bistoni       : ED, misc. LED, open-shell LED, HFLD
   Martin Brehm           : Molecular dynamics
   Dmytro Bykov           : SCF Hessian
   Vijay G. Chilkuri      : MRCI spin determinant printing, contributions to CSF-ICE
   Dipayan Datta          : RHF DLPNO-CCSD density
   Achintya Kumar Dutta   : EOM-CC, STEOM-CC
   Dmitry Ganyushin       : Spin-Orbit,Spin-Spin,Magnetic field MRCI
   Miquel Garcia          : C-PCM and meta-GGA Hessian, CC/C-PCM, Gaussian charge scheme
   Yang Guo               : DLPNO-NEVPT2, F12-NEVPT2, CIM, IAO-localization
   Andreas Hansen         : Spin unrestricted coupled pair/coupled cluster methods
   Benjamin Helmich-Paris : MC-RPA, TRAH-SCF, COSX integrals
   Lee Huntington         : MR-EOM, pCC
   Robert Izsak           : Overlap fitted RIJCOSX, COSX-SCS-MP3, EOM
   Marcus Kettner         : VPT2
   Christian Kollmar      : KDIIS, OOCD, Brueckner-CCSD(T), CCSD density, CASPT2, CASPT2-K
   Simone Kossmann        : Meta GGA functionals, TD-DFT gradient, OOMP2, MP2 Hessian
   Martin Krupicka        : Initial AUTO-CI
   Lucas Lang             : DCDCAS
   Marvin Lechner         : AUTO-CI (C++ implementation), FIC-MRCC
   Dagmar Lenk            : GEPOL surface, SMD
   Dimitrios Liakos       : Extrapolation schemes; Compound Job, initial MDCI parallelization
   Dimitrios Manganas     : Further ROCIS development; embedding schemes
   Dimitrios Pantazis     : SARC Basis sets
   Anastasios Papadopoulos: AUTO-CI, single reference methods and gradients
   Taras Petrenko         : DFT Hessian,TD-DFT gradient, ASA, ECA, R-Raman, ABS, FL, XAS/XES, NRVS
   Peter Pinski           : DLPNO-MP2, DLPNO-MP2 Gradient
   Christoph Reimann      : Effective Core Potentials
   Marius Retegan         : Local ZFS, SOC
   Christoph Riplinger    : Optimizer, TS searches, QM/MM, DLPNO-CCSD(T), (RO)-DLPNO pert. Triples
   Tobias Risthaus        : Range-separated hybrids, TD-DFT gradient, RPA, STAB
   Michael Roemelt        : Original ROCIS implementation
   Masaaki Saitow         : Open-shell DLPNO-CCSD energy and density
   Barbara Sandhoefer     : DKH picture change effects
   Avijit Sen             : IP-ROCIS
   Kantharuban Sivalingam : CASSCF convergence, NEVPT2, FIC-MRCI
   Bernardo de Souza      : ESD, SOC TD-DFT
   Georgi Stoychev        : AutoAux, RI-MP2 NMR, DLPNO-MP2 response
   Willem Van den Heuvel  : Paramagnetic NMR
   Boris Wezisla          : Elementary symmetry handling
   Frank Wennmohs         : Technical directorship


 We gratefully acknowledge several colleagues who have allowed us to
 interface, adapt or use parts of their codes:
   Stefan Grimme, W. Hujo, H. Kruse, P. Pracht,  : VdW corrections, initial TS optimization,
                  C. Bannwarth, S. Ehlert          DFT functionals, gCP, sTDA/sTD-DF
   Ed Valeev, F. Pavosevic, A. Kumar             : LibInt (2-el integral package), F12 methods
   Garnet Chan, S. Sharma, J. Yang, R. Olivares  : DMRG
   Ulf Ekstrom                                   : XCFun DFT Library
   Mihaly Kallay                                 : mrcc  (arbitrary order and MRCC methods)
   Jiri Pittner, Ondrej Demel                    : Mk-CCSD
   Frank Weinhold                                : gennbo (NPA and NBO analysis)
   Christopher J. Cramer and Donald G. Truhlar   : smd solvation model
   Lars Goerigk                                  : TD-DFT with DH, B97 family of functionals
   V. Asgeirsson, H. Jonsson                     : NEB implementation
   FAccTs GmbH                                   : IRC, NEB, NEB-TS, DLPNO-Multilevel, CI-OPT
                                                   MM, QMMM, 2- and 3-layer-ONIOM, Crystal-QMMM,
                                                   LR-CPCM, SF, NACMEs, symmetry and pop. for TD-DFT,
                                                   nearIR, NL-DFT gradient (VV10), updates on ESD,
                                                   ML-optimized integration grids
   S Lehtola, MJT Oliveira, MAL Marques          : LibXC Library
   Liviu Ungur et al                             : ANISO software


 Your calculation uses the libint2 library for the computation of 2-el integrals
 For citations please refer to: http://libint.valeyev.net

 Your ORCA version has been built with support for libXC version: 5.1.0
 For citations please refer to: https://tddft.org/programs/libxc/

 This ORCA versions uses:
   CBLAS   interface :  Fast vector & matrix operations
   LAPACKE interface :  Fast linear algebra routines
   SCALAPACK package :  Parallel linear algebra routines
   Shared memory     :  Shared parallel matrices
   BLAS/LAPACK       :  OpenBLAS 0.3.15  USE64BITINT DYNAMIC_ARCH NO_AFFINITY Zen SINGLE_THREADED
        Core in use  :  Zen
   Copyright (c) 2011-2014, The OpenBLAS Project


Your calculation utilizes the atom-pairwise dispersion correction
based on tight binding partial charges (D4)
Cite in your paper:
E.Caldeweyher, C.Bannwarth, S.Grimme, J.Chem.Phys., (2017), 147, 034112.
E.Caldeweyher, S.Ehlert, A.Hansen, H.Neugebauer, S.Grimme, J.Chem.Phys., (2018), in progress.
   

================================================================================

----- Orbital basis set information -----
Your calculation utilizes the basis: pcSseg-1
   F. Jensen, J. Chem. Theory Comput. 11, 132 (2015).

----- AuxJ basis set information -----
Your calculation utilizes the auxiliary basis: def2/J
   F. Weigend, Phys. Chem. Chem. Phys. 8, 1057 (2006).

================================================================================
                                        WARNINGS
                       Please study these warnings very carefully!
================================================================================



WARNING: Found flag for RIJCOSX approximation but no HF exchange needed!
  ===> : RIJCOSX  will be disabled and Split-RI-J is turned on

INFO   : the flag for use of the SHARK integral package has been found!

================================================================================
                                       INPUT FILE
================================================================================
NAME = inpS
|  1> ! revTPSS
|  2> ! D4
|  3> ! pcSseg-1
|  4> ! def2/J RIJCOSX
|  5> ! DEFGRID2
|  6> ! scfconv7
|  7> ! smallprint printgap noloewdin
|  8> ! NOSOSCF
|  9> %MaxCore 4000
| 10> %output
| 11>        print[P_BondOrder_M] 1
| 12>        print[P_Mayer] 1
| 13>        print[P_basis] 2
| 14> end
| 15> %pal
| 16>     nprocs 4
| 17> end
| 18> ! CPCM(chloroform)
| 19> *xyz 0 1
| 20> C   -5.0318049700   0.2511081400  -0.4971302200
| 21> C   -6.4867457800  -0.1181096600  -0.6673763200
| 22> C   -7.3779896400   0.8096520800   0.1680802400
| 23> H   -6.6572302500  -1.1616516900  -0.3794964400
| 24> H   -6.7794300000  -0.0048992100  -1.7218112900
| 25> C   -4.7359064400   1.6744536200  -0.7722711200
| 26> C   -5.6499086300   2.6515932200  -0.0662313300
| 27> C   -7.1286094800   2.2684853000  -0.2186481000
| 28> H   -5.4752304600   3.6678087100  -0.4354413000
| 29> H   -5.3944855300   2.6509136000   1.0044057600
| 30> H   -7.4388391200   2.4064397100  -1.2634082400
| 31> H   -7.7527005700   2.9233388700   0.4003944100
| 32> O   -7.1656865500   0.5890671900   1.5724521900
| 33> H   -8.4317919200   0.5596344100  -0.0061199200
| 34> C   -4.1244467200  -0.6564153300  -0.0641059300
| 35> C   -3.7681275900   2.0723399400  -1.6054624200
| 36> H   -3.1326724100   1.3548387000  -2.1177390200
| 37> H   -3.5975241200   3.1284989000  -1.8005501700
| 38> C   -2.7350966200  -0.3970889300   0.2367226500
| 39> H   -4.4950688700  -1.6674072700   0.1007710600
| 40> C   -1.7999238600  -1.3160744000   0.5582295900
| 41> H   -2.4313643200   0.6469659200   0.2071176200
| 42> C   -2.0153593900  -2.8070310600   0.6153387100
| 43> C   -1.0203921200  -3.5545068400  -0.2939435400
| 44> H   -3.0381661000  -3.0904002500   0.3531383200
| 45> H   -1.8435576100  -3.1346479900   1.6528894400
| 46> C    0.4356624900  -3.1408441600  -0.0425680200
| 47> H   -1.2848615000  -3.3667677600  -1.3422933500
| 48> H   -1.1283939200  -4.6342671800  -0.1337656800
| 49> C    0.6230678500  -1.6207295900  -0.1409089400
| 50> H    1.0819242600  -3.6683801700  -0.7518681600
| 51> H    0.7345402900  -3.4642570300   0.9659484700
| 52> C   -0.3771735400  -0.9590184400   0.8609791300
| 53> H   -0.1394784800  -1.4243362000   1.8351988600
| 54> C    0.0750698500   0.4968358600   0.9338733200
| 55> H   -6.2125629500   0.4991314800   1.7138942800
| 56> C    1.6165522900   0.4057088000   0.8187845200
| 57> H   -0.2559562500   0.9839409300   1.8570438300
| 58> H   -0.3362320700   1.0750006800   0.0989266600
| 59> C    1.9613186400  -1.0585529500   0.4127249000
| 60> H    2.1134881300   0.6717618700   1.7572019900
| 61> H    1.9947979500   1.1028112000   0.0620175500
| 62> H    2.1869640800  -1.6314649100   1.3275129800
| 63> C    3.2193495600  -1.1161664700  -0.4779071900
| 64> C    0.3741955100  -1.1255633000  -1.5728138100
| 65> H    0.6156022000  -0.0632060500  -1.6799902500
| 66> H   -0.6726750500  -1.2531816600  -1.8649723600
| 67> H    0.9932848100  -1.6802993600  -2.2865469600
| 68> H    3.0260413600  -0.5296152600  -1.3881650700
| 69> C    3.6162585400  -2.5434242800  -0.8833492700
| 70> C    4.3706187700  -0.4748470200   0.2522262000
| 71> C    5.0475143800   0.5851431900  -0.1882614200
| 72> H    4.6315008500  -0.9522625700   1.1959550800
| 73> H    4.7310344400   1.0074956600  -1.1475842100
| 74> C    6.2219640800   1.3169451600   0.4134816500
| 75> C    7.3983541200   1.2620929800  -0.5788008400
| 76> C    6.6717571100   0.9610930300   1.8490358000
| 77> H    5.9130106100   2.3754572000   0.4630245400
| 78> H    7.4645891700   1.6929750600   2.0708565600
| 79> C    7.3124325300  -0.4232471800   2.0059359300
| 80> C    5.5694474500   1.1917711600   2.8891965800
| 81> H    7.7135366600   0.2293014300  -0.7603310500
| 82> H    8.2578333400   1.8235259200  -0.1943514800
| 83> H    7.1122227300   1.6950187900  -1.5433710000
| 84> H    8.1740675400  -0.5464891100   1.3424606100
| 85> H    6.6109413700  -1.2354498400   1.7950364400
| 86> H    7.6676021000  -0.5523353300   3.0347515500
| 87> H    5.0971594000   2.1711291700   2.7490461400
| 88> H    5.9896835400   1.1611804900   3.9008254200
| 89> H    4.7832460600   0.4335339700   2.8348932600
| 90> H    2.8802088200  -2.9968694700  -1.5520055600
| 91> H    3.7143420100  -3.1848759800   0.0012237800
| 92> H    4.5807888600  -2.5338228200  -1.4022759400
| 93> *
| 94> %eprnmr
| 95>  Nuclei = all H { shift }
| 96>  origin giao
| 97>  giao_2el giao_2el_same_as_scf
| 98>  giao_1el giao_1el_analytic
| 99> end
|100> 
|101>                          ****END OF INPUT****
================================================================================

                       ****************************
                       * Single Point Calculation *
                       ****************************

---------------------------------
CARTESIAN COORDINATES (ANGSTROEM)
---------------------------------
  C     -5.031805    0.251108   -0.497130
  C     -6.486746   -0.118110   -0.667376
  C     -7.377990    0.809652    0.168080
  H     -6.657230   -1.161652   -0.379496
  H     -6.779430   -0.004899   -1.721811
  C     -4.735906    1.674454   -0.772271
  C     -5.649909    2.651593   -0.066231
  C     -7.128609    2.268485   -0.218648
  H     -5.475230    3.667809   -0.435441
  H     -5.394486    2.650914    1.004406
  H     -7.438839    2.406440   -1.263408
  H     -7.752701    2.923339    0.400394
  O     -7.165687    0.589067    1.572452
  H     -8.431792    0.559634   -0.006120
  C     -4.124447   -0.656415   -0.064106
  C     -3.768128    2.072340   -1.605462
  H     -3.132672    1.354839   -2.117739
  H     -3.597524    3.128499   -1.800550
  C     -2.735097   -0.397089    0.236723
  H     -4.495069   -1.667407    0.100771
  C     -1.799924   -1.316074    0.558230
  H     -2.431364    0.646966    0.207118
  C     -2.015359   -2.807031    0.615339
  C     -1.020392   -3.554507   -0.293944
  H     -3.038166   -3.090400    0.353138
  H     -1.843558   -3.134648    1.652889
  C      0.435662   -3.140844   -0.042568
  H     -1.284861   -3.366768   -1.342293
  H     -1.128394   -4.634267   -0.133766
  C      0.623068   -1.620730   -0.140909
  H      1.081924   -3.668380   -0.751868
  H      0.734540   -3.464257    0.965948
  C     -0.377174   -0.959018    0.860979
  H     -0.139478   -1.424336    1.835199
  C      0.075070    0.496836    0.933873
  H     -6.212563    0.499131    1.713894
  C      1.616552    0.405709    0.818785
  H     -0.255956    0.983941    1.857044
  H     -0.336232    1.075001    0.098927
  C      1.961319   -1.058553    0.412725
  H      2.113488    0.671762    1.757202
  H      1.994798    1.102811    0.062018
  H      2.186964   -1.631465    1.327513
  C      3.219350   -1.116166   -0.477907
  C      0.374196   -1.125563   -1.572814
  H      0.615602   -0.063206   -1.679990
  H     -0.672675   -1.253182   -1.864972
  H      0.993285   -1.680299   -2.286547
  H      3.026041   -0.529615   -1.388165
  C      3.616259   -2.543424   -0.883349
  C      4.370619   -0.474847    0.252226
  C      5.047514    0.585143   -0.188261
  H      4.631501   -0.952263    1.195955
  H      4.731034    1.007496   -1.147584
  C      6.221964    1.316945    0.413482
  C      7.398354    1.262093   -0.578801
  C      6.671757    0.961093    1.849036
  H      5.913011    2.375457    0.463025
  H      7.464589    1.692975    2.070857
  C      7.312433   -0.423247    2.005936
  C      5.569447    1.191771    2.889197
  H      7.713537    0.229301   -0.760331
  H      8.257833    1.823526   -0.194351
  H      7.112223    1.695019   -1.543371
  H      8.174068   -0.546489    1.342461
  H      6.610941   -1.235450    1.795036
  H      7.667602   -0.552335    3.034752
  H      5.097159    2.171129    2.749046
  H      5.989684    1.161180    3.900825
  H      4.783246    0.433534    2.834893
  H      2.880209   -2.996869   -1.552006
  H      3.714342   -3.184876    0.001224
  H      4.580789   -2.533823   -1.402276

----------------------------
CARTESIAN COORDINATES (A.U.)
----------------------------
  NO LB      ZA    FRAG     MASS         X           Y           Z
   0 C     6.0000    0    12.011   -9.508733    0.474526   -0.939440
   1 C     6.0000    0    12.011  -12.258173   -0.223195   -1.261158
   2 C     6.0000    0    12.011  -13.942380    1.530021    0.317626
   3 H     1.0000    0     1.008  -12.580342   -2.195204   -0.717144
   4 H     1.0000    0     1.008  -12.811266   -0.009258   -3.253752
   5 C     6.0000    0    12.011   -8.949566    3.164259   -1.459381
   6 C     6.0000    0    12.011  -10.676780    5.010785   -0.125159
   7 C     6.0000    0    12.011  -13.471120    4.286816   -0.413185
   8 H     1.0000    0     1.008  -10.346686    6.931154   -0.822865
   9 H     1.0000    0     1.008  -10.194100    5.009501    1.898052
  10 H     1.0000    0     1.008  -14.057369    4.547512   -2.387496
  11 H     1.0000    0     1.008  -14.650481    5.524310    0.756636
  12 O     8.0000    0    15.999  -13.541185    1.113176    2.971504
  13 H     1.0000    0     1.008  -15.933778    1.057556   -0.011565
  14 C     6.0000    0    12.011   -7.794075   -1.240445   -0.121143
  15 C     6.0000    0    12.011   -7.120729    3.916155   -3.033884
  16 H     1.0000    0     1.008   -5.919893    2.560274   -4.001947
  17 H     1.0000    0     1.008   -6.798335    5.912006   -3.402547
  18 C     6.0000    0    12.011   -5.168584   -0.750389    0.447341
  19 H     1.0000    0     1.008   -8.494449   -3.150943    0.190430
  20 C     6.0000    0    12.011   -3.401363   -2.487020    1.054901
  21 H     1.0000    0     1.008   -4.594613    1.222588    0.391396
  22 C     6.0000    0    12.011   -3.808477   -5.304520    1.162822
  23 C     6.0000    0    12.011   -1.928262   -6.717044   -0.555473
  24 H     1.0000    0     1.008   -5.741302   -5.840010    0.667335
  25 H     1.0000    0     1.008   -3.483819   -5.923626    3.123508
  26 C     6.0000    0    12.011    0.823283   -5.935335   -0.080442
  27 H     1.0000    0     1.008   -2.428036   -6.362269   -2.536567
  28 H     1.0000    0     1.008   -2.132355   -8.757496   -0.252781
  29 C     6.0000    0    12.011    1.177428   -3.062735   -0.266279
  30 H     1.0000    0     1.008    2.044541   -6.932234   -1.420825
  31 H     1.0000    0     1.008    1.388080   -6.546497    1.825378
  32 C     6.0000    0    12.011   -0.712755   -1.812282    1.627015
  33 H     1.0000    0     1.008   -0.263576   -2.691605    3.468023
  34 C     6.0000    0    12.011    0.141861    0.938884    1.764765
  35 H     1.0000    0     1.008  -11.740043    0.943222    3.238791
  36 C     6.0000    0    12.011    3.054841    0.766679    1.547279
  37 H     1.0000    0     1.008   -0.483687    1.859379    3.509304
  38 H     1.0000    0     1.008   -0.635387    2.031457    0.186944
  39 C     6.0000    0    12.011    3.706355   -2.000375    0.779937
  40 H     1.0000    0     1.008    3.993914    1.269446    3.320631
  41 H     1.0000    0     1.008    3.769622    2.084011    0.117196
  42 H     1.0000    0     1.008    4.132763   -3.083022    2.508636
  43 C     6.0000    0    12.011    6.083689   -2.109249   -0.903114
  44 C     6.0000    0    12.011    0.707127   -2.127006   -2.972187
  45 H     1.0000    0     1.008    1.163320   -0.119442   -3.174721
  46 H     1.0000    0     1.008   -1.271172   -2.368170   -3.524287
  47 H     1.0000    0     1.008    1.877036   -3.175306   -4.320948
  48 H     1.0000    0     1.008    5.718389   -1.000828   -2.623252
  49 C     6.0000    0    12.011    6.833738   -4.806375   -1.669288
  50 C     6.0000    0    12.011    8.259273   -0.897331    0.476638
  51 C     6.0000    0    12.011    9.538420    1.105760   -0.355763
  52 H     1.0000    0     1.008    8.752268   -1.799515    2.260028
  53 H     1.0000    0     1.008    8.940359    1.903891   -2.168620
  54 C     6.0000    0    12.011   11.757808    2.488666    0.781367
  55 C     6.0000    0    12.011   13.980863    2.385010   -1.093775
  56 C     6.0000    0    12.011   12.607794    1.816203    3.494171
  57 H     1.0000    0     1.008   11.173971    4.488964    0.874990
  58 H     1.0000    0     1.008   14.106029    3.199259    3.913352
  59 C     6.0000    0    12.011   13.818495   -0.799821    3.790670
  60 C     6.0000    0    12.011   10.524730    2.252121    5.459790
  61 H     1.0000    0     1.008   14.576472    0.433317   -1.436817
  62 H     1.0000    0     1.008   15.605043    3.445965   -0.367271
  63 H     1.0000    0     1.008   13.440153    3.203121   -2.916549
  64 H     1.0000    0     1.008   15.446749   -1.032715    2.536883
  65 H     1.0000    0     1.008   12.492869   -2.334662    3.392127
  66 H     1.0000    0     1.008   14.489668   -1.043763    5.734849
  67 H     1.0000    0     1.008    9.632235    4.102840    5.194944
  68 H     1.0000    0     1.008   11.318862    2.194313    7.371492
  69 H     1.0000    0     1.008    9.039025    0.819260    5.357172
  70 H     1.0000    0     1.008    5.442806   -5.663263   -2.932865
  71 H     1.0000    0     1.008    7.019089   -6.018543    0.002313
  72 H     1.0000    0     1.008    8.656436   -4.788231   -2.649917

--------------------------------
INTERNAL COORDINATES (ANGSTROEM)
--------------------------------
 C      0   0   0     0.000000000000     0.00000000     0.00000000
 C      1   0   0     1.510681395598     0.00000000     0.00000000
 C      2   1   0     1.533963861322   110.51006770     0.00000000
 H      2   1   3     1.095864840296   110.66856061   237.86435217
 H      2   1   3     1.100142611021   109.82131856   118.76467121
 C      1   2   3     1.479584674949   114.00189782   306.32735426
 C      6   1   2     1.512843014419   114.43965134    49.53825982
 C      3   2   1     1.529687431123   110.14431206    56.73873365
 H      7   6   1     1.095227093866   110.21932165   188.82523009
 H      7   6   1     1.100683969348   108.26168642    72.17032434
 H      8   3   2     1.098543398736   108.31019898    64.32711933
 H      8   3   2     1.096146211026   109.52068447   181.32945516
 O      3   2   1     1.437355512623   110.70189466   292.74306948
 H      3   2   1     1.096974829424   109.49992500   177.21014863
 C      1   2   3     1.354403144626   121.16330977   123.21763688
 C      6   1   2     1.337578845731   123.14043877   231.42527335
 H     16   6   1     1.086756012221   121.35242837   359.08603842
 H     16   6   1     1.087490930061   120.94056292   178.46990193
 C     15   1   2     1.445005784297   126.18814410   185.18503424
 H     15   1   2     1.089334614637   116.25240921     3.06042988
 C     19  15   1     1.349981147122   126.40303939   186.06493542
 H     19  15   1     1.087740914774   115.78958380     6.74949489
 C     21  19  15     1.507523028405   125.68191160     2.45211841
 C     23  21  19     1.541257317979   111.41033349   124.09530765
 H     23  21  19     1.093243206418   112.39353407     0.53673797
 H     23  21  19     1.101526314600   107.91141948   242.62015400
 C     24  23  21     1.534405908546   112.65583010    51.34543117
 H     24  23  21     1.097372926240   108.96892477   289.20446190
 H     24  23  21     1.096906435150   109.12833749   173.27433728
 C     27  24  23     1.534776860468   111.86306618   306.31018088
 H     27  24  23     1.095013792522   108.90811537   182.83648886
 H     27  24  23     1.100467779817   109.18571670    66.36691204
 C     21  19  15     1.497786605496   122.94841990   180.20499626
 H     33  21  19     1.105497011141   106.38125226   127.66624903
 C     33  21  19     1.526220622834   121.23324274     5.06949086
 H     13   3   2     0.967749396091   107.60995447    42.64955517
 C     35  33  21     1.548456549529   103.60898178   197.04200286
 H     35  33  21     1.095031240940   112.02509641    74.99999267
 H     35  33  21     1.095709703127   110.83698105   315.42486177
 C     30  27  24     1.553534093701   116.15256752   166.26487170
 H     37  35  33     1.094694849323   111.95556669   249.25375570
 H     37  35  33     1.096228891371   110.93902904   130.68647716
 H     40  30  27     1.102715380238   106.49308412   320.89464329
 C     40  30  27     1.542461225801   118.90039986    81.70123273
 C     30  27  24     1.535408301755   111.06217856   294.08821720
 H     45  30  27     1.094699459165   111.62503744   186.49434381
 H     45  30  27     1.094340455956   111.49526964    66.45224917
 H     45  30  27     1.095636192834   110.64919923   306.34111742
 H     44  40  30     1.099990813708   108.33468388    60.80549016
 C     44  40  30     1.535898718941   113.44702053   299.87247299
 C     44  40  30     1.506587600518   109.11818922   178.10647418
 C     51  44  40     1.332590055308   124.51085609   239.94939304
 H     51  44  40     1.089315962425   114.60147464    60.35762232
 H     52  51  44     1.094916150557   116.71958726     0.10666168
 C     52  51  44     1.508960219296   130.48860124   181.05112798
 C     55  52  51     1.539976242616   108.68288092   120.41092629
 C     55  52  51     1.545884932925   119.02178386   351.23273710
 H     55  52  51     1.103790960010   105.37427226   233.74710845
 H     57  55  52     1.101561814320   104.09150886   185.23645320
 C     57  55  52     1.533453768983   115.11194125    69.46680183
 C     57  55  52     1.533047107704   112.71950731   300.01403519
 H     56  55  52     1.094966500134   111.11905057   298.00471216
 H     56  55  52     1.096226612582   110.77553873   177.45370160
 H     56  55  52     1.095304306058   110.72018956    57.49338628
 H     60  57  55     1.094441850450   111.62655599    56.51722276
 H     60  57  55     1.093728304174   112.50062179   295.27290574
 H     60  57  55     1.096024978675   109.74035748   175.58844530
 H     61  57  55     1.096284753044   110.94347758   313.02196271
 H     61  57  55     1.095868181101   110.26770452   193.47985473
 H     61  57  55     1.093611042602   112.26544923    73.52954898
 H     50  44  40     1.092924043474   111.90128214    67.26696292
 H     50  44  40     1.097064324143   110.70749160   306.58771526
 H     50  44  40     1.095306265421   110.15042111   187.25301919

---------------------------
INTERNAL COORDINATES (A.U.)
---------------------------
 C      0   0   0     0.000000000000     0.00000000     0.00000000
 C      1   0   0     2.854774113290     0.00000000     0.00000000
 C      2   1   0     2.898771597231   110.51006770     0.00000000
 H      2   1   3     2.070884427952   110.66856061   237.86435217
 H      2   1   3     2.078968243088   109.82131856   118.76467121
 C      1   2   3     2.796009827601   114.00189782   306.32735426
 C      6   1   2     2.858858980868   114.43965134    49.53825982
 C      3   2   1     2.890690315324   110.14431206    56.73873365
 H      7   6   1     2.069679261857   110.21932165   188.82523009
 H      7   6   1     2.079991262066   108.26168642    72.17032434
 H      8   3   2     2.075946169838   108.31019898    64.32711933
 H      8   3   2     2.071416141574   109.52068447   181.32945516
 O      3   2   1     2.716208275939   110.70189466   292.74306948
 H      3   2   1     2.072982003416   109.49992500   177.21014863
 C      1   2   3     2.559451018266   121.16330977   123.21763688
 C      6   1   2     2.527657700957   123.14043877   231.42527335
 H     16   6   1     2.053671237490   121.35242837   359.08603842
 H     16   6   1     2.055060030938   120.94056292   178.46990193
 C     15   1   2     2.730665194253   126.18814410   185.18503424
 H     15   1   2     2.058544089865   116.25240921     3.06042988
 C     19  15   1     2.551094654018   126.40303939   186.06493542
 H     19  15   1     2.055532433584   115.78958380     6.74949489
 C     21  19  15     2.848805664265   125.68191160     2.45211841
 C     23  21  19     2.912554232882   111.41033349   124.09530765
 H     23  21  19     2.065930257899   112.39353407     0.53673797
 H     23  21  19     2.081583063902   107.91141948   242.62015400
 C     24  23  21     2.899606945423   112.65583010    51.34543117
 H     24  23  21     2.073734297373   108.96892477   289.20446190
 H     24  23  21     2.072852756970   109.12833749   173.27433728
 C     27  24  23     2.900307942965   111.86306618   306.31018088
 H     27  24  23     2.069276180734   108.90811537   182.83648886
 H     27  24  23     2.079582723059   109.18571670    66.36691204
 C     21  19  15     2.830406491442   122.94841990   180.20499626
 H     33  21  19     2.089086592924   106.38125226   127.66624903
 C     33  21  19     2.884138997098   121.23324274     5.06949086
 H     13   3   2     1.828781324879   107.60995447    42.64955517
 C     35  33  21     2.926158808886   103.60898178   197.04200286
 H     35  33  21     2.069309153465   112.02509641    74.99999267
 H     35  33  21     2.070591261190   110.83698105   315.42486177
 C     30  27  24     2.935753976804   116.15256752   166.26487170
 H     37  35  33     2.068673465435   111.95556669   249.25375570
 H     37  35  33     2.071572384784   110.93902904   130.68647716
 H     40  30  27     2.083830072313   106.49308412   320.89464329
 C     40  30  27     2.914829288957   118.90039986    81.70123273
 C     30  27  24     2.901501194067   111.06217856   294.08821720
 H     45  30  27     2.068682176773   111.62503744   186.49434381
 H     45  30  27     2.068003759027   111.49526964    66.45224917
 H     45  30  27     2.070452346868   110.64919923   306.34111742
 H     44  40  30     2.078681387737   108.33468388    60.80549016
 C     44  40  30     2.902427948239   113.44702053   299.87247299
 C     44  40  30     2.847037961741   109.11818922   178.10647418
 C     51  44  40     2.518230253320   124.51085609   239.94939304
 H     51  44  40     2.058508842291   114.60147464    60.35762232
 H     52  51  44     2.069091664160   116.71958726     0.10666168
 C     52  51  44     2.851521561452   130.48860124   181.05112798
 C     55  52  51     2.910133351290   108.68288092   120.41092629
 C     55  52  51     2.921299157783   119.02178386   351.23273710
 H     55  52  51     2.085862623517   105.37427226   233.74710845
 H     57  55  52     2.081650148650   104.09150886   185.23645320
 C     57  55  52     2.897807662408   115.11194125    69.46680183
 C     57  55  52     2.897039183961   112.71950731   300.01403519
 H     56  55  52     2.069186811071   111.11905057   298.00471216
 H     56  55  52     2.071568078496   110.77553873   177.45370160
 H     56  55  52     2.069825171755   110.72018956    57.49338628
 H     60  57  55     2.068195366853   111.62655599    56.51722276
 H     60  57  55     2.066846959807   112.50062179   295.27290574
 H     60  57  55     2.071187045633   109.74035748   175.58844530
 H     61  57  55     2.071677948046   110.94347758   313.02196271
 H     61  57  55     2.070890741159   110.26770452   193.47985473
 H     61  57  55     2.066625367549   112.26544923    73.52954898
 H     50  44  40     2.065327127343   111.90128214    67.26696292
 H     50  44  40     2.073151123925   110.70749160   306.58771526
 H     50  44  40     2.069828874414   110.15042111   187.25301919

---------------------
BASIS SET INFORMATION
---------------------
There are 3 groups of distinct atoms

 Group   1 Type C   : 8s5p1d contracted to 3s3p1d pattern {521/311/1}
 Group   2 Type H   : 4s2p contracted to 2s1p pattern {31/2}
 Group   3 Type O   : 8s5p1d contracted to 3s3p1d pattern {521/311/1}

Atom   0C    basis set group =>   1
Atom   1C    basis set group =>   1
Atom   2C    basis set group =>   1
Atom   3H    basis set group =>   2
Atom   4H    basis set group =>   2
Atom   5C    basis set group =>   1
Atom   6C    basis set group =>   1
Atom   7C    basis set group =>   1
Atom   8H    basis set group =>   2
Atom   9H    basis set group =>   2
Atom  10H    basis set group =>   2
Atom  11H    basis set group =>   2
Atom  12O    basis set group =>   3
Atom  13H    basis set group =>   2
Atom  14C    basis set group =>   1
Atom  15C    basis set group =>   1
Atom  16H    basis set group =>   2
Atom  17H    basis set group =>   2
Atom  18C    basis set group =>   1
Atom  19H    basis set group =>   2
Atom  20C    basis set group =>   1
Atom  21H    basis set group =>   2
Atom  22C    basis set group =>   1
Atom  23C    basis set group =>   1
Atom  24H    basis set group =>   2
Atom  25H    basis set group =>   2
Atom  26C    basis set group =>   1
Atom  27H    basis set group =>   2
Atom  28H    basis set group =>   2
Atom  29C    basis set group =>   1
Atom  30H    basis set group =>   2
Atom  31H    basis set group =>   2
Atom  32C    basis set group =>   1
Atom  33H    basis set group =>   2
Atom  34C    basis set group =>   1
Atom  35H    basis set group =>   2
Atom  36C    basis set group =>   1
Atom  37H    basis set group =>   2
Atom  38H    basis set group =>   2
Atom  39C    basis set group =>   1
Atom  40H    basis set group =>   2
Atom  41H    basis set group =>   2
Atom  42H    basis set group =>   2
Atom  43C    basis set group =>   1
Atom  44C    basis set group =>   1
Atom  45H    basis set group =>   2
Atom  46H    basis set group =>   2
Atom  47H    basis set group =>   2
Atom  48H    basis set group =>   2
Atom  49C    basis set group =>   1
Atom  50C    basis set group =>   1
Atom  51C    basis set group =>   1
Atom  52H    basis set group =>   2
Atom  53H    basis set group =>   2
Atom  54C    basis set group =>   1
Atom  55C    basis set group =>   1
Atom  56C    basis set group =>   1
Atom  57H    basis set group =>   2
Atom  58H    basis set group =>   2
Atom  59C    basis set group =>   1
Atom  60C    basis set group =>   1
Atom  61H    basis set group =>   2
Atom  62H    basis set group =>   2
Atom  63H    basis set group =>   2
Atom  64H    basis set group =>   2
Atom  65H    basis set group =>   2
Atom  66H    basis set group =>   2
Atom  67H    basis set group =>   2
Atom  68H    basis set group =>   2
Atom  69H    basis set group =>   2
Atom  70H    basis set group =>   2
Atom  71H    basis set group =>   2
Atom  72H    basis set group =>   2

-------------------------
BASIS SET IN INPUT FORMAT
-------------------------

 # Basis set for element : H 
 NewGTO H 
 S 3 
   1      12.2518000000      0.0372173893
   2       1.8687100000      0.2538082070
   3       0.4182080000      0.7973867639
 S 1 
   1       0.1061000000      1.0000000000
 P 2 
   1       9.0000000000      0.0402678705
   2       1.0000000000      0.9880231245
  end;

 # Basis set for element : C 
 NewGTO C 
 S 5 
   1    1243.2000000000      0.0056300977
   2     187.1450000000      0.0419506039
   3      42.5126000000      0.1846643605
   4      11.7393000000      0.4665574214
   5       3.5054800000      0.4482347783
 S 2 
   1       5.3908900000     -0.1481148174
   2       0.4933410000      1.0519817143
 S 1 
   1       0.1497410000      1.0000000000
 P 3 
   1      59.6736000000      0.0113906672
   2       9.1805600000      0.1672414929
   3       1.9365800000      0.9041087436
 P 1 
   1       0.5262960000      1.0000000000
 P 1 
   1       0.1363190000      1.0000000000
 D 1 
   1       0.8000000000      1.0000000000
  end;

 # Basis set for element : O 
 NewGTO O 
 S 5 
   1    2288.6400000000      0.0054511382
   2     344.4160000000      0.0407189228
   3      78.2538000000      0.1813694209
   4      21.7195000000      0.4655368202
   5       6.5590700000      0.4512113212
 S 2 
   1      10.4656000000     -0.1502112012
   2       0.9643510000      1.0528679834
 S 1 
   1       0.2851270000      1.0000000000
 P 3 
   1     110.8840000000      0.0113058003
   2      17.0590000000      0.1699226452
   3       3.6899900000      0.9008060328
 P 1 
   1       0.9929960000      1.0000000000
 P 1 
   1       0.2449240000      1.0000000000
 D 1 
   1       1.0000000000      1.0000000000
  end;

---------------------------------
AUXILIARY/J BASIS SET INFORMATION
---------------------------------
There are 3 groups of distinct atoms

 Group   1 Type C   : 12s5p4d2f1g contracted to 6s4p3d1f1g pattern {711111/2111/211/2/1}
 Group   2 Type H   : 5s2p1d contracted to 3s1p1d pattern {311/2/1}
 Group   3 Type O   : 12s5p4d2f1g contracted to 6s4p3d1f1g pattern {711111/2111/211/2/1}

Atom   0C    basis set group =>   1
Atom   1C    basis set group =>   1
Atom   2C    basis set group =>   1
Atom   3H    basis set group =>   2
Atom   4H    basis set group =>   2
Atom   5C    basis set group =>   1
Atom   6C    basis set group =>   1
Atom   7C    basis set group =>   1
Atom   8H    basis set group =>   2
Atom   9H    basis set group =>   2
Atom  10H    basis set group =>   2
Atom  11H    basis set group =>   2
Atom  12O    basis set group =>   3
Atom  13H    basis set group =>   2
Atom  14C    basis set group =>   1
Atom  15C    basis set group =>   1
Atom  16H    basis set group =>   2
Atom  17H    basis set group =>   2
Atom  18C    basis set group =>   1
Atom  19H    basis set group =>   2
Atom  20C    basis set group =>   1
Atom  21H    basis set group =>   2
Atom  22C    basis set group =>   1
Atom  23C    basis set group =>   1
Atom  24H    basis set group =>   2
Atom  25H    basis set group =>   2
Atom  26C    basis set group =>   1
Atom  27H    basis set group =>   2
Atom  28H    basis set group =>   2
Atom  29C    basis set group =>   1
Atom  30H    basis set group =>   2
Atom  31H    basis set group =>   2
Atom  32C    basis set group =>   1
Atom  33H    basis set group =>   2
Atom  34C    basis set group =>   1
Atom  35H    basis set group =>   2
Atom  36C    basis set group =>   1
Atom  37H    basis set group =>   2
Atom  38H    basis set group =>   2
Atom  39C    basis set group =>   1
Atom  40H    basis set group =>   2
Atom  41H    basis set group =>   2
Atom  42H    basis set group =>   2
Atom  43C    basis set group =>   1
Atom  44C    basis set group =>   1
Atom  45H    basis set group =>   2
Atom  46H    basis set group =>   2
Atom  47H    basis set group =>   2
Atom  48H    basis set group =>   2
Atom  49C    basis set group =>   1
Atom  50C    basis set group =>   1
Atom  51C    basis set group =>   1
Atom  52H    basis set group =>   2
Atom  53H    basis set group =>   2
Atom  54C    basis set group =>   1
Atom  55C    basis set group =>   1
Atom  56C    basis set group =>   1
Atom  57H    basis set group =>   2
Atom  58H    basis set group =>   2
Atom  59C    basis set group =>   1
Atom  60C    basis set group =>   1
Atom  61H    basis set group =>   2
Atom  62H    basis set group =>   2
Atom  63H    basis set group =>   2
Atom  64H    basis set group =>   2
Atom  65H    basis set group =>   2
Atom  66H    basis set group =>   2
Atom  67H    basis set group =>   2
Atom  68H    basis set group =>   2
Atom  69H    basis set group =>   2
Atom  70H    basis set group =>   2
Atom  71H    basis set group =>   2
Atom  72H    basis set group =>   2

-------------------------------------
AUXILIARY/J BASIS SET IN INPUT FORMAT
-------------------------------------

 # Auxiliary/J basis set for element : H 
 NewAuxJGTO H 
 S 3 
   1      15.6752927000      0.1007184237
   2       3.6063578000      0.3404257499
   3       1.2080016000      0.6491996172
 S 1 
   1       0.4726794000      1.0000000000
 S 1 
   1       0.2018100000      1.0000000000
 P 2 
   1       2.0281365000      0.5596620919
   2       0.5358730000      0.5596620919
 D 1 
   1       2.2165124000      1.0000000000
  end;

 # Auxiliary/J basis set for element : C 
 NewAuxJGTO C 
 S 7 
   1    1861.0916331000      0.0134602335
   2     642.9939764000      0.0299160374
   3     235.1105725000      0.1008649584
   4      90.7028894000      0.2370970548
   5      36.7794552000      0.3924037254
   6      15.6046273000      0.3195862154
   7       6.8907294000      0.0530104441
 S 1 
   1       3.1478850000     -1.0000000000
 S 1 
   1       1.4777287000      1.0000000000
 S 1 
   1       0.7076466000      1.0000000000
 S 1 
   1       0.3430122000      1.0000000000
 S 1 
   1       0.1669453000      1.0000000000
 P 2 
   1      13.5472892000     -0.6769313712
   2       5.4669419000     -0.3779500978
 P 1 
   1       2.1751721000      1.0000000000
 P 1 
   1       0.8582194000      1.0000000000
 P 1 
   1       0.3376720000      1.0000000000
 D 2 
   1       5.9287253000     -0.3533329857
   2       1.9809209000     -0.7456525731
 D 1 
   1       0.8055417000     -1.0000000000
 D 1 
   1       0.3531244000     -1.0000000000
 F 2 
   1       1.6755626000      0.6311076882
   2       0.5997536000      0.4968166032
 G 1 
   1       1.0024600000     -1.0000000000
  end;

 # Auxiliary/J basis set for element : O 
 NewAuxJGTO O 
 S 7 
   1    2876.8216605000      0.0168151159
   2    1004.7443032000      0.0340137548
   3     369.7579954000      0.1194951309
   4     142.9442404000      0.2664627624
   5      57.8366425000      0.4202764046
   6      24.3864983000      0.2765077335
   7      10.6622662000      0.0057008815
 S 1 
   1       4.8070437000     -1.0000000000
 S 1 
   1       2.2210770000      1.0000000000
 S 1 
   1       1.0447795000      1.0000000000
 S 1 
   1       0.4968425000      1.0000000000
 S 1 
   1       0.2371384000      1.0000000000
 P 2 
   1      64.2613382000     -0.2731534179
   2      16.3006076000     -0.8168011598
 P 1 
   1       4.3550542000      1.0000000000
 P 1 
   1       1.2019554000      1.0000000000
 P 1 
   1       0.3354196000      1.0000000000
 D 2 
   1       9.2146611000     -0.4661230638
   2       2.8435251000     -0.6600908911
 D 1 
   1       0.9955759000     -1.0000000000
 D 1 
   1       0.3649441000     -1.0000000000
 F 2 
   1       2.6420115000      0.5931563945
   2       0.7345613000      0.5931563945
 G 1 
   1       1.3931000000     -1.0000000000
  end;



           ************************************************************
           *        Program running with 4 parallel MPI-processes     *
           *              working on a common directory               *
           ************************************************************
------------------------------------------------------------------------------
                           ORCA GTO INTEGRAL CALCULATION
                           -- RI-GTO INTEGRALS CHOSEN --
------------------------------------------------------------------------------
------------------------------------------------------------------------------
                   ___                                                        
                  /   \      - P O W E R E D   B Y -                         
                 /     \                                                     
                 |  |  |   _    _      __       _____    __    __             
                 |  |  |  | |  | |    /  \     |  _  \  |  |  /  |          
                  \  \/   | |  | |   /    \    | | | |  |  | /  /          
                 / \  \   | |__| |  /  /\  \   | |_| |  |  |/  /          
                |  |  |   |  __  | /  /__\  \  |    /   |      \           
                |  |  |   | |  | | |   __   |  |    \   |  |\   \          
                \     /   | |  | | |  |  |  |  | |\  \  |  | \   \       
                 \___/    |_|  |_| |__|  |__|  |_| \__\ |__|  \__/        
                                                                              
                      - O R C A' S   B I G   F R I E N D -                    
                                      &                                       
                       - I N T E G R A L  F E E D E R -                       
                                                                              
 v1 FN, 2020, v2 2021                                                         
------------------------------------------------------------------------------


Reading SHARK input file inpS.SHARKINP.tmp ... ok
----------------------
SHARK INTEGRAL PACKAGE
----------------------

Number of atoms                             ...     73
Number of basis functions                   ...    713
Number of shells                            ...    335
Maximum angular momentum                    ...      2
Integral batch strategy                     ... SHARK/LIBINT Hybrid
RI-J (if used) integral strategy            ... SPLIT-RIJ (Revised 2003 algorithm where possible)
Printlevel                                  ...      1
Contraction scheme used                     ... SEGMENTED contraction
Coulomb Range Separation                    ... NOT USED
Exchange Range Separation                   ... NOT USED
Finite Nucleus Model                        ... NOT USED
Auxiliary Coulomb fitting basis             ... AVAILABLE
   # of basis functions in Aux-J            ...   1905
   # of shells in Aux-J                     ...    655
   Maximum angular momentum in Aux-J        ...      4
Auxiliary J/K fitting basis                 ... NOT available
Auxiliary Correlation fitting basis         ... NOT available
Auxiliary 'external' fitting basis          ... NOT available
Integral threshold                          ...     3.000000e-11
Primitive cut-off                           ...     1.000000e-12
Primitive pair pre-selection threshold      ...     1.000000e-12

Calculating pre-screening integrals         ... done (  0.0 sec) Dimension = 335
Organizing shell pair data                  ... done (  0.1 sec)
Shell pair information
Total number of shell pairs                 ...     56280
Shell pairs after pre-screening             ...     31963
Total number of primitive shell pairs       ...    225367
Primitive shell pairs kept                  ...     75258
          la=0 lb=0:   9776 shell pairs
          la=1 lb=0:  13136 shell pairs
          la=1 lb=1:   4288 shell pairs
          la=2 lb=0:   2792 shell pairs
          la=2 lb=1:   1774 shell pairs
          la=2 lb=2:    197 shell pairs

Calculating one electron integrals          ... done (  0.1 sec)
Calculating RI/J V-Matrix + Cholesky decomp.... done (  0.1 sec)
Calculating Nuclear repulsion               ... done (  0.0 sec) ENN=   2798.406840549321 Eh

SHARK setup successfully completed in   0.6 seconds

Maximum memory used throughout the entire GTOINT-calculation: 61.5 MB


           ************************************************************
           *        Program running with 4 parallel MPI-processes     *
           *              working on a common directory               *
           ************************************************************
-------------------------------------------------------------------------------
                                 ORCA SCF
-------------------------------------------------------------------------------

------------
SCF SETTINGS
------------
Hamiltonian:
 Density Functional     Method          .... DFT(GTOs)
 Exchange Functional    Exchange        .... revTPSS
 Correlation Functional Correlation     .... revTPSS
 LDA part of GGA corr.  LDAOpt          .... PW91-LDA
 Gradients option       PostSCFGGA      .... off
   Density functional embedding theory  .... OFF
 RI-approximation to the Coulomb term is turned on
   Number of AuxJ basis functions       .... 1905


General Settings:
 Integral files         IntName         .... inpS
 Hartree-Fock type      HFTyp           .... RHF
 Total Charge           Charge          ....    0
 Multiplicity           Mult            ....    1
 Number of Electrons    NEL             ....  220
 Basis Dimension        Dim             ....  713
 Nuclear Repulsion      ENuc            ....   2798.4068405493 Eh

Convergence Acceleration:
 DIIS                   CNVDIIS         .... on
   Start iteration      DIISMaxIt       ....    12
   Startup error        DIISStart       ....  0.200000
   # of expansion vecs  DIISMaxEq       ....     5
   Bias factor          DIISBfac        ....   1.050
   Max. coefficient     DIISMaxC        ....  10.000
 Trust-Rad. Augm. Hess. CNVTRAH         .... auto
   Auto Start mean grad. ratio tolernc. ....  1.125000
   Auto Start start iteration           ....    20
   Auto Start num. interpolation iter.  ....    10
   Max. Number of Micro iterations      ....    16
   Max. Number of Macro iterations      .... Maxiter - #DIIS iter
   Number of Davidson start vectors     ....     2
   Converg. threshold I  (grad. norm)   ....   1.000e-04
   Converg. threshold II (energy diff.) ....   1.000e-07
   Grad. Scal. Fac. for Micro threshold ....   0.100
   Minimum threshold for Micro iter.    ....   0.010
   NR start threshold (gradient norm)   ....   0.001
   Initial trust radius                 ....   0.400
   Minimum AH scaling param. (alpha)    ....   1.000
   Maximum AH scaling param. (alpha)    .... 1000.000
   Orbital update algorithm             .... Taylor
   White noise on init. David. guess    .... on
   Maximum white noise                  ....   0.010
   Quad. conv. algorithm                .... NR
 SOSCF                  CNVSOSCF        .... off
 Level Shifting         CNVShift        .... on
   Level shift para.    LevelShift      ....    0.2500
   Turn off err/grad.   ShiftErr        ....    0.0010
 Zerner damping         CNVZerner       .... off
 Static damping         CNVDamp         .... on
   Fraction old density DampFac         ....    0.7000
   Max. Damping (<1)    DampMax         ....    0.9800
   Min. Damping (>=0)   DampMin         ....    0.0000
   Turn off err/grad.   DampErr         ....    0.1000
 Fernandez-Rico         CNVRico         .... off

SCF Procedure:
 Maximum # iterations   MaxIter         ....   125
 SCF integral mode      SCFMode         .... Direct
   Integral package                     .... SHARK and LIBINT hybrid scheme
 Reset frequency        DirectResetFreq ....    20
 Integral Threshold     Thresh          ....  3.000e-11 Eh
 Primitive CutOff       TCut            ....  1.000e-12 Eh

Convergence Tolerance:
 Convergence Check Mode ConvCheckMode   .... Total+1el-Energy
 Convergence forced     ConvForced      .... 0
 Energy Change          TolE            ....  1.000e-07 Eh
 1-El. energy change                    ....  1.000e-04 Eh
 DIIS Error             TolErr          ....  1.000e-07


Diagonalization of the overlap matrix:
Smallest eigenvalue                        ... 5.181e-04
Time for diagonalization                   ...    0.082 sec
Threshold for overlap eigenvalues          ... 1.000e-08
Number of eigenvalues below threshold      ... 0
Time for construction of square roots      ...    0.051 sec
Total time needed                          ...    0.135 sec

Time for model grid setup =    0.762 sec

------------------------------
INITIAL GUESS: MODEL POTENTIAL
------------------------------
Loading Hartree-Fock densities                     ... done
Calculating cut-offs                               ... done
Initializing the effective Hamiltonian             ... done
Setting up the integral package (SHARK)            ... done
Starting the Coulomb interaction                   ... done (   0.7 sec)
Reading the grid                                   ... done
Mapping shells                                     ... done
Starting the XC term evaluation                    ... done (   0.3 sec)
  promolecular density results
     # of electrons  =    219.985910240
     EX              =   -164.429818593
     EC              =     -7.326024555
     EX+EC           =   -171.755843148
Transforming the Hamiltonian                       ... done (   0.0 sec)
Diagonalizing the Hamiltonian                      ... done (   0.1 sec)
Back transforming the eigenvectors                 ... done (   0.0 sec)
Now organizing SCF variables                       ... done
                      ------------------
                      INITIAL GUESS DONE (   1.9 sec)
                      ------------------
-------------------
DFT GRID GENERATION
-------------------

General Integration Accuracy     IntAcc      ... 4.388
Radial Grid Type                 RadialGrid  ... OptM3 with GC (2021)
Angular Grid (max. ang.)         AngularGrid ... 4 (Lebedev-302)
Angular grid pruning method      GridPruning ... 4 (adaptive)
Weight generation scheme         WeightScheme... Becke
Basis function cutoff            BFCut       ... 1.0000e-11
Integration weight cutoff        WCut        ... 1.0000e-14
Angular grids for H and He will be reduced by one unit
Partially contracted basis set               ... off
Rotationally invariant grid construction     ... off

Total number of grid points                  ...   309840
Total number of batches                      ...     4877
Average number of points per batch           ...       63
Average number of grid points per atom       ...     4244
Time for grid setup =    3.560 sec


--------------------
CPCM SOLVATION MODEL
--------------------
CPCM parameters:
  Epsilon                                         ...       4.9000
  Refrac                                          ...       1.4500
  Rsolv                                           ...       1.3000
  Surface type                                    ... GAUSSIAN VDW
  Epsilon function type                           ...         CPCM
Radii:
 Radius for C  used is    3.8550 Bohr (=   2.0400 Ang.)
 Radius for H  used is    2.4944 Bohr (=   1.3200 Ang.)
 Radius for O  used is    3.4469 Bohr (=   1.8240 Ang.)
Calculating surface                               ...        done! (  0.0s)
GEPOL surface points                              ...         3619
GEPOL Volume                                      ...    3604.7397
GEPOL Surface-area                                ...    1778.9147
Calculating surface distance matrix               ...        done! (  0.1s)
Performing Cholesky decomposition & store         ...        done! (  0.5s)
Overall time for CPCM initialization              ...                 0.6s
--------------
SCF ITERATIONS
--------------
ITER       Energy         Delta-E        Max-DP      RMS-DP      [F,P]     Damp
               ***  Starting incremental Fock matrix formation  ***

  HOMO= 109 E= -1.911 eV LUMO=  7.775 eV gap=   9.685 eV
  0  -1167.5209574827   0.000000000000 0.05496249  0.00082875  0.2632216 0.7000

  HOMO= 109 E= -3.429 eV LUMO=  6.672 eV gap=  10.101 eV
  1  -1167.8941545044  -0.373197021701 0.02879544  0.00061277  0.1015958 0.7000
                               ***Turning on DIIS***

  HOMO= 109 E= -4.406 eV LUMO=  5.786 eV gap=  10.193 eV
  2  -1168.0403266506  -0.146172146212 0.04844708  0.00100958  0.0318480 0.0000

  HOMO= 109 E= -5.029 eV LUMO=  5.202 eV gap=  10.231 eV
  3  -1168.2378102501  -0.197483599489 0.02303074  0.00047513  0.0540671 0.0000

  HOMO= 109 E= -5.051 eV LUMO=  5.179 eV gap=  10.230 eV
  4  -1168.3046533064  -0.066843056359 0.00739435  0.00015112  0.0103464 0.0000

  HOMO= 109 E= -5.006 eV LUMO=  5.231 eV gap=  10.238 eV
  5  -1168.3077058289  -0.003052522472 0.00346066  0.00005706  0.0102909 0.0000

  HOMO= 109 E= -4.987 eV LUMO=  5.248 eV gap=  10.235 eV
  6  -1168.3079746723  -0.000268843360 0.00127713  0.00001917  0.0031000 0.0000

  HOMO= 109 E= -4.989 eV LUMO= -1.557 eV gap=   3.432 eV
  7  -1168.3079952802  -0.000020607943 0.00071748  0.00001171  0.0004633 0.0000

  HOMO= 109 E= -4.987 eV LUMO= -1.555 eV gap=   3.432 eV
  8  -1168.3079982022  -0.000002922003 0.00027230  0.00000298  0.0003764 0.0000

  HOMO= 109 E= -4.985 eV LUMO= -1.553 eV gap=   3.432 eV
  9  -1168.3079988888  -0.000000686555 0.00016478  0.00000152  0.0002598 0.0000

  HOMO= 109 E= -4.985 eV LUMO= -1.553 eV gap=   3.432 eV
 10  -1168.3079991344  -0.000000245569 0.00006429  0.00000068  0.0001042 0.0000

  HOMO= 109 E= -4.985 eV LUMO= -1.554 eV gap=   3.432 eV
 11  -1168.3079991541  -0.000000019718 0.00002495  0.00000027  0.0000277 0.0000

  HOMO= 109 E= -4.985 eV LUMO= -1.554 eV gap=   3.432 eV
 12  -1168.3079991549  -0.000000000845 0.00001285  0.00000013  0.0000166 0.0000

  HOMO= 109 E= -4.985 eV LUMO= -1.554 eV gap=   3.432 eV
 13  -1168.3079991673  -0.000000012380 0.00000623  0.00000006  0.0000085 0.0000
                 **** Energy Check signals convergence ****

               *****************************************************
               *                     SUCCESS                       *
               *           SCF CONVERGED AFTER  14 CYCLES          *
               *****************************************************


----------------
TOTAL SCF ENERGY
----------------

Total Energy       :        -1168.30799918 Eh          -31791.27689 eV

Components:
Nuclear Repulsion  :         2798.40684055 Eh           76148.52145 eV
Electronic Energy  :        -3966.71483973 Eh         -107939.79834 eV
One Electron Energy:        -7143.00168562 Eh         -194370.95749 eV
Two Electron Energy:         3176.28684590 Eh           86431.15915 eV
CPCM Dielectric    :           -0.00912892 Eh              -0.24841 eV

Virial components:
Potential Energy   :        -2330.40431589 Eh          -63413.52532 eV
Kinetic Energy     :         1162.09631671 Eh           31622.24842 eV
Virial Ratio       :            2.00534524


DFT components:
N(Alpha)           :      110.000097921408 electrons
N(Beta)            :      110.000097921408 electrons
N(Total)           :      220.000195842815 electrons
E(X)               :     -169.582803780762 Eh       
E(C)               :       -7.443299800593 Eh       
E(XC)              :     -177.026103581355 Eh       
DFET-embed. en.    :        0.000000000000 Eh       
CPCM Solvation Model Properties:
Surface-charge          :           -0.04519847
Charge-correction       :           -0.00007510 Eh              -0.00204 eV
Free-energy (cav+disp)  :  This term is not implemented in the current solvation scheme

---------------
SCF CONVERGENCE
---------------

  Last Energy change         ...   -1.0873e-08  Tolerance :   1.0000e-07
  Last MAX-Density change    ...    3.0153e-06  Tolerance :   1.0000e-05
  Last RMS-Density change    ...    2.8697e-08  Tolerance :   1.0000e-06
  Last DIIS Error            ...    3.6426e-06  Tolerance :   1.0000e-07

             **** THE GBW FILE WAS UPDATED (inpS.gbw) ****
             **** DENSITY inpS.scfp WAS UPDATED ****
             **** ENERGY FILE WAS UPDATED (inpS.en.tmp) ****
             **** THE GBW FILE WAS UPDATED (inpS.gbw) ****
             **** DENSITY inpS.scfp WAS UPDATED ****
----------------
ORBITAL ENERGIES
----------------

  NO   OCC          E(Eh)            E(eV) 
   0   2.0000     -18.903696      -514.3957 
   1   2.0000     -10.057154      -273.6691 
   2   2.0000     -10.016414      -272.5605 
   3   2.0000     -10.014592      -272.5109 
   4   2.0000     -10.012183      -272.4453 
   5   2.0000     -10.012048      -272.4417 
   6   2.0000     -10.011916      -272.4381 
   7   2.0000     -10.011807      -272.4351 
   8   2.0000     -10.009720      -272.3783 
   9   2.0000     -10.009704      -272.3779 
  10   2.0000     -10.009604      -272.3752 
  11   2.0000     -10.008146      -272.3355 
  12   2.0000     -10.007493      -272.3177 
  13   2.0000     -10.006329      -272.2861 
  14   2.0000     -10.006261      -272.2842 
  15   2.0000     -10.005495      -272.2634 
  16   2.0000     -10.005041      -272.2510 
  17   2.0000     -10.000973      -272.1403 
  18   2.0000     -10.000782      -272.1351 
  19   2.0000      -9.999507      -272.1004 
  20   2.0000      -9.999483      -272.0998 
  21   2.0000      -9.998711      -272.0788 
  22   2.0000      -9.998680      -272.0779 
  23   2.0000      -9.998444      -272.0715 
  24   2.0000      -9.997330      -272.0412 
  25   2.0000      -9.996264      -272.0122 
  26   2.0000      -9.995331      -271.9868 
  27   2.0000      -9.994696      -271.9695 
  28   2.0000      -9.994486      -271.9638 
  29   2.0000      -0.954363       -25.9695 
  30   2.0000      -0.807703       -21.9787 
  31   2.0000      -0.789400       -21.4807 
  32   2.0000      -0.769550       -20.9405 
  33   2.0000      -0.756468       -20.5845 
  34   2.0000      -0.734093       -19.9757 
  35   2.0000      -0.727616       -19.7994 
  36   2.0000      -0.708834       -19.2883 
  37   2.0000      -0.708551       -19.2806 
  38   2.0000      -0.693775       -18.8786 
  39   2.0000      -0.676122       -18.3982 
  40   2.0000      -0.660753       -17.9800 
  41   2.0000      -0.655526       -17.8378 
  42   2.0000      -0.635939       -17.3048 
  43   2.0000      -0.629686       -17.1346 
  44   2.0000      -0.625189       -17.0123 
  45   2.0000      -0.619170       -16.8485 
  46   2.0000      -0.591246       -16.0886 
  47   2.0000      -0.584106       -15.8943 
  48   2.0000      -0.558640       -15.2014 
  49   2.0000      -0.547656       -14.9025 
  50   2.0000      -0.541384       -14.7318 
  51   2.0000      -0.536162       -14.5897 
  52   2.0000      -0.526650       -14.3309 
  53   2.0000      -0.516506       -14.0549 
  54   2.0000      -0.493683       -13.4338 
  55   2.0000      -0.478383       -13.0175 
  56   2.0000      -0.472681       -12.8623 
  57   2.0000      -0.463380       -12.6092 
  58   2.0000      -0.451237       -12.2788 
  59   2.0000      -0.442512       -12.0414 
  60   2.0000      -0.436123       -11.8675 
  61   2.0000      -0.430026       -11.7016 
  62   2.0000      -0.417639       -11.3645 
  63   2.0000      -0.416780       -11.3411 
  64   2.0000      -0.408202       -11.1077 
  65   2.0000      -0.406008       -11.0481 
  66   2.0000      -0.404290       -11.0013 
  67   2.0000      -0.398895       -10.8545 
  68   2.0000      -0.397717       -10.8224 
  69   2.0000      -0.392222       -10.6729 
  70   2.0000      -0.388532       -10.5725 
  71   2.0000      -0.379848       -10.3362 
  72   2.0000      -0.376262       -10.2386 
  73   2.0000      -0.371896       -10.1198 
  74   2.0000      -0.371402       -10.1064 
  75   2.0000      -0.367200        -9.9920 
  76   2.0000      -0.361775        -9.8444 
  77   2.0000      -0.356331        -9.6963 
  78   2.0000      -0.355368        -9.6701 
  79   2.0000      -0.350654        -9.5418 
  80   2.0000      -0.346566        -9.4305 
  81   2.0000      -0.345088        -9.3903 
  82   2.0000      -0.342378        -9.3166 
  83   2.0000      -0.336371        -9.1531 
  84   2.0000      -0.335413        -9.1271 
  85   2.0000      -0.325928        -8.8689 
  86   2.0000      -0.324498        -8.8300 
  87   2.0000      -0.323176        -8.7941 
  88   2.0000      -0.319956        -8.7065 
  89   2.0000      -0.311997        -8.4899 
  90   2.0000      -0.309221        -8.4143 
  91   2.0000      -0.306365        -8.3366 
  92   2.0000      -0.303770        -8.2660 
  93   2.0000      -0.296560        -8.0698 
  94   2.0000      -0.290442        -7.9033 
  95   2.0000      -0.287231        -7.8160 
  96   2.0000      -0.285733        -7.7752 
  97   2.0000      -0.284035        -7.7290 
  98   2.0000      -0.281889        -7.6706 
  99   2.0000      -0.276853        -7.5336 
 100   2.0000      -0.274443        -7.4680 
 101   2.0000      -0.272830        -7.4241 
 102   2.0000      -0.270318        -7.3557 
 103   2.0000      -0.265998        -7.2382 
 104   2.0000      -0.259915        -7.0727 
 105   2.0000      -0.248563        -6.7638 
 106   2.0000      -0.230128        -6.2621 
 107   2.0000      -0.228617        -6.2210 
 108   2.0000      -0.212293        -5.7768 
 109   2.0000      -0.183206        -4.9853 
 110   0.0000      -0.057091        -1.5535 
 111   0.0000      -0.014081        -0.3832 
 112   0.0000      -0.005901        -0.1606 
 113   0.0000       0.030162         0.8207 
 114   0.0000       0.036080         0.9818 
 115   0.0000       0.039068         1.0631 
 116   0.0000       0.044304         1.2056 
 117   0.0000       0.048460         1.3187 
 118   0.0000       0.052676         1.4334 
 119   0.0000       0.059707         1.6247 
 120   0.0000       0.060213         1.6385 
 121   0.0000       0.066215         1.8018 
 122   0.0000       0.069142         1.8815 
 123   0.0000       0.073065         1.9882 
 124   0.0000       0.078951         2.1484 
 125   0.0000       0.082037         2.2323 
 126   0.0000       0.083675         2.2769 
 127   0.0000       0.087603         2.3838 
 128   0.0000       0.089019         2.4223 
 129   0.0000       0.094642         2.5753 
 130   0.0000       0.097146         2.6435 
 131   0.0000       0.101802         2.7702 
 132   0.0000       0.101894         2.7727 
 133   0.0000       0.105032         2.8581 
 134   0.0000       0.106955         2.9104 
 135   0.0000       0.109342         2.9754 
 136   0.0000       0.115848         3.1524 
 137   0.0000       0.119166         3.2427 
 138   0.0000       0.120551         3.2804 
 139   0.0000       0.125205         3.4070 
 140   0.0000       0.127192         3.4611 
 141   0.0000       0.127749         3.4762 
 142   0.0000       0.132491         3.6053 
 143   0.0000       0.135094         3.6761 
 144   0.0000       0.136890         3.7250 
 145   0.0000       0.141707         3.8560 
 146   0.0000       0.143420         3.9027 
 147   0.0000       0.146340         3.9821 
 148   0.0000       0.146819         3.9951 
 149   0.0000       0.152211         4.1419 
 150   0.0000       0.157083         4.2745 
 151   0.0000       0.158872         4.3231 
 152   0.0000       0.161799         4.4028 
 153   0.0000       0.163556         4.4506 
 154   0.0000       0.165178         4.4947 
 155   0.0000       0.172054         4.6818 
 156   0.0000       0.176700         4.8083 
 157   0.0000       0.177577         4.8321 
 158   0.0000       0.180601         4.9144 
 159   0.0000       0.182396         4.9633 
 160   0.0000       0.186273         5.0687 
 161   0.0000       0.189733         5.1629 
 162   0.0000       0.194201         5.2845 
 163   0.0000       0.200357         5.4520 
 164   0.0000       0.204914         5.5760 
 165   0.0000       0.206076         5.6076 
 166   0.0000       0.208428         5.6716 
 167   0.0000       0.210433         5.7262 
 168   0.0000       0.211963         5.7678 
 169   0.0000       0.217199         5.9103 
 170   0.0000       0.219805         5.9812 
 171   0.0000       0.223492         6.0815 
 172   0.0000       0.229493         6.2448 
 173   0.0000       0.233845         6.3633 
 174   0.0000       0.243591         6.6284 
 175   0.0000       0.244510         6.6535 
 176   0.0000       0.248295         6.7565 
 177   0.0000       0.251406         6.8411 
 178   0.0000       0.267501         7.2791 
 179   0.0000       0.270145         7.3510 
 180   0.0000       0.274195         7.4612 
 181   0.0000       0.281966         7.6727 
 182   0.0000       0.284382         7.7384 
 183   0.0000       0.294158         8.0045 
 184   0.0000       0.298010         8.1093 
 185   0.0000       0.327344         8.9075 
 186   0.0000       0.333959         9.0875 
 187   0.0000       0.344424         9.3722 
 188   0.0000       0.345795         9.4096 
 189   0.0000       0.351115         9.5543 
 190   0.0000       0.355746         9.6803 
 191   0.0000       0.360483         9.8092 
 192   0.0000       0.367051         9.9880 
 193   0.0000       0.368558        10.0290 
 194   0.0000       0.373425        10.1614 
 195   0.0000       0.376617        10.2483 
 196   0.0000       0.385368        10.4864 
 197   0.0000       0.386999        10.5308 
 198   0.0000       0.392522        10.6811 
 199   0.0000       0.396109        10.7787 
 200   0.0000       0.400761        10.9053 
 201   0.0000       0.408640        11.1197 
 202   0.0000       0.409797        11.1512 
 203   0.0000       0.414236        11.2719 
 204   0.0000       0.420125        11.4322 
 205   0.0000       0.426584        11.6079 
 206   0.0000       0.431389        11.7387 
 207   0.0000       0.442883        12.0515 
 208   0.0000       0.451317        12.2810 
 209   0.0000       0.456515        12.4224 
 210   0.0000       0.459679        12.5085 
 211   0.0000       0.464438        12.6380 
 212   0.0000       0.472329        12.8527 
 213   0.0000       0.476211        12.9584 
 214   0.0000       0.480629        13.0786 
 215   0.0000       0.481988        13.1156 
 216   0.0000       0.486171        13.2294 
 217   0.0000       0.489224        13.3125 
 218   0.0000       0.499018        13.5790 
 219   0.0000       0.500143        13.6096 
 220   0.0000       0.504467        13.7273 
 221   0.0000       0.510528        13.8922 
 222   0.0000       0.513454        13.9718 
 223   0.0000       0.518520        14.1097 
 224   0.0000       0.521443        14.1892 
 225   0.0000       0.525549        14.3009 
 226   0.0000       0.534336        14.5400 
 227   0.0000       0.537939        14.6381 
 228   0.0000       0.541602        14.7377 
 229   0.0000       0.543042        14.7769 
 230   0.0000       0.547495        14.8981 
 231   0.0000       0.549142        14.9429 
 232   0.0000       0.554168        15.0797 
 233   0.0000       0.559948        15.2370 
 234   0.0000       0.563106        15.3229 
 235   0.0000       0.569363        15.4931 
 236   0.0000       0.570135        15.5142 
 237   0.0000       0.572903        15.5895 
 238   0.0000       0.573885        15.6162 
 239   0.0000       0.576052        15.6752 
 240   0.0000       0.581540        15.8245 
 241   0.0000       0.583041        15.8654 
 242   0.0000       0.586783        15.9672 
 243   0.0000       0.591255        16.0889 
 244   0.0000       0.592668        16.1273 
 245   0.0000       0.595667        16.2089 
 246   0.0000       0.597846        16.2682 
 247   0.0000       0.599292        16.3076 
 248   0.0000       0.603018        16.4090 
 249   0.0000       0.605652        16.4806 
 250   0.0000       0.607493        16.5307 
 251   0.0000       0.608705        16.5637 
 252   0.0000       0.614382        16.7182 
 253   0.0000       0.615497        16.7485 
 254   0.0000       0.617400        16.8003 
 255   0.0000       0.617891        16.8137 
 256   0.0000       0.624840        17.0028 
 257   0.0000       0.626112        17.0374 
 258   0.0000       0.629402        17.1269 
 259   0.0000       0.630970        17.1696 
 260   0.0000       0.636112        17.3095 
 261   0.0000       0.637103        17.3364 
 262   0.0000       0.642036        17.4707 
 263   0.0000       0.645502        17.5650 
 264   0.0000       0.646873        17.6023 
 265   0.0000       0.647237        17.6122 
 266   0.0000       0.650687        17.7061 
 267   0.0000       0.653312        17.7775 
 268   0.0000       0.656072        17.8526 
 269   0.0000       0.658199        17.9105 
 270   0.0000       0.661059        17.9883 
 271   0.0000       0.666583        18.1386 
 272   0.0000       0.670634        18.2489 
 273   0.0000       0.676456        18.4073 
 274   0.0000       0.679938        18.5021 
 275   0.0000       0.680888        18.5279 
 276   0.0000       0.682900        18.5827 
 277   0.0000       0.683745        18.6057 
 278   0.0000       0.686823        18.6894 
 279   0.0000       0.693828        18.8800 
 280   0.0000       0.697473        18.9792 
 281   0.0000       0.701387        19.0857 
 282   0.0000       0.706373        19.2214 
 283   0.0000       0.710481        19.3332 
 284   0.0000       0.712868        19.3981 
 285   0.0000       0.717464        19.5232 
 286   0.0000       0.721070        19.6213 
 287   0.0000       0.727361        19.7925 
 288   0.0000       0.730555        19.8794 
 289   0.0000       0.738433        20.0938 
 290   0.0000       0.741289        20.1715 
 291   0.0000       0.744899        20.2697 
 292   0.0000       0.748563        20.3694 
 293   0.0000       0.754545        20.5322 
 294   0.0000       0.758286        20.6340 
 295   0.0000       0.761704        20.7270 
 296   0.0000       0.770849        20.9759 
 297   0.0000       0.777332        21.1523 
 298   0.0000       0.784899        21.3582 
 299   0.0000       0.796888        21.6844 
 300   0.0000       0.802326        21.8324 
 301   0.0000       0.807310        21.9680 
 302   0.0000       0.810832        22.0639 
 303   0.0000       0.813737        22.1429 
 304   0.0000       0.836861        22.7721 
 305   0.0000       0.844654        22.9842 
 306   0.0000       0.869250        23.6535 
 307   0.0000       0.878412        23.9028 
 308   0.0000       0.894271        24.3344 
 309   0.0000       0.911584        24.8055 
 310   0.0000       0.930318        25.3152 
 311   0.0000       0.934003        25.4155 
 312   0.0000       0.947894        25.7935 
 313   0.0000       0.956242        26.0207 
 314   0.0000       0.975208        26.5368 
 315   0.0000       0.984631        26.7932 
 316   0.0000       0.999485        27.1974 
 317   0.0000       1.016715        27.6662 
 318   0.0000       1.026949        27.9447 
 319   0.0000       1.037899        28.2427 
 320   0.0000       1.049285        28.5525 
 321   0.0000       1.056986        28.7620 
 322   0.0000       1.061053        28.8727 
 323   0.0000       1.090870        29.6841 
 324   0.0000       1.109906        30.2021 
 325   0.0000       1.110790        30.2261 
 326   0.0000       1.121979        30.5306 
 327   0.0000       1.143013        31.1030 
 328   0.0000       1.159441        31.5500 
 329   0.0000       1.178471        32.0678 
 330   0.0000       1.182631        32.1810 
 331   0.0000       1.219923        33.1958 
 332   0.0000       1.230221        33.4760 
 333   0.0000       1.251329        34.0504 
 334   0.0000       1.256771        34.1985 
 335   0.0000       1.263502        34.3816 
 336   0.0000       1.277184        34.7539 
 337   0.0000       1.290810        35.1247 
 338   0.0000       1.298821        35.3427 
 339   0.0000       1.301024        35.4027 
 340   0.0000       1.312267        35.7086 
 341   0.0000       1.333287        36.2806 
 342   0.0000       1.337668        36.3998 
 343   0.0000       1.349508        36.7220 
 344   0.0000       1.352723        36.8095 
 345   0.0000       1.371089        37.3092 
 346   0.0000       1.386247        37.7217 
 347   0.0000       1.395590        37.9759 
 348   0.0000       1.398024        38.0422 
 349   0.0000       1.411795        38.4169 
 350   0.0000       1.415733        38.5240 
 351   0.0000       1.435903        39.0729 
 352   0.0000       1.447937        39.4004 
 353   0.0000       1.454738        39.5854 
 354   0.0000       1.458230        39.6805 
 355   0.0000       1.479978        40.2723 
 356   0.0000       1.481276        40.3076 
 357   0.0000       1.495529        40.6954 
 358   0.0000       1.505238        40.9596 
 359   0.0000       1.508754        41.0553 
 360   0.0000       1.520578        41.3770 
 361   0.0000       1.523865        41.4665 
 362   0.0000       1.537420        41.8353 
 363   0.0000       1.548148        42.1272 
 364   0.0000       1.555007        42.3139 
 365   0.0000       1.564227        42.5648 
 366   0.0000       1.577071        42.9143 
 367   0.0000       1.584540        43.1175 
 368   0.0000       1.588885        43.2358 
 369   0.0000       1.591799        43.3151 
 370   0.0000       1.602172        43.5973 
 371   0.0000       1.613539        43.9066 
 372   0.0000       1.619696        44.0742 
 373   0.0000       1.627615        44.2896 
 374   0.0000       1.638189        44.5774 
 375   0.0000       1.645771        44.7837 
 376   0.0000       1.662164        45.2298 
 377   0.0000       1.665621        45.3238 
 378   0.0000       1.667797        45.3831 
 379   0.0000       1.682468        45.7823 
 380   0.0000       1.686425        45.8899 
 381   0.0000       1.691086        46.0168 
 382   0.0000       1.696165        46.1550 
 383   0.0000       1.705698        46.4144 
 384   0.0000       1.708937        46.5025 
 385   0.0000       1.713678        46.6316 
 386   0.0000       1.717506        46.7357 
 387   0.0000       1.726656        46.9847 
 388   0.0000       1.729793        47.0701 
 389   0.0000       1.732618        47.1469 
 390   0.0000       1.740796        47.3695 
 391   0.0000       1.749364        47.6026 
 392   0.0000       1.751575        47.6628 
 393   0.0000       1.755371        47.7661 
 394   0.0000       1.764093        48.0034 
 395   0.0000       1.770244        48.1708 
 396   0.0000       1.780547        48.4511 
 397   0.0000       1.783402        48.5288 
 398   0.0000       1.788558        48.6691 
 399   0.0000       1.793639        48.8074 
 400   0.0000       1.797085        48.9012 
 401   0.0000       1.809075        49.2274 
 402   0.0000       1.811464        49.2924 
 403   0.0000       1.821322        49.5607 
 404   0.0000       1.825948        49.6866 
 405   0.0000       1.827136        49.7189 
 406   0.0000       1.843856        50.1739 
 407   0.0000       1.846664        50.2503 
 408   0.0000       1.848445        50.2987 
 409   0.0000       1.856708        50.5236 
 410   0.0000       1.867380        50.8140 
 411   0.0000       1.874939        51.0197 
 412   0.0000       1.877589        51.0918 
 413   0.0000       1.880882        51.1814 
 414   0.0000       1.890444        51.4416 
 415   0.0000       1.892335        51.4931 
 416   0.0000       1.896306        51.6011 
 417   0.0000       1.907735        51.9121 
 418   0.0000       1.916492        52.1504 
 419   0.0000       1.921841        52.2960 
 420   0.0000       1.926349        52.4186 
 421   0.0000       1.934468        52.6396 
 422   0.0000       1.939543        52.7776 
 423   0.0000       1.951889        53.1136 
 424   0.0000       1.952776        53.1377 
 425   0.0000       1.962211        53.3945 
 426   0.0000       1.965993        53.4974 
 427   0.0000       1.969813        53.6013 
 428   0.0000       1.974600        53.7316 
 429   0.0000       1.978503        53.8378 
 430   0.0000       1.980213        53.8843 
 431   0.0000       1.987004        54.0691 
 432   0.0000       1.989337        54.1326 
 433   0.0000       1.995679        54.3052 
 434   0.0000       1.996094        54.3165 
 435   0.0000       2.001387        54.4605 
 436   0.0000       2.002304        54.4855 
 437   0.0000       2.008741        54.6606 
 438   0.0000       2.013622        54.7934 
 439   0.0000       2.017262        54.8925 
 440   0.0000       2.028594        55.2008 
 441   0.0000       2.032789        55.3150 
 442   0.0000       2.034517        55.3620 
 443   0.0000       2.041547        55.5533 
[...]

 --------------
 Nucleus  47H :
 --------------

Diamagnetic contribution to the shielding tensor (ppm) : 
            32.928         -2.723        -5.595
            -4.545         33.961         8.410
            -7.512          8.811        49.122

Paramagnetic contribution to the shielding tensor (ppm): 
            -1.577          1.222         3.336
             2.967         -6.672        -6.251
             4.469         -5.952       -13.780

Total shielding tensor (ppm): 
            31.351         -1.501        -2.258
            -1.577         27.289         2.159
            -3.043          2.858        35.342


 Diagonalized sT*s matrix:
 
 sDSO            30.280           31.016           54.714  iso=      38.670
 sPSO            -3.849           -0.971          -17.208  iso=      -7.343
        ---------------  ---------------  ---------------
 Total           26.431           30.045           37.506  iso=      31.327

 --------------
 Nucleus  48H :
 --------------

Diamagnetic contribution to the shielding tensor (ppm) : 
            36.734          0.064        -2.815
            -6.903         36.901         1.297
            -5.507          0.274        46.502

Paramagnetic contribution to the shielding tensor (ppm): 
            -4.535          1.111         3.018
             8.337         -8.402        -2.646
             4.861         -2.164       -16.837

Total shielding tensor (ppm): 
            32.199          1.176         0.203
             1.434         28.499        -1.349
            -0.646         -1.890        29.665


 Diagonalized sT*s matrix:
 
 sDSO            42.181           41.169           36.787  iso=      40.046
 sPSO           -15.005          -10.779           -3.990  iso=      -9.925
        ---------------  ---------------  ---------------
 Total           27.176           30.391           32.797  iso=      30.121

 --------------
 Nucleus  52H :
 --------------

Diamagnetic contribution to the shielding tensor (ppm) : 
            39.635         -0.069         3.020
             8.641         29.889        -7.730
             7.237         -6.342        46.197

Paramagnetic contribution to the shielding tensor (ppm): 
            -8.658          4.332        -1.110
            -5.173         -4.476         9.532
            -3.706          9.660       -23.524

Total shielding tensor (ppm): 
            30.977          4.263         1.910
             3.468         25.413         1.802
             3.531          3.318        22.673


 Diagonalized sT*s matrix:
 
 sDSO            48.261           25.536           41.924  iso=      38.574
 sPSO           -27.135           -1.688           -7.835  iso=     -12.219
        ---------------  ---------------  ---------------
 Total           21.126           23.848           34.089  iso=      26.354

 --------------
 Nucleus  53H :
 --------------

Diamagnetic contribution to the shielding tensor (ppm) : 
            35.528          1.321         2.135
             3.845         35.802        -6.942
            -8.910         -3.920        55.120

Paramagnetic contribution to the shielding tensor (ppm): 
            -5.792          2.438        -2.122
            -0.685         -9.972         5.959
             9.129          3.317       -31.264

Total shielding tensor (ppm): 
            29.736          3.760         0.013
             3.160         25.831        -0.983
             0.219         -0.604        23.855


 Diagonalized sT*s matrix:
 
 sDSO            40.891           47.187           38.371  iso=      42.150
 sPSO           -17.807          -22.617           -6.604  iso=     -15.676
        ---------------  ---------------  ---------------
 Total           23.084           24.571           31.767  iso=      26.474

 --------------
 Nucleus  57H :
 --------------

Diamagnetic contribution to the shielding tensor (ppm) : 
            32.261         -1.070         0.291
            11.271         42.222        -5.596
            -1.017         -2.019        31.442

Paramagnetic contribution to the shielding tensor (ppm): 
            -4.427         -0.360        -0.652
           -12.371         -8.497         4.956
             1.376          1.314        -4.048

Total shielding tensor (ppm): 
            27.834         -1.430        -0.362
            -1.099         33.725        -0.640
             0.360         -0.704        27.394


 Diagonalized sT*s matrix:
 
 sDSO            31.114           34.324           40.486  iso=      35.308
 sPSO            -3.845           -6.690           -6.436  iso=      -5.657
        ---------------  ---------------  ---------------
 Total           27.269           27.634           34.050  iso=      29.651

 --------------
 Nucleus  58H :
 --------------

Diamagnetic contribution to the shielding tensor (ppm) : 
            35.741          5.803         5.429
            16.012         29.652         2.894
            14.614          0.242        18.000

Paramagnetic contribution to the shielding tensor (ppm): 
            -4.360         -1.256        -4.171
           -11.534          0.808        -1.158
           -12.831          1.477        10.885

Total shielding tensor (ppm): 
            31.381          4.547         1.259
             4.478         30.460         1.736
             1.783          1.719        28.886


 Diagonalized sT*s matrix:
 
 sDSO            22.731           14.327           46.336  iso=      27.798
 sPSO             3.619           13.876          -10.162  iso=       2.444
        ---------------  ---------------  ---------------
 Total           26.349           28.203           36.174  iso=      30.242

 --------------
 Nucleus  61H :
 --------------

Diamagnetic contribution to the shielding tensor (ppm) : 
            33.450         -5.296        -4.853
            -4.834         30.862         5.049
           -10.748          3.135        20.248

Paramagnetic contribution to the shielding tensor (ppm): 
            -2.843          2.829         2.454
             2.325          0.604        -4.119
             7.893         -1.725        10.040

Total shielding tensor (ppm): 
            30.607         -2.467        -2.399
            -2.509         31.467         0.930
            -2.855          1.410        30.288


 Diagonalized sT*s matrix:
 
 sDSO            20.871           23.265           40.423  iso=      28.187
 sPSO             6.674            6.507           -5.379  iso=       2.600
        ---------------  ---------------  ---------------
 Total           27.545           29.773           35.043  iso=      30.787

 --------------
 Nucleus  62H :
 --------------

Diamagnetic contribution to the shielding tensor (ppm) : 
            39.610          5.870         1.089
            14.930         22.565        -1.781
            -3.643          2.315         9.450

Paramagnetic contribution to the shielding tensor (ppm): 
            -4.343         -0.633        -1.274
           -10.124          6.376         1.316
             2.381         -3.002        18.800

Total shielding tensor (ppm): 
            35.266          5.237        -0.185
             4.806         28.941        -0.464
            -1.263         -0.687        28.250


 Diagonalized sT*s matrix:
 
 sDSO            17.819            9.474           44.333  iso=      23.875
 sPSO             8.339           18.705           -6.211  iso=       6.944
        ---------------  ---------------  ---------------
 Total           26.158           28.178           38.122  iso=      30.819

 --------------
 Nucleus  63H :
 --------------

Diamagnetic contribution to the shielding tensor (ppm) : 
            28.866          0.037        -0.910
             8.246         20.645       -10.294
           -20.398         -8.256        34.415

Paramagnetic contribution to the shielding tensor (ppm): 
             0.146          0.891        -0.535
            -7.571          6.842         6.960
            19.793          4.152         0.670

Total shielding tensor (ppm): 
            29.012          0.929        -1.445
             0.674         27.487        -3.335
            -0.605         -4.104        35.085


 Diagonalized sT*s matrix:
 
 sDSO            16.352           25.395           42.179  iso=      27.975
 sPSO             9.575            3.458           -5.376  iso=       2.552
        ---------------  ---------------  ---------------
 Total           25.927           28.854           36.803  iso=      30.528

 --------------
 Nucleus  64H :
 --------------

Diamagnetic contribution to the shielding tensor (ppm) : 
            38.144         -7.495        -3.304
            -5.427         20.823         2.471
             6.248          3.501        14.133

Paramagnetic contribution to the shielding tensor (ppm): 
            -4.066          4.162         0.354
             1.203          7.488        -2.645
            -8.603         -4.613        15.148

Total shielding tensor (ppm): 
            34.078         -3.333        -2.950
            -4.224         28.311        -0.174
            -2.355         -1.113        29.281


 Diagonalized sT*s matrix:
 
 sDSO            21.388           13.901           37.811  iso=      24.367
 sPSO             4.134           15.674           -1.238  iso=       6.190
        ---------------  ---------------  ---------------
 Total           25.522           29.576           36.573  iso=      30.557

 --------------
 Nucleus  65H :
 --------------

Diamagnetic contribution to the shielding tensor (ppm) : 
            34.226          1.236         3.954
            -3.040         33.526        -8.239
            10.150         -3.788        20.852

Paramagnetic contribution to the shielding tensor (ppm): 
            -2.771          0.907        -0.456
             5.973          0.682         8.036
            -7.550          4.273         5.430

Total shielding tensor (ppm): 
            31.455          2.143         3.497
             2.933         34.208        -0.204
             2.600          0.485        26.282


 Diagonalized sT*s matrix:
 
 sDSO            16.982           39.429           32.192  iso=      29.534
 sPSO             7.789           -8.298            3.850  iso=       1.114
        ---------------  ---------------  ---------------
 Total           24.771           31.131           36.043  iso=      30.648

 --------------
 Nucleus  66H :
 --------------

Diamagnetic contribution to the shielding tensor (ppm) : 
            27.923         -2.673         8.543
            -4.891         17.412        -7.059
            19.541        -10.447        25.948

Paramagnetic contribution to the shielding tensor (ppm): 
             2.542          0.194        -3.839
             2.583         11.272         4.222
           -15.511          8.293         7.958

Total shielding tensor (ppm): 
            30.465         -2.479         4.704
            -2.309         28.684        -2.837
             4.030         -2.154        33.906


 Diagonalized sT*s matrix:
 
 sDSO            17.794           10.312           43.177  iso=      23.761
 sPSO             9.135           17.698           -5.061  iso=       7.257
        ---------------  ---------------  ---------------
 Total           26.929           28.011           38.116  iso=      31.018

 --------------
 Nucleus  67H :
 --------------

Diamagnetic contribution to the shielding tensor (ppm) : 
            30.312         -4.745        -3.936
             3.101         39.425        -0.533
            11.580          0.063        39.282

Paramagnetic contribution to the shielding tensor (ppm): 
            -0.022          0.742         3.452
            -6.222         -6.083         2.591
           -12.736          2.640       -10.485

Total shielding tensor (ppm): 
            30.290         -4.003        -0.484
            -3.122         33.342         2.058
            -1.156          2.703        28.797


 Diagonalized sT*s matrix:
 
 sDSO            34.102           38.385           36.532  iso=      36.340
 sPSO            -6.720           -9.808           -0.062  iso=      -5.530
        ---------------  ---------------  ---------------
 Total           27.382           28.577           36.470  iso=      30.810

 --------------
 Nucleus  68H :
 --------------

Diamagnetic contribution to the shielding tensor (ppm) : 
            23.683          1.946         2.078
             9.511         27.103        -0.698
            20.915         -4.917        43.803

Paramagnetic contribution to the shielding tensor (ppm): 
             4.647         -1.917        -1.356
            -9.824         -0.652         2.393
           -19.211          6.293        -6.615

Total shielding tensor (ppm): 
            28.330          0.029         0.722
            -0.313         26.451         1.694
             1.704          1.376        37.188


 Diagonalized sT*s matrix:
 
 sDSO            29.380           19.557           45.653  iso=      31.530
 sPSO            -3.191            8.670           -8.099  iso=      -0.874
        ---------------  ---------------  ---------------
 Total           26.189           28.226           37.554  iso=      30.656

 --------------
 Nucleus  69H :
 --------------

Diamagnetic contribution to the shielding tensor (ppm) : 
            37.566          6.868        -5.933
            16.947         35.155         2.110
            11.495          0.013        43.216

Paramagnetic contribution to the shielding tensor (ppm): 
            -4.133         -2.276         5.854
           -12.692         -7.441        -0.230
           -11.448          0.775       -13.504

Total shielding tensor (ppm): 
            33.433          4.591        -0.079
             4.255         27.714         1.880
             0.047          0.788        29.712


 Diagonalized sT*s matrix:
 
 sDSO            26.977           41.229           47.731  iso=      38.646
 sPSO            -1.967          -11.284          -11.826  iso=      -8.359
        ---------------  ---------------  ---------------
 Total           25.009           29.945           35.905  iso=      30.286

 --------------
 Nucleus  70H :
 --------------

Diamagnetic contribution to the shielding tensor (ppm) : 
            30.571          0.898         4.372
            -7.451         36.976        11.120
            -3.462          9.703        38.937

Paramagnetic contribution to the shielding tensor (ppm): 
             1.723         -0.370        -3.754
             9.162         -6.817        -5.743
             4.453         -4.998       -10.718

Total shielding tensor (ppm): 
            32.293          0.527         0.618
             1.711         30.159         5.377
             0.990          4.706        28.219


 Diagonalized sT*s matrix:
 
 sDSO            27.912           36.041           42.530  iso=      35.494
 sPSO            -3.857           -4.440           -7.515  iso=      -5.271
        ---------------  ---------------  ---------------
 Total           24.055           31.600           35.016  iso=      30.224

 --------------
 Nucleus  71H :
 --------------

Diamagnetic contribution to the shielding tensor (ppm) : 
            27.217         -6.749         0.201
           -11.898         38.939        -1.174
            -3.615         -5.373        35.080

Paramagnetic contribution to the shielding tensor (ppm): 
             3.407          4.515         0.635
            10.197         -5.438        -2.033
             4.056          3.375        -6.340

Total shielding tensor (ppm): 
            30.624         -2.234         0.836
            -1.701         33.501        -3.207
             0.441         -1.998        28.740


 Diagonalized sT*s matrix:
 
 sDSO            32.249           24.687           44.299  iso=      33.745
 sPSO            -4.673            5.088           -8.785  iso=      -2.790
        ---------------  ---------------  ---------------
 Total           27.576           29.775           35.514  iso=      30.955

 --------------
 Nucleus  72H :
 --------------

Diamagnetic contribution to the shielding tensor (ppm) : 
            35.233         -8.011        -8.161
           -14.325         24.918         3.688
           -16.193          5.211        32.383

Paramagnetic contribution to the shielding tensor (ppm): 
            -0.700          6.653         3.785
            12.570          4.477        -0.898
            11.996         -2.484        -3.453

Total shielding tensor (ppm): 
            34.532         -1.359        -4.376
            -1.755         29.395         2.790
            -4.196          2.727        28.930


 Diagonalized sT*s matrix:
 
 sDSO            24.543           17.667           50.324  iso=      30.845
 sPSO             1.142           11.765          -12.583  iso=       0.108
        ---------------  ---------------  ---------------
 Total           25.685           29.432           37.740  iso=      30.952



--------------------------------
CHEMICAL SHIELDING SUMMARY (ppm)
--------------------------------


  Nucleus  Element    Isotropic     Anisotropy
  -------  -------  ------------   ------------
      3       H           29.371          6.441 
      4       H           29.050          7.414 
      8       H           29.572          7.934 
      9       H           29.337          5.438 
     10       H           30.107          8.327 
     11       H           29.860         10.234 
     13       H           27.736          7.775 
     16       H           26.790          4.710 
     17       H           26.509          4.826 
     19       H           25.408         10.421 
     21       H           25.604         14.636 
     24       H           28.912         10.107 
     25       H           30.049          9.531 
     27       H           30.247          7.035 
     28       H           30.115         11.823 
     30       H           29.766          8.095 
     31       H           30.429          6.975 
     33       H           29.754          4.242 
     35       H           30.168         14.721 
     37       H           30.395         10.559 
     38       H           30.253          9.940 
     40       H           30.039         10.450 
     41       H           30.542          8.268 
     42       H           30.531          5.483 
     45       H           31.270          7.243 
     46       H           31.023          8.064 
     47       H           31.327          9.268 
     48       H           30.121          4.014 
     52       H           26.354         11.602 
     53       H           26.474          7.940 
     57       H           29.651          6.599 
     58       H           30.242          8.898 
     61       H           30.787          6.385 
     62       H           30.819         10.954 
     63       H           30.528          9.412 
     64       H           30.557          9.024 
     65       H           30.648          8.092 
     66       H           31.018         10.646 
     67       H           30.810          8.490 
     68       H           30.656         10.346 
     69       H           30.286          8.427 
     70       H           30.224          7.188 
     71       H           30.955          6.838 
     72       H           30.952         10.182 



Maximum memory used throughout the entire EPRNMR-calculation: 141.3 MB

Timings for individual modules:

Sum of individual times         ...      143.123 sec (=   2.385 min)
GTO integral calculation        ...        0.770 sec (=   0.013 min)   0.5 %
SCF iterations                  ...       95.536 sec (=   1.592 min)  66.8 %
EPR/NMR calculation             ...       46.817 sec (=   0.780 min)  32.7 %
                             ****ORCA TERMINATED NORMALLY****
TOTAL RUN TIME: 0 days 0 hours 2 minutes 23 seconds 619 msec
