
                                 *****************
                                 * O   R   C   A *
                                 *****************

                                            #,                                       
                                            ###                                      
                                            ####                                     
                                            #####                                    
                                            ######                                   
                                           ########,                                 
                                     ,,################,,,,,                         
                               ,,#################################,,                 
                          ,,##########################################,,             
                       ,#########################################, ''#####,          
                    ,#############################################,,   '####,        
                  ,##################################################,,,,####,       
                ,###########''''           ''''###############################       
              ,#####''   ,,,,##########,,,,          '''####'''          '####       
            ,##' ,,,,###########################,,,                        '##       
           ' ,,###''''                  '''############,,,                           
         ,,##''                                '''############,,,,        ,,,,,,###''
      ,#''                                            '''#######################'''  
     '                                                          ''''####''''         
             ,#######,   #######,   ,#######,      ##                                
            ,#'     '#,  ##    ##  ,#'     '#,    #''#        ######   ,####,        
            ##       ##  ##   ,#'  ##            #'  '#       #        #'  '#        
            ##       ##  #######   ##           ,######,      #####,   #    #        
            '#,     ,#'  ##    ##  '#,     ,#' ,#      #,         ##   #,  ,#        
             '#######'   ##     ##  '#######'  #'      '#     #####' # '####'        



                  #######################################################
                  #                        -***-                        #
                  #          Department of theory and spectroscopy      #
                  #    Directorship and core code : Frank Neese         #
                  #        Max Planck Institute fuer Kohlenforschung    #
                  #                Kaiser Wilhelm Platz 1               #
                  #                 D-45470 Muelheim/Ruhr               #
                  #                      Germany                        #
                  #                                                     #
                  #                  All rights reserved                #
                  #                        -***-                        #
                  #######################################################


                         Program Version 5.0.2 -  RELEASE  -


 With contributions from (in alphabetic order):
   Daniel Aravena         : Magnetic Suceptibility
   Michael Atanasov       : Ab Initio Ligand Field Theory (pilot matlab implementation)
   Alexander A. Auer      : GIAO ZORA, VPT2 properties, NMR spectrum
   Ute Becker             : Parallelization
   Giovanni Bistoni       : ED, misc. LED, open-shell LED, HFLD
   Martin Brehm           : Molecular dynamics
   Dmytro Bykov           : SCF Hessian
   Vijay G. Chilkuri      : MRCI spin determinant printing, contributions to CSF-ICE
   Dipayan Datta          : RHF DLPNO-CCSD density
   Achintya Kumar Dutta   : EOM-CC, STEOM-CC
   Dmitry Ganyushin       : Spin-Orbit,Spin-Spin,Magnetic field MRCI
   Miquel Garcia          : C-PCM and meta-GGA Hessian, CC/C-PCM, Gaussian charge scheme
   Yang Guo               : DLPNO-NEVPT2, F12-NEVPT2, CIM, IAO-localization
   Andreas Hansen         : Spin unrestricted coupled pair/coupled cluster methods
   Benjamin Helmich-Paris : MC-RPA, TRAH-SCF, COSX integrals
   Lee Huntington         : MR-EOM, pCC
   Robert Izsak           : Overlap fitted RIJCOSX, COSX-SCS-MP3, EOM
   Marcus Kettner         : VPT2
   Christian Kollmar      : KDIIS, OOCD, Brueckner-CCSD(T), CCSD density, CASPT2, CASPT2-K
   Simone Kossmann        : Meta GGA functionals, TD-DFT gradient, OOMP2, MP2 Hessian
   Martin Krupicka        : Initial AUTO-CI
   Lucas Lang             : DCDCAS
   Marvin Lechner         : AUTO-CI (C++ implementation), FIC-MRCC
   Dagmar Lenk            : GEPOL surface, SMD
   Dimitrios Liakos       : Extrapolation schemes; Compound Job, initial MDCI parallelization
   Dimitrios Manganas     : Further ROCIS development; embedding schemes
   Dimitrios Pantazis     : SARC Basis sets
   Anastasios Papadopoulos: AUTO-CI, single reference methods and gradients
   Taras Petrenko         : DFT Hessian,TD-DFT gradient, ASA, ECA, R-Raman, ABS, FL, XAS/XES, NRVS
   Peter Pinski           : DLPNO-MP2, DLPNO-MP2 Gradient
   Christoph Reimann      : Effective Core Potentials
   Marius Retegan         : Local ZFS, SOC
   Christoph Riplinger    : Optimizer, TS searches, QM/MM, DLPNO-CCSD(T), (RO)-DLPNO pert. Triples
   Tobias Risthaus        : Range-separated hybrids, TD-DFT gradient, RPA, STAB
   Michael Roemelt        : Original ROCIS implementation
   Masaaki Saitow         : Open-shell DLPNO-CCSD energy and density
   Barbara Sandhoefer     : DKH picture change effects
   Avijit Sen             : IP-ROCIS
   Kantharuban Sivalingam : CASSCF convergence, NEVPT2, FIC-MRCI
   Bernardo de Souza      : ESD, SOC TD-DFT
   Georgi Stoychev        : AutoAux, RI-MP2 NMR, DLPNO-MP2 response
   Willem Van den Heuvel  : Paramagnetic NMR
   Boris Wezisla          : Elementary symmetry handling
   Frank Wennmohs         : Technical directorship


 We gratefully acknowledge several colleagues who have allowed us to
 interface, adapt or use parts of their codes:
   Stefan Grimme, W. Hujo, H. Kruse, P. Pracht,  : VdW corrections, initial TS optimization,
                  C. Bannwarth, S. Ehlert          DFT functionals, gCP, sTDA/sTD-DF
   Ed Valeev, F. Pavosevic, A. Kumar             : LibInt (2-el integral package), F12 methods
   Garnet Chan, S. Sharma, J. Yang, R. Olivares  : DMRG
   Ulf Ekstrom                                   : XCFun DFT Library
   Mihaly Kallay                                 : mrcc  (arbitrary order and MRCC methods)
   Jiri Pittner, Ondrej Demel                    : Mk-CCSD
   Frank Weinhold                                : gennbo (NPA and NBO analysis)
   Christopher J. Cramer and Donald G. Truhlar   : smd solvation model
   Lars Goerigk                                  : TD-DFT with DH, B97 family of functionals
   V. Asgeirsson, H. Jonsson                     : NEB implementation
   FAccTs GmbH                                   : IRC, NEB, NEB-TS, DLPNO-Multilevel, CI-OPT
                                                   MM, QMMM, 2- and 3-layer-ONIOM, Crystal-QMMM,
                                                   LR-CPCM, SF, NACMEs, symmetry and pop. for TD-DFT,
                                                   nearIR, NL-DFT gradient (VV10), updates on ESD,
                                                   ML-optimized integration grids
   S Lehtola, MJT Oliveira, MAL Marques          : LibXC Library
   Liviu Ungur et al                             : ANISO software


 Your calculation uses the libint2 library for the computation of 2-el integrals
 For citations please refer to: http://libint.valeyev.net

 Your ORCA version has been built with support for libXC version: 5.1.0
 For citations please refer to: https://tddft.org/programs/libxc/

 This ORCA versions uses:
   CBLAS   interface :  Fast vector & matrix operations
   LAPACKE interface :  Fast linear algebra routines
   SCALAPACK package :  Parallel linear algebra routines
   Shared memory     :  Shared parallel matrices
   BLAS/LAPACK       :  OpenBLAS 0.3.15  USE64BITINT DYNAMIC_ARCH NO_AFFINITY Zen SINGLE_THREADED
        Core in use  :  Zen
   Copyright (c) 2011-2014, The OpenBLAS Project


Your calculation utilizes the atom-pairwise dispersion correction
based on tight binding partial charges (D4)
Cite in your paper:
E.Caldeweyher, C.Bannwarth, S.Grimme, J.Chem.Phys., (2017), 147, 034112.
E.Caldeweyher, S.Ehlert, A.Hansen, H.Neugebauer, S.Grimme, J.Chem.Phys., (2018), in progress.
   

================================================================================

----- Orbital basis set information -----
Your calculation utilizes the basis: pcJ-0
   F. Jensen, Theor. Chem. Acc. 126, 371 (2010).

----- AuxJ basis set information -----
Your calculation utilizes the auxiliary basis: def2/J
   F. Weigend, Phys. Chem. Chem. Phys. 8, 1057 (2006).

================================================================================
                                        WARNINGS
                       Please study these warnings very carefully!
================================================================================


INFO   : the flag for use of the SHARK integral package has been found!

================================================================================
                                       INPUT FILE
================================================================================
NAME = inpJ
|  1> ! pbe0
|  2> ! D4
|  3> ! pcJ-0
|  4> ! def2/J RIJCOSX
|  5> ! DEFGRID2
|  6> ! scfconv7
|  7> ! smallprint printgap noloewdin
|  8> ! NOSOSCF
|  9> %MaxCore 4000
| 10> %output
| 11>        print[P_BondOrder_M] 1
| 12>        print[P_Mayer] 1
| 13>        print[P_basis] 2
| 14> end
| 15> %pal
| 16>     nprocs 4
| 17> end
| 18> ! CPCM(chloroform)
| 19> *xyz 0 1
| 20> C   -5.0318049700   0.2511081400  -0.4971302200
| 21> C   -6.4867457800  -0.1181096600  -0.6673763200
| 22> C   -7.3779896400   0.8096520800   0.1680802400
| 23> H   -6.6572302500  -1.1616516900  -0.3794964400
| 24> H   -6.7794300000  -0.0048992100  -1.7218112900
| 25> C   -4.7359064400   1.6744536200  -0.7722711200
| 26> C   -5.6499086300   2.6515932200  -0.0662313300
| 27> C   -7.1286094800   2.2684853000  -0.2186481000
| 28> H   -5.4752304600   3.6678087100  -0.4354413000
| 29> H   -5.3944855300   2.6509136000   1.0044057600
| 30> H   -7.4388391200   2.4064397100  -1.2634082400
| 31> H   -7.7527005700   2.9233388700   0.4003944100
| 32> O   -7.1656865500   0.5890671900   1.5724521900
| 33> H   -8.4317919200   0.5596344100  -0.0061199200
| 34> C   -4.1244467200  -0.6564153300  -0.0641059300
| 35> C   -3.7681275900   2.0723399400  -1.6054624200
| 36> H   -3.1326724100   1.3548387000  -2.1177390200
| 37> H   -3.5975241200   3.1284989000  -1.8005501700
| 38> C   -2.7350966200  -0.3970889300   0.2367226500
| 39> H   -4.4950688700  -1.6674072700   0.1007710600
| 40> C   -1.7999238600  -1.3160744000   0.5582295900
| 41> H   -2.4313643200   0.6469659200   0.2071176200
| 42> C   -2.0153593900  -2.8070310600   0.6153387100
| 43> C   -1.0203921200  -3.5545068400  -0.2939435400
| 44> H   -3.0381661000  -3.0904002500   0.3531383200
| 45> H   -1.8435576100  -3.1346479900   1.6528894400
| 46> C    0.4356624900  -3.1408441600  -0.0425680200
| 47> H   -1.2848615000  -3.3667677600  -1.3422933500
| 48> H   -1.1283939200  -4.6342671800  -0.1337656800
| 49> C    0.6230678500  -1.6207295900  -0.1409089400
| 50> H    1.0819242600  -3.6683801700  -0.7518681600
| 51> H    0.7345402900  -3.4642570300   0.9659484700
| 52> C   -0.3771735400  -0.9590184400   0.8609791300
| 53> H   -0.1394784800  -1.4243362000   1.8351988600
| 54> C    0.0750698500   0.4968358600   0.9338733200
| 55> H   -6.2125629500   0.4991314800   1.7138942800
| 56> C    1.6165522900   0.4057088000   0.8187845200
| 57> H   -0.2559562500   0.9839409300   1.8570438300
| 58> H   -0.3362320700   1.0750006800   0.0989266600
| 59> C    1.9613186400  -1.0585529500   0.4127249000
| 60> H    2.1134881300   0.6717618700   1.7572019900
| 61> H    1.9947979500   1.1028112000   0.0620175500
| 62> H    2.1869640800  -1.6314649100   1.3275129800
| 63> C    3.2193495600  -1.1161664700  -0.4779071900
| 64> C    0.3741955100  -1.1255633000  -1.5728138100
| 65> H    0.6156022000  -0.0632060500  -1.6799902500
| 66> H   -0.6726750500  -1.2531816600  -1.8649723600
| 67> H    0.9932848100  -1.6802993600  -2.2865469600
| 68> H    3.0260413600  -0.5296152600  -1.3881650700
| 69> C    3.6162585400  -2.5434242800  -0.8833492700
| 70> C    4.3706187700  -0.4748470200   0.2522262000
| 71> C    5.0475143800   0.5851431900  -0.1882614200
| 72> H    4.6315008500  -0.9522625700   1.1959550800
| 73> H    4.7310344400   1.0074956600  -1.1475842100
| 74> C    6.2219640800   1.3169451600   0.4134816500
| 75> C    7.3983541200   1.2620929800  -0.5788008400
| 76> C    6.6717571100   0.9610930300   1.8490358000
| 77> H    5.9130106100   2.3754572000   0.4630245400
| 78> H    7.4645891700   1.6929750600   2.0708565600
| 79> C    7.3124325300  -0.4232471800   2.0059359300
| 80> C    5.5694474500   1.1917711600   2.8891965800
| 81> H    7.7135366600   0.2293014300  -0.7603310500
| 82> H    8.2578333400   1.8235259200  -0.1943514800
| 83> H    7.1122227300   1.6950187900  -1.5433710000
| 84> H    8.1740675400  -0.5464891100   1.3424606100
| 85> H    6.6109413700  -1.2354498400   1.7950364400
| 86> H    7.6676021000  -0.5523353300   3.0347515500
| 87> H    5.0971594000   2.1711291700   2.7490461400
| 88> H    5.9896835400   1.1611804900   3.9008254200
| 89> H    4.7832460600   0.4335339700   2.8348932600
| 90> H    2.8802088200  -2.9968694700  -1.5520055600
| 91> H    3.7143420100  -3.1848759800   0.0012237800
| 92> H    4.5807888600  -2.5338228200  -1.4022759400
| 93> *
| 94> %eprnmr
| 95>  Nuclei = all H { ssfc }
| 96>  SpinSpinRThresh 8.0
| 97> end
| 98> 
| 99>                          ****END OF INPUT****
================================================================================

                       ****************************
                       * Single Point Calculation *
                       ****************************

---------------------------------
CARTESIAN COORDINATES (ANGSTROEM)
---------------------------------
  C     -5.031805    0.251108   -0.497130
  C     -6.486746   -0.118110   -0.667376
  C     -7.377990    0.809652    0.168080
  H     -6.657230   -1.161652   -0.379496
  H     -6.779430   -0.004899   -1.721811
  C     -4.735906    1.674454   -0.772271
  C     -5.649909    2.651593   -0.066231
  C     -7.128609    2.268485   -0.218648
  H     -5.475230    3.667809   -0.435441
  H     -5.394486    2.650914    1.004406
  H     -7.438839    2.406440   -1.263408
  H     -7.752701    2.923339    0.400394
  O     -7.165687    0.589067    1.572452
  H     -8.431792    0.559634   -0.006120
  C     -4.124447   -0.656415   -0.064106
  C     -3.768128    2.072340   -1.605462
  H     -3.132672    1.354839   -2.117739
  H     -3.597524    3.128499   -1.800550
  C     -2.735097   -0.397089    0.236723
  H     -4.495069   -1.667407    0.100771
  C     -1.799924   -1.316074    0.558230
  H     -2.431364    0.646966    0.207118
  C     -2.015359   -2.807031    0.615339
  C     -1.020392   -3.554507   -0.293944
  H     -3.038166   -3.090400    0.353138
  H     -1.843558   -3.134648    1.652889
  C      0.435662   -3.140844   -0.042568
  H     -1.284861   -3.366768   -1.342293
  H     -1.128394   -4.634267   -0.133766
  C      0.623068   -1.620730   -0.140909
  H      1.081924   -3.668380   -0.751868
  H      0.734540   -3.464257    0.965948
  C     -0.377174   -0.959018    0.860979
  H     -0.139478   -1.424336    1.835199
  C      0.075070    0.496836    0.933873
  H     -6.212563    0.499131    1.713894
  C      1.616552    0.405709    0.818785
  H     -0.255956    0.983941    1.857044
  H     -0.336232    1.075001    0.098927
  C      1.961319   -1.058553    0.412725
  H      2.113488    0.671762    1.757202
  H      1.994798    1.102811    0.062018
  H      2.186964   -1.631465    1.327513
  C      3.219350   -1.116166   -0.477907
  C      0.374196   -1.125563   -1.572814
  H      0.615602   -0.063206   -1.679990
  H     -0.672675   -1.253182   -1.864972
  H      0.993285   -1.680299   -2.286547
  H      3.026041   -0.529615   -1.388165
  C      3.616259   -2.543424   -0.883349
  C      4.370619   -0.474847    0.252226
  C      5.047514    0.585143   -0.188261
  H      4.631501   -0.952263    1.195955
  H      4.731034    1.007496   -1.147584
  C      6.221964    1.316945    0.413482
  C      7.398354    1.262093   -0.578801
  C      6.671757    0.961093    1.849036
  H      5.913011    2.375457    0.463025
  H      7.464589    1.692975    2.070857
  C      7.312433   -0.423247    2.005936
  C      5.569447    1.191771    2.889197
  H      7.713537    0.229301   -0.760331
  H      8.257833    1.823526   -0.194351
  H      7.112223    1.695019   -1.543371
  H      8.174068   -0.546489    1.342461
  H      6.610941   -1.235450    1.795036
  H      7.667602   -0.552335    3.034752
  H      5.097159    2.171129    2.749046
  H      5.989684    1.161180    3.900825
  H      4.783246    0.433534    2.834893
  H      2.880209   -2.996869   -1.552006
  H      3.714342   -3.184876    0.001224
  H      4.580789   -2.533823   -1.402276

----------------------------
CARTESIAN COORDINATES (A.U.)
----------------------------
  NO LB      ZA    FRAG     MASS         X           Y           Z
   0 C     6.0000    0    12.011   -9.508733    0.474526   -0.939440
   1 C     6.0000    0    12.011  -12.258173   -0.223195   -1.261158
   2 C     6.0000    0    12.011  -13.942380    1.530021    0.317626
   3 H     1.0000    0     1.008  -12.580342   -2.195204   -0.717144
   4 H     1.0000    0     1.008  -12.811266   -0.009258   -3.253752
   5 C     6.0000    0    12.011   -8.949566    3.164259   -1.459381
   6 C     6.0000    0    12.011  -10.676780    5.010785   -0.125159
   7 C     6.0000    0    12.011  -13.471120    4.286816   -0.413185
   8 H     1.0000    0     1.008  -10.346686    6.931154   -0.822865
   9 H     1.0000    0     1.008  -10.194100    5.009501    1.898052
  10 H     1.0000    0     1.008  -14.057369    4.547512   -2.387496
  11 H     1.0000    0     1.008  -14.650481    5.524310    0.756636
  12 O     8.0000    0    15.999  -13.541185    1.113176    2.971504
  13 H     1.0000    0     1.008  -15.933778    1.057556   -0.011565
  14 C     6.0000    0    12.011   -7.794075   -1.240445   -0.121143
  15 C     6.0000    0    12.011   -7.120729    3.916155   -3.033884
  16 H     1.0000    0     1.008   -5.919893    2.560274   -4.001947
  17 H     1.0000    0     1.008   -6.798335    5.912006   -3.402547
  18 C     6.0000    0    12.011   -5.168584   -0.750389    0.447341
  19 H     1.0000    0     1.008   -8.494449   -3.150943    0.190430
  20 C     6.0000    0    12.011   -3.401363   -2.487020    1.054901
  21 H     1.0000    0     1.008   -4.594613    1.222588    0.391396
  22 C     6.0000    0    12.011   -3.808477   -5.304520    1.162822
  23 C     6.0000    0    12.011   -1.928262   -6.717044   -0.555473
  24 H     1.0000    0     1.008   -5.741302   -5.840010    0.667335
  25 H     1.0000    0     1.008   -3.483819   -5.923626    3.123508
  26 C     6.0000    0    12.011    0.823283   -5.935335   -0.080442
  27 H     1.0000    0     1.008   -2.428036   -6.362269   -2.536567
  28 H     1.0000    0     1.008   -2.132355   -8.757496   -0.252781
  29 C     6.0000    0    12.011    1.177428   -3.062735   -0.266279
  30 H     1.0000    0     1.008    2.044541   -6.932234   -1.420825
  31 H     1.0000    0     1.008    1.388080   -6.546497    1.825378
  32 C     6.0000    0    12.011   -0.712755   -1.812282    1.627015
  33 H     1.0000    0     1.008   -0.263576   -2.691605    3.468023
  34 C     6.0000    0    12.011    0.141861    0.938884    1.764765
  35 H     1.0000    0     1.008  -11.740043    0.943222    3.238791
  36 C     6.0000    0    12.011    3.054841    0.766679    1.547279
  37 H     1.0000    0     1.008   -0.483687    1.859379    3.509304
  38 H     1.0000    0     1.008   -0.635387    2.031457    0.186944
  39 C     6.0000    0    12.011    3.706355   -2.000375    0.779937
  40 H     1.0000    0     1.008    3.993914    1.269446    3.320631
  41 H     1.0000    0     1.008    3.769622    2.084011    0.117196
  42 H     1.0000    0     1.008    4.132763   -3.083022    2.508636
  43 C     6.0000    0    12.011    6.083689   -2.109249   -0.903114
  44 C     6.0000    0    12.011    0.707127   -2.127006   -2.972187
  45 H     1.0000    0     1.008    1.163320   -0.119442   -3.174721
  46 H     1.0000    0     1.008   -1.271172   -2.368170   -3.524287
  47 H     1.0000    0     1.008    1.877036   -3.175306   -4.320948
  48 H     1.0000    0     1.008    5.718389   -1.000828   -2.623252
  49 C     6.0000    0    12.011    6.833738   -4.806375   -1.669288
  50 C     6.0000    0    12.011    8.259273   -0.897331    0.476638
  51 C     6.0000    0    12.011    9.538420    1.105760   -0.355763
  52 H     1.0000    0     1.008    8.752268   -1.799515    2.260028
  53 H     1.0000    0     1.008    8.940359    1.903891   -2.168620
  54 C     6.0000    0    12.011   11.757808    2.488666    0.781367
  55 C     6.0000    0    12.011   13.980863    2.385010   -1.093775
  56 C     6.0000    0    12.011   12.607794    1.816203    3.494171
  57 H     1.0000    0     1.008   11.173971    4.488964    0.874990
  58 H     1.0000    0     1.008   14.106029    3.199259    3.913352
  59 C     6.0000    0    12.011   13.818495   -0.799821    3.790670
  60 C     6.0000    0    12.011   10.524730    2.252121    5.459790
  61 H     1.0000    0     1.008   14.576472    0.433317   -1.436817
  62 H     1.0000    0     1.008   15.605043    3.445965   -0.367271
  63 H     1.0000    0     1.008   13.440153    3.203121   -2.916549
  64 H     1.0000    0     1.008   15.446749   -1.032715    2.536883
  65 H     1.0000    0     1.008   12.492869   -2.334662    3.392127
  66 H     1.0000    0     1.008   14.489668   -1.043763    5.734849
  67 H     1.0000    0     1.008    9.632235    4.102840    5.194944
  68 H     1.0000    0     1.008   11.318862    2.194313    7.371492
  69 H     1.0000    0     1.008    9.039025    0.819260    5.357172
  70 H     1.0000    0     1.008    5.442806   -5.663263   -2.932865
  71 H     1.0000    0     1.008    7.019089   -6.018543    0.002313
  72 H     1.0000    0     1.008    8.656436   -4.788231   -2.649917

--------------------------------
INTERNAL COORDINATES (ANGSTROEM)
--------------------------------
 C      0   0   0     0.000000000000     0.00000000     0.00000000
 C      1   0   0     1.510681395598     0.00000000     0.00000000
 C      2   1   0     1.533963861322   110.51006770     0.00000000
 H      2   1   3     1.095864840296   110.66856061   237.86435217
 H      2   1   3     1.100142611021   109.82131856   118.76467121
 C      1   2   3     1.479584674949   114.00189782   306.32735426
 C      6   1   2     1.512843014419   114.43965134    49.53825982
 C      3   2   1     1.529687431123   110.14431206    56.73873365
 H      7   6   1     1.095227093866   110.21932165   188.82523009
 H      7   6   1     1.100683969348   108.26168642    72.17032434
 H      8   3   2     1.098543398736   108.31019898    64.32711933
 H      8   3   2     1.096146211026   109.52068447   181.32945516
 O      3   2   1     1.437355512623   110.70189466   292.74306948
 H      3   2   1     1.096974829424   109.49992500   177.21014863
 C      1   2   3     1.354403144626   121.16330977   123.21763688
 C      6   1   2     1.337578845731   123.14043877   231.42527335
 H     16   6   1     1.086756012221   121.35242837   359.08603842
 H     16   6   1     1.087490930061   120.94056292   178.46990193
 C     15   1   2     1.445005784297   126.18814410   185.18503424
 H     15   1   2     1.089334614637   116.25240921     3.06042988
 C     19  15   1     1.349981147122   126.40303939   186.06493542
 H     19  15   1     1.087740914774   115.78958380     6.74949489
 C     21  19  15     1.507523028405   125.68191160     2.45211841
 C     23  21  19     1.541257317979   111.41033349   124.09530765
 H     23  21  19     1.093243206418   112.39353407     0.53673797
 H     23  21  19     1.101526314600   107.91141948   242.62015400
 C     24  23  21     1.534405908546   112.65583010    51.34543117
 H     24  23  21     1.097372926240   108.96892477   289.20446190
 H     24  23  21     1.096906435150   109.12833749   173.27433728
 C     27  24  23     1.534776860468   111.86306618   306.31018088
 H     27  24  23     1.095013792522   108.90811537   182.83648886
 H     27  24  23     1.100467779817   109.18571670    66.36691204
 C     21  19  15     1.497786605496   122.94841990   180.20499626
 H     33  21  19     1.105497011141   106.38125226   127.66624903
 C     33  21  19     1.526220622834   121.23324274     5.06949086
 H     13   3   2     0.967749396091   107.60995447    42.64955517
 C     35  33  21     1.548456549529   103.60898178   197.04200286
 H     35  33  21     1.095031240940   112.02509641    74.99999267
 H     35  33  21     1.095709703127   110.83698105   315.42486177
 C     30  27  24     1.553534093701   116.15256752   166.26487170
 H     37  35  33     1.094694849323   111.95556669   249.25375570
 H     37  35  33     1.096228891371   110.93902904   130.68647716
 H     40  30  27     1.102715380238   106.49308412   320.89464329
 C     40  30  27     1.542461225801   118.90039986    81.70123273
 C     30  27  24     1.535408301755   111.06217856   294.08821720
 H     45  30  27     1.094699459165   111.62503744   186.49434381
 H     45  30  27     1.094340455956   111.49526964    66.45224917
 H     45  30  27     1.095636192834   110.64919923   306.34111742
 H     44  40  30     1.099990813708   108.33468388    60.80549016
 C     44  40  30     1.535898718941   113.44702053   299.87247299
 C     44  40  30     1.506587600518   109.11818922   178.10647418
 C     51  44  40     1.332590055308   124.51085609   239.94939304
 H     51  44  40     1.089315962425   114.60147464    60.35762232
 H     52  51  44     1.094916150557   116.71958726     0.10666168
 C     52  51  44     1.508960219296   130.48860124   181.05112798
 C     55  52  51     1.539976242616   108.68288092   120.41092629
 C     55  52  51     1.545884932925   119.02178386   351.23273710
 H     55  52  51     1.103790960010   105.37427226   233.74710845
 H     57  55  52     1.101561814320   104.09150886   185.23645320
 C     57  55  52     1.533453768983   115.11194125    69.46680183
 C     57  55  52     1.533047107704   112.71950731   300.01403519
 H     56  55  52     1.094966500134   111.11905057   298.00471216
 H     56  55  52     1.096226612582   110.77553873   177.45370160
 H     56  55  52     1.095304306058   110.72018956    57.49338628
 H     60  57  55     1.094441850450   111.62655599    56.51722276
 H     60  57  55     1.093728304174   112.50062179   295.27290574
 H     60  57  55     1.096024978675   109.74035748   175.58844530
 H     61  57  55     1.096284753044   110.94347758   313.02196271
 H     61  57  55     1.095868181101   110.26770452   193.47985473
 H     61  57  55     1.093611042602   112.26544923    73.52954898
 H     50  44  40     1.092924043474   111.90128214    67.26696292
 H     50  44  40     1.097064324143   110.70749160   306.58771526
 H     50  44  40     1.095306265421   110.15042111   187.25301919

---------------------------
INTERNAL COORDINATES (A.U.)
---------------------------
 C      0   0   0     0.000000000000     0.00000000     0.00000000
 C      1   0   0     2.854774113290     0.00000000     0.00000000
 C      2   1   0     2.898771597231   110.51006770     0.00000000
 H      2   1   3     2.070884427952   110.66856061   237.86435217
 H      2   1   3     2.078968243088   109.82131856   118.76467121
 C      1   2   3     2.796009827601   114.00189782   306.32735426
 C      6   1   2     2.858858980868   114.43965134    49.53825982
 C      3   2   1     2.890690315324   110.14431206    56.73873365
 H      7   6   1     2.069679261857   110.21932165   188.82523009
 H      7   6   1     2.079991262066   108.26168642    72.17032434
 H      8   3   2     2.075946169838   108.31019898    64.32711933
 H      8   3   2     2.071416141574   109.52068447   181.32945516
 O      3   2   1     2.716208275939   110.70189466   292.74306948
 H      3   2   1     2.072982003416   109.49992500   177.21014863
 C      1   2   3     2.559451018266   121.16330977   123.21763688
 C      6   1   2     2.527657700957   123.14043877   231.42527335
 H     16   6   1     2.053671237490   121.35242837   359.08603842
 H     16   6   1     2.055060030938   120.94056292   178.46990193
 C     15   1   2     2.730665194253   126.18814410   185.18503424
 H     15   1   2     2.058544089865   116.25240921     3.06042988
 C     19  15   1     2.551094654018   126.40303939   186.06493542
 H     19  15   1     2.055532433584   115.78958380     6.74949489
 C     21  19  15     2.848805664265   125.68191160     2.45211841
 C     23  21  19     2.912554232882   111.41033349   124.09530765
 H     23  21  19     2.065930257899   112.39353407     0.53673797
 H     23  21  19     2.081583063902   107.91141948   242.62015400
 C     24  23  21     2.899606945423   112.65583010    51.34543117
 H     24  23  21     2.073734297373   108.96892477   289.20446190
 H     24  23  21     2.072852756970   109.12833749   173.27433728
 C     27  24  23     2.900307942965   111.86306618   306.31018088
 H     27  24  23     2.069276180734   108.90811537   182.83648886
 H     27  24  23     2.079582723059   109.18571670    66.36691204
 C     21  19  15     2.830406491442   122.94841990   180.20499626
 H     33  21  19     2.089086592924   106.38125226   127.66624903
 C     33  21  19     2.884138997098   121.23324274     5.06949086
 H     13   3   2     1.828781324879   107.60995447    42.64955517
 C     35  33  21     2.926158808886   103.60898178   197.04200286
 H     35  33  21     2.069309153465   112.02509641    74.99999267
 H     35  33  21     2.070591261190   110.83698105   315.42486177
 C     30  27  24     2.935753976804   116.15256752   166.26487170
 H     37  35  33     2.068673465435   111.95556669   249.25375570
 H     37  35  33     2.071572384784   110.93902904   130.68647716
 H     40  30  27     2.083830072313   106.49308412   320.89464329
 C     40  30  27     2.914829288957   118.90039986    81.70123273
 C     30  27  24     2.901501194067   111.06217856   294.08821720
 H     45  30  27     2.068682176773   111.62503744   186.49434381
 H     45  30  27     2.068003759027   111.49526964    66.45224917
 H     45  30  27     2.070452346868   110.64919923   306.34111742
 H     44  40  30     2.078681387737   108.33468388    60.80549016
 C     44  40  30     2.902427948239   113.44702053   299.87247299
 C     44  40  30     2.847037961741   109.11818922   178.10647418
 C     51  44  40     2.518230253320   124.51085609   239.94939304
 H     51  44  40     2.058508842291   114.60147464    60.35762232
 H     52  51  44     2.069091664160   116.71958726     0.10666168
 C     52  51  44     2.851521561452   130.48860124   181.05112798
 C     55  52  51     2.910133351290   108.68288092   120.41092629
 C     55  52  51     2.921299157783   119.02178386   351.23273710
 H     55  52  51     2.085862623517   105.37427226   233.74710845
 H     57  55  52     2.081650148650   104.09150886   185.23645320
 C     57  55  52     2.897807662408   115.11194125    69.46680183
 C     57  55  52     2.897039183961   112.71950731   300.01403519
 H     56  55  52     2.069186811071   111.11905057   298.00471216
 H     56  55  52     2.071568078496   110.77553873   177.45370160
 H     56  55  52     2.069825171755   110.72018956    57.49338628
 H     60  57  55     2.068195366853   111.62655599    56.51722276
 H     60  57  55     2.066846959807   112.50062179   295.27290574
 H     60  57  55     2.071187045633   109.74035748   175.58844530
 H     61  57  55     2.071677948046   110.94347758   313.02196271
 H     61  57  55     2.070890741159   110.26770452   193.47985473
 H     61  57  55     2.066625367549   112.26544923    73.52954898
 H     50  44  40     2.065327127343   111.90128214    67.26696292
 H     50  44  40     2.073151123925   110.70749160   306.58771526
 H     50  44  40     2.069828874414   110.15042111   187.25301919

---------------------
BASIS SET INFORMATION
---------------------
There are 3 groups of distinct atoms

 Group   1 Type C   : 7s4p contracted to 4s3p pattern {4111/211}
 Group   2 Type H   : 5s contracted to 3s pattern {311}
 Group   3 Type O   : 7s4p contracted to 4s3p pattern {4111/211}

Atom   0C    basis set group =>   1
Atom   1C    basis set group =>   1
Atom   2C    basis set group =>   1
Atom   3H    basis set group =>   2
Atom   4H    basis set group =>   2
Atom   5C    basis set group =>   1
Atom   6C    basis set group =>   1
Atom   7C    basis set group =>   1
Atom   8H    basis set group =>   2
Atom   9H    basis set group =>   2
Atom  10H    basis set group =>   2
Atom  11H    basis set group =>   2
Atom  12O    basis set group =>   3
Atom  13H    basis set group =>   2
Atom  14C    basis set group =>   1
Atom  15C    basis set group =>   1
Atom  16H    basis set group =>   2
Atom  17H    basis set group =>   2
Atom  18C    basis set group =>   1
Atom  19H    basis set group =>   2
Atom  20C    basis set group =>   1
Atom  21H    basis set group =>   2
Atom  22C    basis set group =>   1
Atom  23C    basis set group =>   1
Atom  24H    basis set group =>   2
Atom  25H    basis set group =>   2
Atom  26C    basis set group =>   1
Atom  27H    basis set group =>   2
Atom  28H    basis set group =>   2
Atom  29C    basis set group =>   1
Atom  30H    basis set group =>   2
Atom  31H    basis set group =>   2
Atom  32C    basis set group =>   1
Atom  33H    basis set group =>   2
Atom  34C    basis set group =>   1
Atom  35H    basis set group =>   2
Atom  36C    basis set group =>   1
Atom  37H    basis set group =>   2
Atom  38H    basis set group =>   2
Atom  39C    basis set group =>   1
Atom  40H    basis set group =>   2
Atom  41H    basis set group =>   2
Atom  42H    basis set group =>   2
Atom  43C    basis set group =>   1
Atom  44C    basis set group =>   1
Atom  45H    basis set group =>   2
Atom  46H    basis set group =>   2
Atom  47H    basis set group =>   2
Atom  48H    basis set group =>   2
Atom  49C    basis set group =>   1
Atom  50C    basis set group =>   1
Atom  51C    basis set group =>   1
Atom  52H    basis set group =>   2
Atom  53H    basis set group =>   2
Atom  54C    basis set group =>   1
Atom  55C    basis set group =>   1
Atom  56C    basis set group =>   1
Atom  57H    basis set group =>   2
Atom  58H    basis set group =>   2
Atom  59C    basis set group =>   1
Atom  60C    basis set group =>   1
Atom  61H    basis set group =>   2
Atom  62H    basis set group =>   2
Atom  63H    basis set group =>   2
Atom  64H    basis set group =>   2
Atom  65H    basis set group =>   2
Atom  66H    basis set group =>   2
Atom  67H    basis set group =>   2
Atom  68H    basis set group =>   2
Atom  69H    basis set group =>   2
Atom  70H    basis set group =>   2
Atom  71H    basis set group =>   2
Atom  72H    basis set group =>   2

-------------------------
BASIS SET IN INPUT FORMAT
-------------------------

 # Basis set for element : H 
 NewGTO H 
 S 3 
   1    1357.7500000000      0.0012928364
   2      54.3100000000      0.0588280685
   3       4.3448000000      0.9761499708
 S 1 
   1       0.6604910000      1.0000000000
 S 1 
   1       0.1366870000      1.0000000000
  end;

 # Basis set for element : C 
 NewGTO C 
 S 4 
   1  139534.0000000000      0.0001655246
   2    5581.3600000000      0.0074486101
   3     446.5090000000      0.1285821065
   4      67.4620000000      0.9218029311
 S 1 
   1      15.0674000000      1.0000000000
 S 1 
   1       3.9387600000      1.0000000000
 S 1 
   1       0.2999150000      1.0000000000
 P 2 
   1      28.3900000000      0.0816325586
   2       4.3676900000      0.9660360576
 P 1 
   1       0.8698170000      1.0000000000
 P 1 
   1       0.1889340000      1.0000000000
  end;

 # Basis set for element : O 
 NewGTO O 
 S 4 
   1  253789.0000000000      0.0001641076
   2   10151.6000000000      0.0074010921
   3     812.1250000000      0.1277711901
   4     122.6930000000      0.9223372164
 S 1 
   1      27.5608000000      1.0000000000
 S 1 
   1       7.3172600000      1.0000000000
 S 1 
   1       0.5792400000      1.0000000000
 P 2 
   1      53.4157000000      0.0793786106
   2       8.2177900000      0.9670506337
 P 1 
   1       1.6754400000      1.0000000000
 P 1 
   1       0.3506720000      1.0000000000
  end;

---------------------------------
AUXILIARY/J BASIS SET INFORMATION
---------------------------------
There are 3 groups of distinct atoms

 Group   1 Type C   : 12s5p4d2f1g contracted to 6s4p3d1f1g pattern {711111/2111/211/2/1}
 Group   2 Type H   : 5s2p1d contracted to 3s1p1d pattern {311/2/1}
 Group   3 Type O   : 12s5p4d2f1g contracted to 6s4p3d1f1g pattern {711111/2111/211/2/1}

Atom   0C    basis set group =>   1
Atom   1C    basis set group =>   1
Atom   2C    basis set group =>   1
Atom   3H    basis set group =>   2
Atom   4H    basis set group =>   2
Atom   5C    basis set group =>   1
Atom   6C    basis set group =>   1
Atom   7C    basis set group =>   1
Atom   8H    basis set group =>   2
Atom   9H    basis set group =>   2
Atom  10H    basis set group =>   2
Atom  11H    basis set group =>   2
Atom  12O    basis set group =>   3
Atom  13H    basis set group =>   2
Atom  14C    basis set group =>   1
Atom  15C    basis set group =>   1
Atom  16H    basis set group =>   2
Atom  17H    basis set group =>   2
Atom  18C    basis set group =>   1
Atom  19H    basis set group =>   2
Atom  20C    basis set group =>   1
Atom  21H    basis set group =>   2
Atom  22C    basis set group =>   1
Atom  23C    basis set group =>   1
Atom  24H    basis set group =>   2
Atom  25H    basis set group =>   2
Atom  26C    basis set group =>   1
Atom  27H    basis set group =>   2
Atom  28H    basis set group =>   2
Atom  29C    basis set group =>   1
Atom  30H    basis set group =>   2
Atom  31H    basis set group =>   2
Atom  32C    basis set group =>   1
Atom  33H    basis set group =>   2
Atom  34C    basis set group =>   1
Atom  35H    basis set group =>   2
Atom  36C    basis set group =>   1
Atom  37H    basis set group =>   2
Atom  38H    basis set group =>   2
Atom  39C    basis set group =>   1
Atom  40H    basis set group =>   2
Atom  41H    basis set group =>   2
Atom  42H    basis set group =>   2
Atom  43C    basis set group =>   1
Atom  44C    basis set group =>   1
Atom  45H    basis set group =>   2
Atom  46H    basis set group =>   2
Atom  47H    basis set group =>   2
Atom  48H    basis set group =>   2
Atom  49C    basis set group =>   1
Atom  50C    basis set group =>   1
Atom  51C    basis set group =>   1
Atom  52H    basis set group =>   2
Atom  53H    basis set group =>   2
Atom  54C    basis set group =>   1
Atom  55C    basis set group =>   1
Atom  56C    basis set group =>   1
Atom  57H    basis set group =>   2
Atom  58H    basis set group =>   2
Atom  59C    basis set group =>   1
Atom  60C    basis set group =>   1
Atom  61H    basis set group =>   2
Atom  62H    basis set group =>   2
Atom  63H    basis set group =>   2
Atom  64H    basis set group =>   2
Atom  65H    basis set group =>   2
Atom  66H    basis set group =>   2
Atom  67H    basis set group =>   2
Atom  68H    basis set group =>   2
Atom  69H    basis set group =>   2
Atom  70H    basis set group =>   2
Atom  71H    basis set group =>   2
Atom  72H    basis set group =>   2

-------------------------------------
AUXILIARY/J BASIS SET IN INPUT FORMAT
-------------------------------------

 # Auxiliary/J basis set for element : H 
 NewAuxJGTO H 
 S 3 
   1      15.6752927000      0.1007184237
   2       3.6063578000      0.3404257499
   3       1.2080016000      0.6491996172
 S 1 
   1       0.4726794000      1.0000000000
 S 1 
   1       0.2018100000      1.0000000000
 P 2 
   1       2.0281365000      0.5596620919
   2       0.5358730000      0.5596620919
 D 1 
   1       2.2165124000      1.0000000000
  end;

 # Auxiliary/J basis set for element : C 
 NewAuxJGTO C 
 S 7 
   1    1861.0916331000      0.0134602335
   2     642.9939764000      0.0299160374
   3     235.1105725000      0.1008649584
   4      90.7028894000      0.2370970548
   5      36.7794552000      0.3924037254
   6      15.6046273000      0.3195862154
   7       6.8907294000      0.0530104441
 S 1 
   1       3.1478850000     -1.0000000000
 S 1 
   1       1.4777287000      1.0000000000
 S 1 
   1       0.7076466000      1.0000000000
 S 1 
   1       0.3430122000      1.0000000000
 S 1 
   1       0.1669453000      1.0000000000
 P 2 
   1      13.5472892000     -0.6769313712
   2       5.4669419000     -0.3779500978
 P 1 
   1       2.1751721000      1.0000000000
 P 1 
   1       0.8582194000      1.0000000000
 P 1 
   1       0.3376720000      1.0000000000
 D 2 
   1       5.9287253000     -0.3533329857
   2       1.9809209000     -0.7456525731
 D 1 
   1       0.8055417000     -1.0000000000
 D 1 
   1       0.3531244000     -1.0000000000
 F 2 
   1       1.6755626000      0.6311076882
   2       0.5997536000      0.4968166032
 G 1 
   1       1.0024600000     -1.0000000000
  end;

 # Auxiliary/J basis set for element : O 
 NewAuxJGTO O 
 S 7 
   1    2876.8216605000      0.0168151159
   2    1004.7443032000      0.0340137548
   3     369.7579954000      0.1194951309
   4     142.9442404000      0.2664627624
   5      57.8366425000      0.4202764046
   6      24.3864983000      0.2765077335
   7      10.6622662000      0.0057008815
 S 1 
   1       4.8070437000     -1.0000000000
 S 1 
   1       2.2210770000      1.0000000000
 S 1 
   1       1.0447795000      1.0000000000
 S 1 
   1       0.4968425000      1.0000000000
 S 1 
   1       0.2371384000      1.0000000000
 P 2 
   1      64.2613382000     -0.2731534179
   2      16.3006076000     -0.8168011598
 P 1 
   1       4.3550542000      1.0000000000
 P 1 
   1       1.2019554000      1.0000000000
 P 1 
   1       0.3354196000      1.0000000000
 D 2 
   1       9.2146611000     -0.4661230638
   2       2.8435251000     -0.6600908911
 D 1 
   1       0.9955759000     -1.0000000000
 D 1 
   1       0.3649441000     -1.0000000000
 F 2 
   1       2.6420115000      0.5931563945
   2       0.7345613000      0.5931563945
 G 1 
   1       1.3931000000     -1.0000000000
  end;



           ************************************************************
           *        Program running with 4 parallel MPI-processes     *
           *              working on a common directory               *
           ************************************************************
------------------------------------------------------------------------------
                           ORCA GTO INTEGRAL CALCULATION
                           -- RI-GTO INTEGRALS CHOSEN --
------------------------------------------------------------------------------
------------------------------------------------------------------------------
                   ___                                                        
                  /   \      - P O W E R E D   B Y -                         
                 /     \                                                     
                 |  |  |   _    _      __       _____    __    __             
                 |  |  |  | |  | |    /  \     |  _  \  |  |  /  |          
                  \  \/   | |  | |   /    \    | | | |  |  | /  /          
                 / \  \   | |__| |  /  /\  \   | |_| |  |  |/  /          
                |  |  |   |  __  | /  /__\  \  |    /   |      \           
                |  |  |   | |  | | |   __   |  |    \   |  |\   \          
                \     /   | |  | | |  |  |  |  | |\  \  |  | \   \       
                 \___/    |_|  |_| |__|  |__|  |_| \__\ |__|  \__/        
                                                                              
                      - O R C A' S   B I G   F R I E N D -                    
                                      &                                       
                       - I N T E G R A L  F E E D E R -                       
                                                                              
 v1 FN, 2020, v2 2021                                                         
------------------------------------------------------------------------------


Reading SHARK input file inpJ.SHARKINP.tmp ... ok
----------------------
SHARK INTEGRAL PACKAGE
----------------------

Number of atoms                             ...     73
Number of basis functions                   ...    509
Number of shells                            ...    335
Maximum angular momentum                    ...      1
Integral batch strategy                     ... SHARK/LIBINT Hybrid
RI-J (if used) integral strategy            ... SPLIT-RIJ (Revised 2003 algorithm where possible)
Printlevel                                  ...      1
Contraction scheme used                     ... SEGMENTED contraction
Coulomb Range Separation                    ... NOT USED
Exchange Range Separation                   ... NOT USED
Finite Nucleus Model                        ... NOT USED
Auxiliary Coulomb fitting basis             ... AVAILABLE
   # of basis functions in Aux-J            ...   1905
   # of shells in Aux-J                     ...    655
   Maximum angular momentum in Aux-J        ...      4
Auxiliary J/K fitting basis                 ... NOT available
Auxiliary Correlation fitting basis         ... NOT available
Auxiliary 'external' fitting basis          ... NOT available
Integral threshold                          ...     3.000000e-11
Primitive cut-off                           ...     1.000000e-12
Primitive pair pre-selection threshold      ...     1.000000e-12

Calculating pre-screening integrals         ... done (  0.0 sec) Dimension = 335
Organizing shell pair data                  ... done (  0.1 sec)
Shell pair information
Total number of shell pairs                 ...     56280
Shell pairs after pre-screening             ...     22061
Total number of primitive shell pairs       ...    145865
Primitive shell pairs kept                  ...     37880
          la=0 lb=0:  11093 shell pairs
          la=1 lb=0:   9082 shell pairs
          la=1 lb=1:   1886 shell pairs

Calculating one electron integrals          ... done (  0.0 sec)
Calculating RI/J V-Matrix + Cholesky decomp.... done (  0.2 sec)
Calculating Nuclear repulsion               ... done (  0.0 sec) ENN=   2798.406840549321 Eh

SHARK setup successfully completed in   0.5 seconds

Maximum memory used throughout the entire GTOINT-calculation: 46.4 MB


           ************************************************************
           *        Program running with 4 parallel MPI-processes     *
           *              working on a common directory               *
           ************************************************************
-------------------------------------------------------------------------------
                                 ORCA SCF
-------------------------------------------------------------------------------

------------
SCF SETTINGS
------------
Hamiltonian:
 Density Functional     Method          .... DFT(GTOs)
 Exchange Functional    Exchange        .... PBE
   PBE kappa parameter   XKappa         ....  0.804000
   PBE mue parameter    XMuePBE         ....  0.219520
 Correlation Functional Correlation     .... PBE
   PBE beta parameter  CBetaPBE         ....  0.066725
 LDA part of GGA corr.  LDAOpt          .... PW91-LDA
 Gradients option       PostSCFGGA      .... off
 Hybrid DFT is turned on
   Fraction HF Exchange ScalHFX         ....  0.250000
   Scaling of DF-GGA-X  ScalDFX         ....  0.750000
   Scaling of DF-GGA-C  ScalDFC         ....  1.000000
   Scaling of DF-LDA-C  ScalLDAC        ....  1.000000
   Perturbative correction              ....  0.000000
   Density functional embedding theory  .... OFF
   NL short-range parameter             ....  6.900000
 RI-approximation to the Coulomb term is turned on
   Number of AuxJ basis functions       .... 1905
   RIJ-COSX (HFX calculated with COS-X)).... on


General Settings:
 Integral files         IntName         .... inpJ
 Hartree-Fock type      HFTyp           .... RHF
 Total Charge           Charge          ....    0
 Multiplicity           Mult            ....    1
 Number of Electrons    NEL             ....  220
 Basis Dimension        Dim             ....  509
 Nuclear Repulsion      ENuc            ....   2798.4068405493 Eh

Convergence Acceleration:
 DIIS                   CNVDIIS         .... on
   Start iteration      DIISMaxIt       ....    12
   Startup error        DIISStart       ....  0.200000
   # of expansion vecs  DIISMaxEq       ....     5
   Bias factor          DIISBfac        ....   1.050
   Max. coefficient     DIISMaxC        ....  10.000
 Trust-Rad. Augm. Hess. CNVTRAH         .... auto
   Auto Start mean grad. ratio tolernc. ....  1.125000
   Auto Start start iteration           ....    20
   Auto Start num. interpolation iter.  ....    10
   Max. Number of Micro iterations      ....    16
   Max. Number of Macro iterations      .... Maxiter - #DIIS iter
   Number of Davidson start vectors     ....     2
   Converg. threshold I  (grad. norm)   ....   1.000e-04
   Converg. threshold II (energy diff.) ....   1.000e-07
   Grad. Scal. Fac. for Micro threshold ....   0.100
   Minimum threshold for Micro iter.    ....   0.010
   NR start threshold (gradient norm)   ....   0.001
   Initial trust radius                 ....   0.400
   Minimum AH scaling param. (alpha)    ....   1.000
   Maximum AH scaling param. (alpha)    .... 1000.000
   Orbital update algorithm             .... Taylor
   White noise on init. David. guess    .... on
   Maximum white noise                  ....   0.010
   Quad. conv. algorithm                .... NR
 SOSCF                  CNVSOSCF        .... off
 Level Shifting         CNVShift        .... on
   Level shift para.    LevelShift      ....    0.2500
   Turn off err/grad.   ShiftErr        ....    0.0010
 Zerner damping         CNVZerner       .... off
 Static damping         CNVDamp         .... on
   Fraction old density DampFac         ....    0.7000
   Max. Damping (<1)    DampMax         ....    0.9800
   Min. Damping (>=0)   DampMin         ....    0.0000
   Turn off err/grad.   DampErr         ....    0.1000
 Fernandez-Rico         CNVRico         .... off

SCF Procedure:
 Maximum # iterations   MaxIter         ....   125
 SCF integral mode      SCFMode         .... Direct
   Integral package                     .... SHARK and LIBINT hybrid scheme
 Reset frequency        DirectResetFreq ....    20
 Integral Threshold     Thresh          ....  3.000e-11 Eh
 Primitive CutOff       TCut            ....  1.000e-12 Eh

Convergence Tolerance:
 Convergence Check Mode ConvCheckMode   .... Total+1el-Energy
 Convergence forced     ConvForced      .... 0
 Energy Change          TolE            ....  1.000e-07 Eh
 1-El. energy change                    ....  1.000e-04 Eh
 DIIS Error             TolErr          ....  1.000e-07


Diagonalization of the overlap matrix:
Smallest eigenvalue                        ... 7.572e-03
Time for diagonalization                   ...    0.047 sec
Threshold for overlap eigenvalues          ... 1.000e-08
Number of eigenvalues below threshold      ... 0
Time for construction of square roots      ...    0.031 sec
Total time needed                          ...    0.080 sec

Time for model grid setup =    0.805 sec

------------------------------
INITIAL GUESS: MODEL POTENTIAL
------------------------------
Loading Hartree-Fock densities                     ... done
Calculating cut-offs                               ... done
Initializing the effective Hamiltonian             ... done
Setting up the integral package (SHARK)            ... done
Starting the Coulomb interaction                   ... done (   0.4 sec)
Reading the grid                                   ... done
Mapping shells                                     ... done
Starting the XC term evaluation                    ... done (   0.2 sec)
  promolecular density results
     # of electrons  =    219.985910240
     EX              =   -164.429818593
     EC              =     -7.326024555
     EX+EC           =   -171.755843148
Transforming the Hamiltonian                       ... done (   0.0 sec)
Diagonalizing the Hamiltonian                      ... done (   0.0 sec)
Back transforming the eigenvectors                 ... done (   0.0 sec)
Now organizing SCF variables                       ... done
                      ------------------
                      INITIAL GUESS DONE (   1.4 sec)
                      ------------------
-------------------
DFT GRID GENERATION
-------------------

General Integration Accuracy     IntAcc      ... 4.388
Radial Grid Type                 RadialGrid  ... OptM3 with GC (2021)
Angular Grid (max. ang.)         AngularGrid ... 4 (Lebedev-302)
Angular grid pruning method      GridPruning ... 4 (adaptive)
Weight generation scheme         WeightScheme... Becke
Basis function cutoff            BFCut       ... 1.0000e-11
Integration weight cutoff        WCut        ... 1.0000e-14
Angular grids for H and He will be reduced by one unit
Partially contracted basis set               ... off
Rotationally invariant grid construction     ... off

Total number of grid points                  ...   309840
Total number of batches                      ...     4877
Average number of points per batch           ...       63
Average number of grid points per atom       ...     4244
Time for grid setup =    3.040 sec

--------------------
COSX GRID GENERATION
--------------------

GRIDX 1
-------
General Integration Accuracy     IntAcc      ... 3.816
Radial Grid Type                 RadialGrid  ... OptM3 with GC (2021)
Angular Grid (max. ang.)         AngularGrid ... 1 (Lebedev-50)
Angular grid pruning method      GridPruning ... 4 (adaptive)
Weight generation scheme         WeightScheme... Becke
Basis function cutoff            BFCut       ... 1.0000e-11
Integration weight cutoff        WCut        ... 1.0000e-14
Angular grids for H and He will be reduced by one unit
Partially contracted basis set               ... on
Rotationally invariant grid construction     ... off

Total number of grid points                  ...    39387
Total number of batches                      ...      657
Average number of points per batch           ...       59
Average number of grid points per atom       ...      540
UseSFitting                                  ... on

GRIDX 2
-------
General Integration Accuracy     IntAcc      ... 4.020
Radial Grid Type                 RadialGrid  ... OptM3 with GC (2021)
Angular Grid (max. ang.)         AngularGrid ... 2 (Lebedev-110)
Angular grid pruning method      GridPruning ... 4 (adaptive)
Weight generation scheme         WeightScheme... Becke
Basis function cutoff            BFCut       ... 1.0000e-11
Integration weight cutoff        WCut        ... 1.0000e-14
Angular grids for H and He will be reduced by one unit
Partially contracted basis set               ... on
Rotationally invariant grid construction     ... off

Total number of grid points                  ...    81329
Total number of batches                      ...     1308
Average number of points per batch           ...       62
Average number of grid points per atom       ...     1114
UseSFitting                                  ... on

GRIDX 3
-------
General Integration Accuracy     IntAcc      ... 4.338
Radial Grid Type                 RadialGrid  ... OptM3 with GC (2021)
Angular Grid (max. ang.)         AngularGrid ... 3 (Lebedev-194)
Angular grid pruning method      GridPruning ... 4 (adaptive)
Weight generation scheme         WeightScheme... Becke
Basis function cutoff            BFCut       ... 1.0000e-11
Integration weight cutoff        WCut        ... 1.0000e-14
Angular grids for H and He will be reduced by one unit
Partially contracted basis set               ... on
Rotationally invariant grid construction     ... off

Total number of grid points                  ...   176126
Total number of batches                      ...     2787
Average number of points per batch           ...       63
Average number of grid points per atom       ...     2413
UseSFitting                                  ... on

Time for X-Grid setup             =    2.738 sec


--------------------
CPCM SOLVATION MODEL
--------------------
CPCM parameters:
  Epsilon                                         ...       4.9000
  Refrac                                          ...       1.4500
  Rsolv                                           ...       1.3000
  Surface type                                    ... GAUSSIAN VDW
  Epsilon function type                           ...         CPCM
Radii:
 Radius for C  used is    3.8550 Bohr (=   2.0400 Ang.)
 Radius for H  used is    2.4944 Bohr (=   1.3200 Ang.)
 Radius for O  used is    3.4469 Bohr (=   1.8240 Ang.)
Calculating surface                               ...        done! (  0.0s)
GEPOL surface points                              ...         3619
GEPOL Volume                                      ...    3604.7397
GEPOL Surface-area                                ...    1778.9147
Calculating surface distance matrix               ...        done! (  0.1s)
Performing Cholesky decomposition & store         ...        done! (  0.5s)
Overall time for CPCM initialization              ...                 0.6s
--------------
SCF ITERATIONS
--------------
ITER       Energy         Delta-E        Max-DP      RMS-DP      [F,P]     Damp
               ***  Starting incremental Fock matrix formation  ***

  HOMO= 109 E= -3.970 eV LUMO=  7.706 eV gap=  11.675 eV
  0  -1165.0060565591   0.000000000000 0.09750445  0.00106556  0.1967237 0.7000

  HOMO= 109 E= -4.837 eV LUMO=  7.021 eV gap=  11.858 eV
  1  -1165.2250584155  -0.219001856394 0.06536951  0.00078423  0.0952621 0.7000
                               ***Turning on DIIS***

  HOMO= 109 E= -5.437 eV LUMO=  6.472 eV gap=  11.909 eV
  2  -1165.3259181569  -0.100859741410 0.10333659  0.00138714  0.0375594 0.0000

  HOMO= 109 E= -5.996 eV LUMO=  5.941 eV gap=  11.937 eV
  3  -1165.4702372649  -0.144319107937 0.05162273  0.00057397  0.0460773 0.0000

  HOMO= 109 E= -6.065 eV LUMO=  5.871 eV gap=  11.935 eV
  4  -1165.5058352891  -0.035598024210 0.01165939  0.00013347  0.0058667 0.0000

  HOMO= 109 E= -6.014 eV LUMO=  5.929 eV gap=  11.943 eV
  5  -1165.5066838813  -0.000848592244 0.00250964  0.00003780  0.0051404 0.0000

  HOMO= 109 E= -6.000 eV LUMO=  5.943 eV gap=  11.943 eV
  6  -1165.5067629486  -0.000079067270 0.00117223  0.00001164  0.0010706 0.0000

  HOMO= 109 E= -6.002 eV LUMO= -0.862 eV gap=   5.140 eV
  7  -1165.5067681926  -0.000005243987 0.00051368  0.00000605  0.0002350 0.0000
               *** Restarting incremental Fock matrix formation ***
                                   *** Resetting DIIS ***

  HOMO= 109 E= -6.001 eV LUMO= -0.860 eV gap=   5.141 eV
  8  -1165.5067846976  -0.000016505035 0.00035709  0.00000287  0.0001160 0.0000

  HOMO= 109 E= -6.002 eV LUMO= -0.860 eV gap=   5.141 eV
  9  -1165.5067847441  -0.000000046502 0.00013390  0.00000129  0.0001579 0.0000

  HOMO= 109 E= -6.002 eV LUMO= -0.860 eV gap=   5.141 eV
 10  -1165.5067848862  -0.000000142095 0.00006414  0.00000040  0.0000328 0.0000

  HOMO= 109 E= -6.002 eV LUMO= -0.860 eV gap=   5.141 eV
 11  -1165.5067849163  -0.000000030107 0.00002598  0.00000018  0.0000193 0.0000

  HOMO= 109 E= -6.002 eV LUMO= -0.860 eV gap=   5.141 eV
 12  -1165.5067849103   0.000000005963 0.00000730  0.00000005  0.0000035 0.0000
                 **** Energy Check signals convergence ****

               *****************************************************
               *                     SUCCESS                       *
               *           SCF CONVERGED AFTER  13 CYCLES          *
               *****************************************************

Old exchange energy                            =    -42.066832036 Eh
New exchange energy                            =    -42.066834446 Eh
Exchange energy change after final integration =     -0.000002410 Eh
Total energy after final integration           =  -1165.506787318 Eh
Final COS-X integration done in                =    13.923 sec

----------------
TOTAL SCF ENERGY
----------------

Total Energy       :        -1165.50678732 Eh          -31715.05205 eV

Components:
Nuclear Repulsion  :         2798.40684055 Eh           76148.52145 eV
Electronic Energy  :        -3963.91362787 Eh         -107863.57349 eV
One Electron Energy:        -7138.61659396 Eh         -194251.63308 eV
Two Electron Energy:         3174.70296609 Eh           86388.05959 eV
Max COSX asymmetry :            0.00000297 Eh               0.00008 eV
CPCM Dielectric    :           -0.01376087 Eh              -0.37445 eV

Virial components:
Potential Energy   :        -2322.39889134 Eh          -63195.68664 eV
Kinetic Energy     :         1156.89210402 Eh           31480.63459 eV
Virial Ratio       :            2.00744640


DFT components:
N(Alpha)           :      110.000140609627 electrons
N(Beta)            :      110.000140609627 electrons
N(Total)           :      220.000281219254 electrons
E(X)               :     -125.744060175620 Eh       
E(C)               :       -7.326939547341 Eh       
E(XC)              :     -133.070999722961 Eh       
DFET-embed. en.    :        0.000000000000 Eh       
CPCM Solvation Model Properties:
Surface-charge          :           -0.03436754
Charge-correction       :           -0.00009169 Eh              -0.00249 eV
Free-energy (cav+disp)  :  This term is not implemented in the current solvation scheme

---------------
SCF CONVERGENCE
---------------

  Last Energy change         ...    1.9968e-09  Tolerance :   1.0000e-07
  Last MAX-Density change    ...    0.0000e+00  Tolerance :   1.0000e-05
  Last RMS-Density change    ...    0.0000e+00  Tolerance :   1.0000e-06
  Last DIIS Error            ...    2.3442e-06  Tolerance :   1.0000e-07

             **** THE GBW FILE WAS UPDATED (inpJ.gbw) ****
             **** DENSITY inpJ.scfp WAS UPDATED ****
             **** ENERGY FILE WAS UPDATED (inpJ.en.tmp) ****
             **** THE GBW FILE WAS UPDATED (inpJ.gbw) ****
             **** DENSITY inpJ.scfp WAS UPDATED ****
----------------
ORBITAL ENERGIES
----------------

  NO   OCC          E(Eh)            E(eV) 
   0   2.0000     -19.212420      -522.7965 
   1   2.0000     -10.300357      -280.2870 
   2   2.0000     -10.270309      -279.4693 
   3   2.0000     -10.268104      -279.4093 
   4   2.0000     -10.263483      -279.2836 
   5   2.0000     -10.257279      -279.1147 
   6   2.0000     -10.256858      -279.1033 
   7   2.0000     -10.252837      -278.9939 
   8   2.0000     -10.249523      -278.9037 
   9   2.0000     -10.249263      -278.8966 
  10   2.0000     -10.248019      -278.8628 
  11   2.0000     -10.247487      -278.8483 
  12   2.0000     -10.246048      -278.8091 
  13   2.0000     -10.245230      -278.7869 
  14   2.0000     -10.244852      -278.7766 
  15   2.0000     -10.244439      -278.7654 
  16   2.0000     -10.242713      -278.7184 
  17   2.0000     -10.241953      -278.6977 
  18   2.0000     -10.241688      -278.6905 
  19   2.0000     -10.241300      -278.6800 
  20   2.0000     -10.240024      -278.6452 
  21   2.0000     -10.234268      -278.4886 
  22   2.0000     -10.234117      -278.4845 
  23   2.0000     -10.232562      -278.4422 
  24   2.0000     -10.227784      -278.3121 
  25   2.0000     -10.225774      -278.2574 
  26   2.0000     -10.223323      -278.1908 
  27   2.0000     -10.223123      -278.1853 
  28   2.0000     -10.220703      -278.1195 
  29   2.0000      -1.043170       -28.3861 
  30   2.0000      -0.901249       -24.5242 
  31   2.0000      -0.881973       -23.9997 
  32   2.0000      -0.858991       -23.3743 
  33   2.0000      -0.845575       -23.0093 
  34   2.0000      -0.822176       -22.3725 
  35   2.0000      -0.813886       -22.1470 
  36   2.0000      -0.795699       -21.6521 
  37   2.0000      -0.794849       -21.6289 
  38   2.0000      -0.776840       -21.1389 
  39   2.0000      -0.758275       -20.6337 
  40   2.0000      -0.742679       -20.2093 
  41   2.0000      -0.736607       -20.0441 
  42   2.0000      -0.714861       -19.4524 
  43   2.0000      -0.703554       -19.1447 
  44   2.0000      -0.702672       -19.1207 
  45   2.0000      -0.695273       -18.9193 
  46   2.0000      -0.670578       -18.2473 
  47   2.0000      -0.657323       -17.8867 
  48   2.0000      -0.632111       -17.2006 
  49   2.0000      -0.622036       -16.9265 
  50   2.0000      -0.612554       -16.6684 
  51   2.0000      -0.606811       -16.5122 
  52   2.0000      -0.596597       -16.2342 
  53   2.0000      -0.587356       -15.9828 
  54   2.0000      -0.560840       -15.2612 
  55   2.0000      -0.548054       -14.9133 
  56   2.0000      -0.539538       -14.6816 
  57   2.0000      -0.529298       -14.4029 
  58   2.0000      -0.515185       -14.0189 
  59   2.0000      -0.506989       -13.7959 
  60   2.0000      -0.500732       -13.6256 
  61   2.0000      -0.491756       -13.3814 
  62   2.0000      -0.480951       -13.0873 
  63   2.0000      -0.479897       -13.0587 
  64   2.0000      -0.471384       -12.8270 
  65   2.0000      -0.468026       -12.7356 
  66   2.0000      -0.464606       -12.6426 
  67   2.0000      -0.459208       -12.4957 
  68   2.0000      -0.458269       -12.4701 
  69   2.0000      -0.451516       -12.2864 
  70   2.0000      -0.449628       -12.2350 
  71   2.0000      -0.438140       -11.9224 
  72   2.0000      -0.434772       -11.8307 
  73   2.0000      -0.432156       -11.7596 
  74   2.0000      -0.429461       -11.6862 
  75   2.0000      -0.423825       -11.5329 
  76   2.0000      -0.421012       -11.4563 
  77   2.0000      -0.413017       -11.2388 
  78   2.0000      -0.411250       -11.1907 
  79   2.0000      -0.403727       -10.9860 
  80   2.0000      -0.401313       -10.9203 
  81   2.0000      -0.399029       -10.8581 
  82   2.0000      -0.396217       -10.7816 
  83   2.0000      -0.390201       -10.6179 
  84   2.0000      -0.388755       -10.5786 
  85   2.0000      -0.381156       -10.3718 
  86   2.0000      -0.375626       -10.2213 
  87   2.0000      -0.375197       -10.2096 
  88   2.0000      -0.373498       -10.1634 
  89   2.0000      -0.365151        -9.9363 
  90   2.0000      -0.360490        -9.8094 
  91   2.0000      -0.359070        -9.7708 
  92   2.0000      -0.353205        -9.6112 
  93   2.0000      -0.344979        -9.3873 
  94   2.0000      -0.341132        -9.2827 
  95   2.0000      -0.339843        -9.2476 
  96   2.0000      -0.338722        -9.2171 
  97   2.0000      -0.333737        -9.0814 
  98   2.0000      -0.331107        -9.0099 
  99   2.0000      -0.329033        -8.9534 
 100   2.0000      -0.326899        -8.8954 
 101   2.0000      -0.319142        -8.6843 
 102   2.0000      -0.318576        -8.6689 
 103   2.0000      -0.313130        -8.5207 
 104   2.0000      -0.310573        -8.4511 
 105   2.0000      -0.299604        -8.1526 
 106   2.0000      -0.276609        -7.5269 
 107   2.0000      -0.275076        -7.4852 
 108   2.0000      -0.255856        -6.9622 
 109   2.0000      -0.220561        -6.0018 
 110   0.0000      -0.031618        -0.8604 
 111   0.0000       0.019619         0.5339 
 112   0.0000       0.028324         0.7707 
 113   0.0000       0.079421         2.1611 
 114   0.0000       0.087192         2.3726 
 115   0.0000       0.100587         2.7371 
 116   0.0000       0.103172         2.8074 
 117   0.0000       0.106461         2.8970 
 118   0.0000       0.108848         2.9619 
 119   0.0000       0.115944         3.1550 
 120   0.0000       0.117635         3.2010 
 121   0.0000       0.118077         3.2130 
 122   0.0000       0.125301         3.4096 
 123   0.0000       0.131483         3.5778 
 124   0.0000       0.134172         3.6510 
 125   0.0000       0.136983         3.7275 
 126   0.0000       0.139761         3.8031 
 127   0.0000       0.141350         3.8463 
 128   0.0000       0.146239         3.9794 
 129   0.0000       0.148640         4.0447 
 130   0.0000       0.152873         4.1599 
 131   0.0000       0.156266         4.2522 
 132   0.0000       0.158487         4.3127 
 133   0.0000       0.163162         4.4399 
 134   0.0000       0.165683         4.5085 
 135   0.0000       0.170891         4.6502 
 136   0.0000       0.172963         4.7066 
 137   0.0000       0.174637         4.7521 
 138   0.0000       0.177762         4.8371 
 139   0.0000       0.182089         4.9549 
 140   0.0000       0.183983         5.0064 
 141   0.0000       0.187365         5.0985 
 142   0.0000       0.188250         5.1225 
 143   0.0000       0.189364         5.1529 
 144   0.0000       0.198070         5.3898 
 145   0.0000       0.199600         5.4314 
 146   0.0000       0.203454         5.5363 
 147   0.0000       0.204155         5.5553 
 148   0.0000       0.205347         5.5878 
 149   0.0000       0.210557         5.7295 
 150   0.0000       0.214463         5.8358 
 151   0.0000       0.221277         6.0212 
 152   0.0000       0.222848         6.0640 
 153   0.0000       0.226092         6.1523 
 154   0.0000       0.233016         6.3407 
 155   0.0000       0.235486         6.4079 
 156   0.0000       0.242809         6.6072 
 157   0.0000       0.245701         6.6859 
 158   0.0000       0.248262         6.7556 
 159   0.0000       0.253332         6.8935 
 160   0.0000       0.257259         7.0004 
 161   0.0000       0.259697         7.0667 
 162   0.0000       0.263530         7.1710 
 163   0.0000       0.264118         7.1870 
 164   0.0000       0.266704         7.2574 
 165   0.0000       0.272072         7.4035 
 166   0.0000       0.277267         7.5448 
 167   0.0000       0.282819         7.6959 
 168   0.0000       0.288273         7.8443 
 169   0.0000       0.293298         7.9811 
 170   0.0000       0.298877         8.1328 
 171   0.0000       0.301967         8.2170 
 172   0.0000       0.307768         8.3748 
 173   0.0000       0.310270         8.4429 
 174   0.0000       0.314006         8.5445 
 175   0.0000       0.319734         8.7004 
 176   0.0000       0.324566         8.8319 
 177   0.0000       0.338412         9.2087 
 178   0.0000       0.349349         9.5063 
 179   0.0000       0.360052         9.7975 
 180   0.0000       0.365062         9.9338 
 181   0.0000       0.375828        10.2268 
 182   0.0000       0.379985        10.3399 
 183   0.0000       0.403758        10.9868 
 184   0.0000       0.421334        11.4651 
 185   0.0000       0.462520        12.5858 
 186   0.0000       0.483182        13.1480 
 187   0.0000       0.487665        13.2700 
 188   0.0000       0.514105        13.9895 
 189   0.0000       0.516533        14.0556 
 190   0.0000       0.520520        14.1641 
 191   0.0000       0.534172        14.5356 
 192   0.0000       0.543479        14.7888 
 193   0.0000       0.556759        15.1502 
 194   0.0000       0.568023        15.4567 
 195   0.0000       0.571659        15.5556 
 196   0.0000       0.577711        15.7203 
 197   0.0000       0.582429        15.8487 
 198   0.0000       0.587821        15.9954 
 199   0.0000       0.596020        16.2185 
 200   0.0000       0.607843        16.5402 
 201   0.0000       0.616594        16.7784 
 202   0.0000       0.621772        16.9193 
 203   0.0000       0.629143        17.1198 
 204   0.0000       0.633997        17.2519 
 205   0.0000       0.646621        17.5954 
 206   0.0000       0.657403        17.8889 
 207   0.0000       0.663469        18.0539 
 208   0.0000       0.668752        18.1977 
 209   0.0000       0.670377        18.2419 
 210   0.0000       0.681350        18.5405 
 211   0.0000       0.687253        18.7011 
 212   0.0000       0.688391        18.7321 
 213   0.0000       0.692913        18.8551 
 214   0.0000       0.704615        19.1736 
 215   0.0000       0.710680        19.3386 
 216   0.0000       0.712485        19.3877 
 217   0.0000       0.715522        19.4704 
 218   0.0000       0.719235        19.5714 
 219   0.0000       0.724390        19.7117 
 220   0.0000       0.730917        19.8893 
 221   0.0000       0.732832        19.9414 
 222   0.0000       0.735667        20.0185 
 223   0.0000       0.738753        20.1025 
 224   0.0000       0.746076        20.3018 
 225   0.0000       0.746203        20.3052 
 226   0.0000       0.752949        20.4888 
 227   0.0000       0.758891        20.6505 
 228   0.0000       0.762378        20.7453 
 229   0.0000       0.765052        20.8181 
 230   0.0000       0.771212        20.9857 
 231   0.0000       0.774854        21.0849 
 232   0.0000       0.778930        21.1958 
 233   0.0000       0.779790        21.2192 
 234   0.0000       0.790086        21.4993 
 235   0.0000       0.794319        21.6145 
 236   0.0000       0.799354        21.7515 
 237   0.0000       0.805210        21.9109 
 238   0.0000       0.812232        22.1020 
 239   0.0000       0.814173        22.1548 
 240   0.0000       0.822362        22.3776 
 241   0.0000       0.830341        22.5947 
 242   0.0000       0.840931        22.8829 
 243   0.0000       0.849225        23.1086 
 244   0.0000       0.849704        23.1216 
 245   0.0000       0.854916        23.2634 
 246   0.0000       0.858927        23.3726 
 247   0.0000       0.864042        23.5118 
 248   0.0000       0.866868        23.5887 
 249   0.0000       0.868989        23.6464 
 250   0.0000       0.872343        23.7377 
 251   0.0000       0.873453        23.7679 
 252   0.0000       0.876762        23.8579 
 253   0.0000       0.879310        23.9272 
 254   0.0000       0.882206        24.0060 
 255   0.0000       0.886734        24.1293 
 256   0.0000       0.889166        24.1954 
 257   0.0000       0.892261        24.2797 
 258   0.0000       0.893253        24.3066 
 259   0.0000       0.897417        24.4200 
 260   0.0000       0.900317        24.4989 
 261   0.0000       0.902218        24.5506 
 262   0.0000       0.905173        24.6310 
 263   0.0000       0.910254        24.7693 
 264   0.0000       0.912026        24.8175 
 265   0.0000       0.920199        25.0399 
 266   0.0000       0.924449        25.1555 
 267   0.0000       0.927509        25.2388 
 268   0.0000       0.931907        25.3585 
 269   0.0000       0.937035        25.4980 
 270   0.0000       0.940868        25.6023 
 271   0.0000       0.942761        25.6538 
 272   0.0000       0.947375        25.7794 
 273   0.0000       0.951582        25.8938 
 274   0.0000       0.960106        26.1258 
 275   0.0000       0.965713        26.2784 
 276   0.0000       0.971127        26.4257 
 277   0.0000       0.974354        26.5135 
 278   0.0000       0.978667        26.6309 
 279   0.0000       0.981154        26.6986 
 280   0.0000       0.984830        26.7986 
 281   0.0000       0.997804        27.1516 
 282   0.0000       1.005229        27.3537 
 283   0.0000       1.010134        27.4871 
 284   0.0000       1.015212        27.6253 
 285   0.0000       1.025521        27.9058 
 286   0.0000       1.036926        28.2162 
 287   0.0000       1.049768        28.5656 
 288   0.0000       1.061742        28.8915 
 289   0.0000       1.070037        29.1172 
 290   0.0000       1.070482        29.1293 
 291   0.0000       1.074204        29.2306 
 292   0.0000       1.080992        29.4153 
 293   0.0000       1.088545        29.6208 
 294   0.0000       1.105719        30.0881 
 295   0.0000       1.111955        30.2578 
 296   0.0000       1.127407        30.6783 
 297   0.0000       1.135192        30.8902 
 298   0.0000       1.142345        31.0848 
 299   0.0000       1.154154        31.4061 
 300   0.0000       1.155471        31.4420 
 301   0.0000       1.165147        31.7053 
 302   0.0000       1.187836        32.3227 
 303   0.0000       1.208973        32.8978 
 304   0.0000       1.221991        33.2521 
 305   0.0000       1.233278        33.5592 
 306   0.0000       1.237568        33.6759 
 307   0.0000       1.245418        33.8896 
 308   0.0000       1.269761        34.5520 
 309   0.0000       1.300491        35.3882 
 310   0.0000       1.322245        35.9801 
 311   0.0000       1.334331        36.3090 
 312   0.0000       1.367516        37.2120 
 313   0.0000       1.380569        37.5672 
 314   0.0000       1.410512        38.3820 
 315   0.0000       1.513628        41.1879 
 316   0.0000       1.527380        41.5621 
 317   0.0000       1.569669        42.7129 
 318   0.0000       1.591638        43.3107 
 319   0.0000       1.675037        45.5801 
 320   0.0000       6.202196       168.7703 
 321   0.0000       6.232172       169.5860 
 322   0.0000       6.262971       170.4241 
 323   0.0000       6.269006       170.5883 
 324   0.0000       6.280426       170.8991 
 325   0.0000       6.291138       171.1906 
 326   0.0000       6.298614       171.3940 
 327   0.0000       6.302823       171.5085 
 328   0.0000       6.317149       171.8984 
 329   0.0000       6.339000       172.4929 
 330   0.0000       6.345466       172.6689 
 331   0.0000       6.348447       172.7500 
 332   0.0000       6.358676       173.0284 
 333   0.0000       6.364503       173.1869 
 334   0.0000       6.386507       173.7857 
 335   0.0000       6.394243       173.9962 
 336   0.0000       6.406554       174.3312 
 337   0.0000       6.413795       174.5282 
 338   0.0000       6.418732       174.6626 
 339   0.0000       6.424101       174.8087 
 340   0.0000       6.431307       175.0048 
 341   0.0000       6.443669       175.3411 
 342   0.0000       6.454186       175.6273 
 343   0.0000       6.459195       175.7636 
 344   0.0000       6.467836       175.9988 
 345   0.0000       6.483898       176.4358 
 346   0.0000       6.486702       176.5121 
 347   0.0000       6.501522       176.9154 
 348   0.0000       6.505003       177.0101 
 349   0.0000       6.517467       177.3493 
 350   0.0000       6.524483       177.5402 
 351   0.0000       6.526587       177.5975 
 352   0.0000       6.536752       177.8741 
 353   0.0000       6.548265       178.1874 
 354   0.0000       6.549654       178.2251 
 355   0.0000       6.555243       178.3772 
 356   0.0000       6.563464       178.6009 
 357   0.0000       6.567294       178.7052 
 358   0.0000       6.571666       178.8241 
 359   0.0000       6.575127       178.9183 
 360   0.0000       6.581698       179.0971 
 361   0.0000       6.584296       179.1678 
 362   0.0000       6.588827       179.2911 
 363   0.0000       6.590546       179.3379 
 364   0.0000       6.596852       179.5095 
 365   0.0000       6.602495       179.6630 
 366   0.0000       6.608581       179.8286 
 367   0.0000       6.612249       179.9284 
 368   0.0000       6.615431       180.0150 
 369   0.0000       6.615945       180.0290 
 370   0.0000       6.621520       180.1807 
 371   0.0000       6.627090       180.3323 
 372   0.0000       6.630101       180.4142 
 373   0.0000       6.633215       180.4990 
 374   0.0000       6.634768       180.5412 
[...]
     69 H        0.000      0.000      0.000      0.000     -0.000      0.000
     70 H        0.000      0.000      0.000     -0.000      0.001      0.020
     71 H        0.000      0.000      0.000      0.000      0.001      0.008
     72 H        0.000      0.000      0.000      0.000      0.002      0.034
                 25 H       27 H       28 H       30 H       31 H       33 H  
      3 H        0.074     -0.003      0.002      0.000      0.000      0.091
      4 H        2.265     -0.110      0.070      0.000      0.000      2.550
      8 H        0.115      0.000      0.000      0.000      0.000      0.108
      9 H       -0.258      0.015      0.000      0.000      0.000     -0.309
     10 H        0.000      0.000      0.000      0.000      0.000      0.000
     11 H        0.000      0.000      0.000      0.000      0.000      0.000
     13 H       -0.037      0.000      0.000      0.000      0.000      0.000
     16 H       -0.259      0.014     -0.005     -0.032     -0.002     -0.305
     17 H       -0.243      0.013      0.000      0.000      0.000     -0.304
     19 H        0.925     -0.046      0.079      0.065      0.005      0.976
     21 H       -2.800      0.192      0.666     -0.232     -0.027     -2.373
     24 H      -13.304      4.292      2.383      0.647     -0.494     -0.131
     25 H        0.000     12.974      5.157     -0.633     -0.356     -2.114
     27 H       12.974      0.000    -13.573      4.013     12.986      0.061
     28 H        5.157    -13.573      0.000      2.613      4.140      0.288
     30 H       -0.633      4.013      2.613      0.000    -12.983      0.034
     31 H       -0.356     12.986      4.140    -12.983      0.000     -0.323
     33 H       -2.114      0.061      0.288      0.034     -0.323      0.000
     35 H       -0.026      0.001     -0.001      0.000      0.000     -0.034
     37 H        0.275      0.004     -0.036      0.510     -0.035      6.502
     38 H        0.164      0.001     -0.028     -0.011      0.126     12.190
     40 H       -0.013      0.020      0.145     -0.003     -0.033     -0.249
     41 H        0.009      0.022     -0.025      0.014      0.079     -0.435
     42 H       -0.018      0.013     -0.012     -0.259     -0.373     -0.208
     45 H       -0.060     -0.119     -0.145     -0.148      1.827     -0.477
     46 H       -0.016     -0.222      0.004     -0.210     -0.486     -0.214
     47 H        0.013      0.051      0.064     -0.339      0.023      0.868
     48 H       -0.014      0.030      0.022      0.028      0.009      0.002
     52 H        0.001      0.001      0.001     -0.002      0.001      0.003
     53 H        0.000     -0.000      0.000      0.000     -0.002     -0.003
     57 H        0.000      0.000      0.000     -0.001      0.003      0.006
     58 H        0.000      0.000      0.000      0.000      0.000      0.000
     61 H        0.000      0.000      0.000      0.000      0.000      0.000
     62 H        0.000      0.000      0.000      0.000      0.000      0.000
     63 H        0.000      0.000      0.000      0.000      0.000      0.000
     64 H        0.000      0.000      0.000      0.000      0.000      0.000
     65 H        0.000      0.000      0.000      0.000      0.000      0.000
     66 H        0.000      0.000      0.000      0.000     -0.000     -0.000
     67 H        0.000      0.000      0.000      0.000      0.000      0.000
     68 H        0.000      0.000      0.000      0.000     -0.000     -0.000
     69 H       -0.000      0.000      0.000     -0.000     -0.000     -0.000
     70 H        0.004     -0.010     -0.009     -0.439     -0.072      0.003
     71 H        0.000     -0.000     -0.003      0.078      0.016     -0.002
     72 H        0.000     -0.010     -0.011      0.088     -0.040      0.002
                 35 H       37 H       38 H       40 H       41 H       42 H  
      3 H       -0.267     -0.001     -0.001      0.000      0.000      0.000
      4 H       -0.646     -0.044     -0.014      0.000      0.000      0.000
      8 H       -0.033     -0.002     -0.002      0.000     -0.000      0.000
      9 H       -0.155      0.005      0.002      0.000      0.001      0.000
     10 H       -0.402     -0.000     -0.000      0.000      0.000      0.000
     11 H       -0.143     -0.002     -0.000      0.000      0.000      0.000
     13 H       12.488      0.000      0.000      0.000      0.000      0.000
     16 H       -0.003      0.004      0.003      0.001      0.001     -0.001
     17 H       -0.002      0.005      0.003     -0.000      0.001      0.000
     19 H        0.045     -0.020      0.080      0.014     -0.004      0.003
     21 H       -0.015      0.062     -0.573     -0.012      0.062     -0.023
     24 H       -0.001     -0.058     -0.081     -0.018      0.067     -0.023
     25 H       -0.026      0.275      0.164     -0.013      0.009     -0.018
     27 H        0.001      0.004      0.001      0.020      0.022      0.013
     28 H       -0.001     -0.036     -0.028      0.145     -0.025     -0.012
     30 H        0.000      0.510     -0.011     -0.003      0.014     -0.259
     31 H        0.000     -0.035      0.126     -0.033      0.079     -0.373
     33 H       -0.034      6.502     12.190     -0.249     -0.435     -0.208
     35 H        0.000      0.000     -0.000      0.000      0.000      0.000
     37 H        0.000      0.000    -12.289      9.505      2.656     -0.263
     38 H       -0.000    -12.289      0.000      6.672     11.619     -0.468
     40 H        0.000      9.505      6.672      0.000    -13.966      9.538
     41 H        0.000      2.656     11.619    -13.966      0.000      8.701
     42 H        0.000     -0.263     -0.468      9.538      8.701      0.000
     45 H       -0.000      0.067     -0.057     -0.109     -0.063     -0.082
     46 H        0.000      0.061      0.034     -0.085      0.006      1.125
     47 H        0.000     -0.175      0.012      0.051      0.045     -0.408
     48 H        0.000      0.097     -0.009     -0.201     -0.427     10.291
     52 H        0.000     -0.001      0.003      0.085     -0.016     -0.294
     53 H        0.000      0.003      0.007     -0.118      0.012      0.076
     57 H        0.000     -0.005     -0.003      0.116     -0.014     -0.060
     58 H        0.000      0.001      0.000     -0.003     -0.001      0.001
     61 H        0.000      0.000      0.000     -0.006      0.001      0.002
     62 H        0.000      0.000      0.000      0.028     -0.002     -0.007
     63 H        0.000      0.000      0.000     -0.002      0.000      0.000
     64 H        0.000      0.000      0.000      0.000     -0.000      0.000
     65 H        0.000     -0.000     -0.000      0.002     -0.001     -0.001
     66 H        0.000      0.000      0.000     -0.000     -0.000     -0.001
     67 H        0.000     -0.000     -0.001     -0.004     -0.000      0.002
     68 H        0.000      0.000      0.002     -0.006     -0.003      0.001
     69 H        0.000      0.000      0.002     -0.047     -0.010     -0.001
     70 H        0.000     -0.005      0.004      0.084      0.025     -0.199
     71 H        0.000     -0.020      0.037      0.029     -0.052     -0.347
     72 H        0.000      0.066      0.009     -0.025      0.004     -0.435
                 45 H       46 H       47 H       48 H       52 H       53 H  
      3 H        0.001     -0.000     -0.001      0.000      0.000      0.000
      4 H        0.027     -0.018     -0.019      0.000      0.000      0.000
      8 H        0.001     -0.001      0.000      0.000      0.000      0.000
      9 H       -0.003      0.002      0.000      0.000      0.000      0.000
     10 H        0.000     -0.000      0.000      0.000      0.000      0.000
     11 H        0.000      0.000      0.000      0.000      0.000      0.000
     13 H        0.000      0.000      0.000      0.000      0.000      0.000
     16 H       -0.003      0.000      0.002     -0.002      0.000      0.000
     17 H       -0.004     -0.000      0.001     -0.002      0.000      0.000
     19 H        0.010     -0.010     -0.008      0.005      0.000      0.000
     21 H       -0.019      0.042      0.012     -0.015      0.002     -0.001
     24 H       -0.022     -0.023     -0.015      0.002      0.000      0.000
     25 H       -0.060     -0.016      0.013     -0.014      0.001      0.000
     27 H       -0.119     -0.222      0.051      0.030      0.001     -0.000
     28 H       -0.145      0.004      0.064      0.022      0.001      0.000
     30 H       -0.148     -0.210     -0.339      0.028     -0.002      0.000
     31 H        1.827     -0.486      0.023      0.009      0.001     -0.002
     33 H       -0.477     -0.214      0.868      0.002      0.003     -0.003
     35 H       -0.000      0.000      0.000      0.000      0.000      0.000
     37 H        0.067      0.061     -0.175      0.097     -0.001      0.003
     38 H       -0.057      0.034      0.012     -0.009      0.003      0.007
     40 H       -0.109     -0.085      0.051     -0.201      0.085     -0.118
     41 H       -0.063      0.006      0.045     -0.427     -0.016      0.012
     42 H       -0.082      1.125     -0.408     10.291     -0.294      0.076
     45 H        0.000    -13.583    -13.060     -0.169      0.072     -0.002
     46 H      -13.583      0.000    -12.908     -0.103      0.245     -0.001
     47 H      -13.060    -12.908      0.000     -0.055      0.074     -0.002
     48 H       -0.169     -0.103     -0.055      0.000      9.494     -0.686
     52 H        0.072      0.245      0.074      9.494      0.000     17.376
     53 H       -0.002     -0.001     -0.002     -0.686     17.376      0.000
     57 H        0.002      0.003      0.000      0.104     -2.660      4.854
     58 H        0.000      0.000      0.000      0.001      0.102      1.001
     61 H       -0.000      0.000     -0.000     -0.005      0.160     -0.229
     62 H        0.000      0.000      0.000      0.030     -0.329      0.114
     63 H       -0.000      0.000     -0.000      0.002      0.032     -0.199
     64 H        0.000      0.000      0.000      0.001     -0.090      0.026
     65 H       -0.000      0.000     -0.000     -0.024     -0.436      0.056
     66 H        0.000      0.000      0.000      0.004      0.106      0.290
     67 H        0.000      0.000     -0.000     -0.002     -0.077      0.019
     68 H        0.000      0.000      0.000      0.006      0.121      0.126
     69 H       -0.000      0.000      0.000     -0.014     -0.351      0.019
     70 H       -0.017     -0.048     -0.189      4.367     -0.088     -0.370
     71 H        0.035     -0.031     -0.034     12.686     -0.269      0.089
     72 H       -0.012     -0.028     -0.015      2.368     -0.160      0.121
                 57 H       58 H       61 H       62 H       63 H       64 H  
      3 H        0.000      0.000      0.000      0.000      0.000      0.000
      4 H        0.000      0.000      0.000      0.000      0.000      0.000
      8 H        0.000      0.000      0.000      0.000      0.000      0.000
      9 H        0.000      0.000      0.000      0.000      0.000      0.000
     10 H        0.000      0.000      0.000      0.000      0.000      0.000
     11 H        0.000      0.000      0.000      0.000      0.000      0.000
     13 H        0.000      0.000      0.000      0.000      0.000      0.000
     16 H        0.000      0.000      0.000      0.000      0.000      0.000
     17 H        0.000      0.000      0.000      0.000      0.000      0.000
     19 H        0.000      0.000      0.000      0.000      0.000      0.000
     21 H        0.000      0.000      0.000      0.000      0.000      0.000
     24 H        0.000      0.000      0.000      0.000      0.000      0.000
     25 H        0.000      0.000      0.000      0.000      0.000      0.000
     27 H        0.000      0.000      0.000      0.000      0.000      0.000
     28 H        0.000      0.000      0.000      0.000      0.000      0.000
     30 H       -0.001      0.000      0.000      0.000      0.000      0.000
     31 H        0.003      0.000      0.000      0.000      0.000      0.000
     33 H        0.006      0.000      0.000      0.000      0.000      0.000
     35 H        0.000      0.000      0.000      0.000      0.000      0.000
     37 H       -0.005      0.001      0.000      0.000      0.000      0.000
     38 H       -0.003      0.000      0.000      0.000      0.000      0.000
     40 H        0.116     -0.003     -0.006      0.028     -0.002      0.000
     41 H       -0.014     -0.001      0.001     -0.002      0.000     -0.000
     42 H       -0.060      0.001      0.002     -0.007      0.000      0.000
     45 H        0.002      0.000     -0.000      0.000     -0.000      0.000
     46 H        0.003      0.000      0.000      0.000      0.000      0.000
     47 H        0.000      0.000     -0.000      0.000     -0.000      0.000
     48 H        0.104      0.001     -0.005      0.030      0.002      0.001
     52 H       -2.660      0.102      0.160     -0.329      0.032     -0.090
     53 H        4.854      1.001     -0.229      0.114     -0.199      0.026
     57 H        0.000      4.023     13.458      3.360      4.364     -0.417
     58 H        4.023      0.000     -0.275     -0.294     -0.206      3.850
     61 H       13.458     -0.275      0.000    -11.746    -12.982     -0.296
     62 H        3.360     -0.294    -11.746      0.000    -12.849     -0.021
     63 H        4.364     -0.206    -12.982    -12.849      0.000     -0.106
     64 H       -0.417      3.850     -0.296     -0.021     -0.106      0.000
     65 H       -0.580     13.890      0.007      0.051      0.023    -12.544
     66 H        0.454      3.803     -0.088      0.004     -0.121    -13.284
     67 H       -0.337      2.563      0.009      0.020      0.009      2.597
     68 H       -0.303      5.223     -0.043     -0.006      0.534     -0.171
     69 H       -0.271     13.528      0.049      0.034     -0.055     -0.309
     70 H        0.306     -0.017     -0.025      0.175     -0.012     -0.000
     71 H       -0.098      0.003      0.003     -0.020      0.001     -0.000
     72 H       -0.077      0.004     -0.000      0.005     -0.001     -0.000
                 65 H       66 H       67 H       68 H       69 H       70 H  
      3 H        0.000      0.000      0.000      0.000      0.000      0.000
      4 H        0.000      0.000      0.000      0.000      0.000      0.000
      8 H        0.000      0.000      0.000      0.000      0.000      0.000
      9 H        0.000      0.000      0.000      0.000      0.000      0.000
     10 H        0.000      0.000      0.000      0.000      0.000      0.000
     11 H        0.000      0.000      0.000      0.000      0.000      0.000
     13 H        0.000      0.000      0.000      0.000      0.000      0.000
     16 H        0.000      0.000      0.000      0.000      0.000      0.000
     17 H        0.000      0.000      0.000      0.000      0.000      0.000
     19 H        0.000      0.000      0.000      0.000      0.000     -0.000
     21 H        0.000      0.000      0.000      0.000     -0.000      0.001
     24 H        0.000      0.000      0.000      0.000      0.000      0.020
     25 H        0.000      0.000      0.000      0.000     -0.000      0.004
     27 H        0.000      0.000      0.000      0.000      0.000     -0.010
     28 H        0.000      0.000      0.000      0.000      0.000     -0.009
     30 H        0.000      0.000      0.000      0.000     -0.000     -0.439
     31 H        0.000     -0.000      0.000     -0.000     -0.000     -0.072
     33 H        0.000     -0.000      0.000     -0.000     -0.000      0.003
     35 H        0.000      0.000      0.000      0.000      0.000      0.000
     37 H       -0.000      0.000     -0.000      0.000      0.000     -0.005
     38 H       -0.000      0.000     -0.001      0.002      0.002      0.004
     40 H        0.002     -0.000     -0.004     -0.006     -0.047      0.084
     41 H       -0.001     -0.000     -0.000     -0.003     -0.010      0.025
     42 H       -0.001     -0.001      0.002      0.001     -0.001     -0.199
     45 H       -0.000      0.000      0.000      0.000     -0.000     -0.017
     46 H        0.000      0.000      0.000      0.000      0.000     -0.048
     47 H       -0.000      0.000     -0.000      0.000      0.000     -0.189
     48 H       -0.024      0.004     -0.002      0.006     -0.014      4.367
     52 H       -0.436      0.106     -0.077      0.121     -0.351     -0.088
     53 H        0.056      0.290      0.019      0.126      0.019     -0.370
     57 H       -0.580      0.454     -0.337     -0.303     -0.271      0.306
     58 H       13.890      3.803      2.563      5.223     13.528     -0.017
     61 H        0.007     -0.088      0.009     -0.043      0.049     -0.025
     62 H        0.051      0.004      0.020     -0.006      0.034      0.175
     63 H        0.023     -0.121      0.009      0.534     -0.055     -0.012
     64 H      -12.544    -13.284      2.597     -0.171     -0.309     -0.000
     65 H        0.000    -12.928     -0.393     -0.182     -0.294     -0.001
     66 H      -12.928      0.000      0.078     -0.232     -0.189     -0.003
     67 H       -0.393      0.078      0.000    -12.772    -12.626      0.000
     68 H       -0.182     -0.232    -12.772      0.000    -12.872     -0.004
     69 H       -0.294     -0.189    -12.626    -12.872      0.000      0.005
     70 H       -0.001     -0.003      0.000     -0.004      0.005      0.000
     71 H       -0.004     -0.001      0.000     -0.000     -0.000    -12.429
     72 H       -0.001      0.000     -0.000      0.001      0.002    -13.200
                 71 H       72 H  
      3 H        0.000      0.000
      4 H        0.000      0.000
      8 H        0.000      0.000
      9 H        0.000      0.000
     10 H        0.000      0.000
     11 H        0.000      0.000
     13 H        0.000      0.000
     16 H        0.000      0.000
     17 H        0.000      0.000
     19 H        0.000      0.000
     21 H        0.001      0.002
     24 H        0.008      0.034
     25 H        0.000      0.000
     27 H       -0.000     -0.010
     28 H       -0.003     -0.011
     30 H        0.078      0.088
     31 H        0.016     -0.040
     33 H       -0.002      0.002
     35 H        0.000      0.000
     37 H       -0.020      0.066
     38 H        0.037      0.009
     40 H        0.029     -0.025
     41 H       -0.052      0.004
     42 H       -0.347     -0.435
     45 H        0.035     -0.012
     46 H       -0.031     -0.028
     47 H       -0.034     -0.015
     48 H       12.686      2.368
     52 H       -0.269     -0.160
     53 H        0.089      0.121
     57 H       -0.098     -0.077
     58 H        0.003      0.004
     61 H        0.003     -0.000
     62 H       -0.020      0.005
     63 H        0.001     -0.001
     64 H       -0.000     -0.000
     65 H       -0.004     -0.001
     66 H       -0.001      0.000
     67 H        0.000     -0.000
     68 H       -0.000      0.001
     69 H       -0.000      0.002
     70 H      -12.429    -13.200
     71 H        0.000    -12.591
     72 H      -12.591      0.000

Maximum memory used throughout the entire EPRNMR-calculation: 987.7 MB

Timings for individual modules:

Sum of individual times         ...      397.806 sec (=   6.630 min)
GTO integral calculation        ...        0.752 sec (=   0.013 min)   0.2 %
SCF iterations                  ...      105.859 sec (=   1.764 min)  26.6 %
EPR/NMR calculation             ...      291.196 sec (=   4.853 min)  73.2 %
                             ****ORCA TERMINATED NORMALLY****
TOTAL RUN TIME: 0 days 0 hours 6 minutes 38 seconds 200 msec
