
                                 *****************
                                 * O   R   C   A *
                                 *****************

                                            #,                                       
                                            ###                                      
                                            ####                                     
                                            #####                                    
                                            ######                                   
                                           ########,                                 
                                     ,,################,,,,,                         
                               ,,#################################,,                 
                          ,,##########################################,,             
                       ,#########################################, ''#####,          
                    ,#############################################,,   '####,        
                  ,##################################################,,,,####,       
                ,###########''''           ''''###############################       
              ,#####''   ,,,,##########,,,,          '''####'''          '####       
            ,##' ,,,,###########################,,,                        '##       
           ' ,,###''''                  '''############,,,                           
         ,,##''                                '''############,,,,        ,,,,,,###''
      ,#''                                            '''#######################'''  
     '                                                          ''''####''''         
             ,#######,   #######,   ,#######,      ##                                
            ,#'     '#,  ##    ##  ,#'     '#,    #''#        ,####,   ,####,        
            ##       ##  ##   ,#'  ##            #'  '#       #'       #'  '#        
            ##       ##  #######   ##           ,######,      #####,   #    #        
            '#,     ,#'  ##    ##  '#,     ,#' ,#      #,     #,   #   #,  ,#        
             '#######'   ##     ##  '#######'  #'      '#     '####' # '####'        



                #########################################################
                #                        -***-                          #
                #          Department of theory and spectroscopy        #
                #                                                       #
                #                      Frank Neese                      #
                #                                                       #
                #     Directorship, Architecture, Infrastructure        #
                #                    SHARK, DRIVERS                     #
                #        Core code/Algorithms in most modules           #
                #                                                       #
                #        Max Planck Institute fuer Kohlenforschung      #
                #                Kaiser Wilhelm Platz 1                 #
                #                 D-45470 Muelheim/Ruhr                 #
                #                      Germany                          #
                #                                                       #
                #                  All rights reserved                  #
                #                        -***-                          #
                #########################################################


                         Program Version 6.0.0  -   RELEASE  -


 With contributions from (in alphabetic order):
   Daniel Aravena         : Magnetic Suceptibility
   Michael Atanasov       : Ab Initio Ligand Field Theory (pilot matlab implementation)
   Alexander A. Auer      : GIAO ZORA, VPT2 properties, NMR spectrum
   Ute Becker             : All parallelization in ORCA, NUMFREQ, NUMCALC
   Giovanni Bistoni       : ED, misc. LED, open-shell LED, HFLD
   Martin Brehm           : Molecular dynamics
   Dmytro Bykov           : pre 5.0 version of the SCF Hessian
   Marcos Casanova-Páez   : Triplet and SCS-CIS(D). UHF-(DLPNO)-IP/EA/STEOM-CCSD. UHF-CVS-IP/STEOM-CCSD
   Vijay G. Chilkuri      : MRCI spin determinant printing, contributions to CSF-ICE
   Pauline Colinet        : FMM embedding
   Dipayan Datta          : RHF DLPNO-CCSD density
   Achintya Kumar Dutta   : EOM-CC, STEOM-CC
   Nicolas Foglia         : Exact transition moments, OPA infrastructure, MCD improvements
   Dmitry Ganyushin       : Spin-Orbit,Spin-Spin,Magnetic field MRCI
   Miquel Garcia          : C-PCM and meta-GGA Hessian, CCSD/C-PCM, Gaussian charge scheme
   Tiago L. C. Gouveia    : GS-ROHF, GS-ROCIS
   Yang Guo               : DLPNO-NEVPT2, F12-NEVPT2, CIM, IAO-localization
   Andreas Hansen         : Spin unrestricted coupled pair/coupled cluster methods
   Ingolf Harden          : AUTO-CI MPn and infrastructure 
   Benjamin Helmich-Paris : MC-RPA, TRAH-(SCF,CASSCF), AVAS, COSX integrals, SCF dyn. polar.
   Lee Huntington         : MR-EOM, pCC
   Robert Izsak           : Overlap fitted RIJCOSX, COSX-SCS-MP3, EOM
   Riya Kayal             : Wick's Theorem for AUTO-CI, AUTO-CI UHF-CCSDT
   Emily Kempfer          : AUTO-CI, RHF CISDT and CCSDT
   Christian Kollmar      : KDIIS, OOCD, Brueckner-CCSD(T), CCSD density, CASPT2, CASPT2-K, improved NEVPT2
   Axel Koslowski         : Symmetry handling
   Simone Kossmann        : Meta GGA functionals, TD-DFT gradient, OOMP2, (MP2 Hessian; deprecated post 5.0)
   Lucas Lang             : DCDCAS
   Marvin Lechner         : AUTO-CI (C++ implementation), FIC-MRCC
   Spencer Leger          : CASSCF response
   Dagmar Lenk            : GEPOL surface, SMD, ORCA-2-JSON
   Dimitrios Liakos       : Extrapolation schemes; Compound Job, initial MDCI parallelization
   Dimitrios Manganas     : Further ROCIS development; embedding schemes. LFT, Crystal Embedding
   Dimitrios Pantazis     : SARC Basis sets
   Anastasios Papadopoulos: AUTO-CI, single reference methods and gradients
   Taras Petrenko         : pre 6.0 DFT Hessian and TD-DFT gradient, (ASA, deprecated), ECA, 1-Electron XAS/XES, NRVS
   Peter Pinski           : DLPNO-MP2, DLPNO-MP2 Gradient
   Christoph Reimann      : Effective Core Potentials
   Marius Retegan         : Local ZFS, SOC
   Christoph Riplinger    : Optimizer, TS searches, QM/MM, DLPNO-CCSD(T), (RO)-DLPNO pert. Triples
   Michael Roemelt        : Original ROCIS implementation
   Masaaki Saitow         : Open-shell DLPNO-CCSD energy and density
   Barbara Sandhoefer     : DKH picture change effects
   Kantharuban Sivalingam : CASSCF convergence/infrastructure, NEVPT2 and variants, FIC-MRCI
   Bernardo de Souza      : ESD, SOC TD-DFT
   Georgi Stoychev        : AutoAux, RI-MP2 NMR, DLPNO-MP2 response, X2C
   Van Anh Tran           : RI-MP2 g-tensors
   Willem Van den Heuvel  : Paramagnetic NMR
   Zikuan Wang            : NOTCH, Electric field optimization 
   Frank Wennmohs         : Technical directorship and infrastructure
   Hang Xu                : AUTO-CI-Response properties 


 We gratefully acknowledge several colleagues who have allowed us to
 interface, adapt or use parts of their codes:
   Stefan Grimme, W. Hujo, H. Kruse, P. Pracht,  : VdW corrections, initial TS optimization,
                  C. Bannwarth, S. Ehlert,         DFT functionals, gCP, sTDA/sTD-DF
                  L. Wittmann, M. Mueller
   Ed Valeev, F. Pavosevic, A. Kumar             : LibInt (2-el integral package), F12 methods
   Garnet Chan, S. Sharma, J. Yang, R. Olivares  : DMRG
   Ulf Ekstrom                                   : XCFun DFT Library
   Mihaly Kallay                                 : mrcc  (arbitrary order and MRCC methods)
   Frank Weinhold                                : gennbo (NPA and NBO analysis)
   Simon Mueller                                 : openCOSMO-RS
   Christopher J. Cramer and Donald G. Truhlar   : smd solvation model
   Lars Goerigk                                  : TD-DFT with DH, B97 family of functionals
   V. Asgeirsson, H. Jonsson                     : NEB implementation
   FAccTs GmbH                                   : IRC, NEB, NEB-TS, DLPNO-Multilevel, CI-OPT
                                                   MM, QMMM, 2- and 3-layer-ONIOM, Crystal-QMMM,
                                                   LR-CPCM, SF, NACMEs, symmetry and pop. for TD-DFT,
                                                   nearIR, NL-DFT gradient (VV10), updates on ESD,
                                                   ML-optimized integration grids, MBIS, APM,
                                                   GOAT, DOCKER, SOLVATOR, interface openCOSMO-RS
   S Lehtola, MJT Oliveira, MAL Marques          : LibXC Library
   Liviu Ungur et al                             : ANISO software


 Your calculation uses the libint2 library for the computation of 2-el integrals
 For citations please refer to: http://libint.valeyev.net

 Your ORCA version has been built with support for libXC version: 6.2.2
 For citations please refer to: https://libxc.gitlab.io

 This ORCA versions uses:
   CBLAS   interface :  Fast vector & matrix operations
   LAPACKE interface :  Fast linear algebra routines
   SCALAPACK package :  Parallel linear algebra routines
   Shared memory     :  Shared parallel matrices
   BLAS/LAPACK       :  OpenBLAS 0.3.27  USE64BITINT DYNAMIC_ARCH NO_AFFINITY Zen SINGLE_THREADED
        Core in use  :  Zen
   Copyright (c) 2011-2014, The OpenBLAS Project


NOTE: MaxCore=8000 MB was set to SCF,MP2,MDCI,CIPSI,MRCI and CIS
      => If you want to overwrite this, your respective input block should be placed after the MaxCore statement
Your calculation utilizes the atom-pairwise dispersion correction
based on EEQ partial charges (D4)


================================================================================

----- Orbital basis set information -----
Your calculation utilizes the basis: def2-SVP
   F. Weigend and R. Ahlrichs, Phys. Chem. Chem. Phys. 7, 3297 (2005).

----- AuxJ basis set information -----
Your calculation utilizes the auxiliary basis: def2/J
   F. Weigend, Phys. Chem. Chem. Phys. 8, 1057 (2006).

================================================================================
                                        WARNINGS
                       Please study these warnings very carefully!
================================================================================

WARNING: Old DensityContainer found on disk!
         Will remove this file - 
         If you want to keep old densities, please start your calculation with a different basename. 


================================================================================
                                       INPUT FILE
================================================================================
NAME = inpS
|  1> ! wb97x-d4
|  2> ! def2-svp
|  3> ! def2/J RIJCOSX
|  4> ! DEFGRID2
|  5> ! scfconv7
|  6> ! smallprint printgap noloewdin
|  7> ! NOSOSCF
|  8> %MaxCore 8000
|  9> %output
| 10>        print[P_BondOrder_M] 1
| 11>        print[P_Mayer] 1
| 12>        print[P_basis] 2
| 13> end
| 14> %pal
| 15>     nprocs 4
| 16> end
| 17> ! CPCM(chloroform)
| 18> *xyz 0 1
| 19> C   -5.3581254200   0.1721787600   0.1422309600
| 20> C   -6.6976679300  -0.3244453600  -0.3487426600
| 21> C   -7.2066749400   0.4955918100  -1.5403431200
| 22> H   -7.4434145900  -0.2240525800   0.4582812000
| 23> H   -6.6417500600  -1.3841690600  -0.6210909500
| 24> C   -5.3017126500   1.6302115000   0.3811051000
| 25> C   -5.8624736700   2.4713484900  -0.7433610700
| 26> C   -7.2469329800   1.9773640600  -1.1848647100
| 27> H   -5.1780508800   2.4027112900  -1.6026431200
| 28> H   -5.9053719800   3.5237322600  -0.4434658100
| 29> H   -7.5995409400   2.5547575500  -2.0476148800
| 30> H   -7.9684414000   2.1240289500  -0.3669502000
| 31> O   -8.4818219000   0.0197580900  -1.9912300000
| 32> H   -6.5302416900   0.3450978300  -2.3933067000
| 33> C   -4.3149272500  -0.6777249900   0.2942922500
| 34> C   -4.8395648800   2.1718947700   1.5139274300
| 35> H   -4.4651900500   1.5536980000   2.3251777000
| 36> H   -4.8359475500   3.2498036200   1.6578690900
| 37> C   -2.9632526700  -0.3214899600   0.6597946100
| 38> H   -4.5135168100  -1.7261704200   0.0762295500
| 39> C   -1.9452489600  -1.1773967400   0.8941473000
| 40> H   -2.7576899600   0.7435416900   0.7394983300
| 41> C   -2.0415237000  -2.6818488500   0.8840439700
| 42> C   -0.9822825600  -3.3156904100  -0.0364492000
| 43> H   -3.0381181800  -3.0329123200   0.6030435300
| 44> H   -1.8582093500  -3.0353983100   1.9113598300
| 45> C    0.4341214300  -2.7990754500   0.2491779900
| 46> H   -1.2482226200  -3.1120612500  -1.0815595400
| 47> H   -1.0060130500  -4.4057292500   0.0842900100
| 48> C    0.5032872600  -1.2661273400   0.2024101900
| 49> H    1.1275544100  -3.2522848000  -0.4665027800
| 50> H    0.7444943000  -3.1305186900   1.2517059200
| 51> C   -0.5547630500  -0.7194376900   1.2136124900
| 52> H   -0.2855272400  -1.1932441700   2.1756191300
| 53> C   -0.2246961700   0.7648529200   1.3343729500
| 54> H   -9.1115076600   0.1431144500  -1.2682954100
| 55> C    1.3200138100   0.8043042900   1.2266269900
| 56> H   -0.5953397800   1.1949885300   2.2707817700
| 57> H   -0.6809502700   1.3317030100   0.5152126500
| 58> C    1.7858429100  -0.6203231100   0.7962991300
| 59> H    1.7858416400   1.0936942400   2.1737425200
| 60> H    1.6343125300   1.5452574400   0.4815756800
| 61> H    2.0344071600  -1.1943546100   1.7037983400
| 62> C    3.0722318400  -0.5761312000  -0.0635342700
| 63> C    0.2327971600  -0.7436438800  -1.2151188200
| 64> H   -0.7982281500  -0.9400860100  -1.5252839300
| 65> H    0.8991690100  -1.2263178600  -1.9384377100
| 66> H    0.3939705400   0.3368999900  -1.2855454600
| 67> H    2.8434614400   0.0357119800  -0.9520776800
| 68> C    3.5351185500  -1.9523481100  -0.5397903100
| 69> C    4.1396514200   0.1661521200   0.7086583800
| 70> C    5.2609077200  -0.3587271500   1.2058944600
| 71> H    3.9305365000   1.2209816200   0.8815969500
| 72> H    5.4627851200  -1.4164863400   1.0392646700
| 73> C    6.3125489200   0.3641776100   2.0065165500
| 74> C    5.9589471800   1.8152366400   2.3297819400
| 75> C    7.7199315800   0.2460032500   1.3539176200
| 76> H    6.3945573100  -0.1739237800   2.9667055400
| 77> H    8.4076801800   0.7799463600   2.0273745800
| 78> C    7.7913711600   0.9105950900  -0.0222941600
| 79> C    8.1959005900  -1.2070201800   1.2681823400
| 80> H    5.0368877900   1.8736608400   2.9181984700
| 81> H    5.8116480600   2.4129379600   1.4241644000
| 82> H    6.7631021100   2.2790818700   2.9112649800
| 83> H    8.8029348800   0.8281321500  -0.4352473300
| 84> H    7.5345780600   1.9737639800   0.0206389700
| 85> H    7.0999188300   0.4239505200  -0.7207323500
| 86> H    7.6296460400  -1.7708044700   0.5178851400
| 87> H    8.0900666200  -1.7208136900   2.2308878000
| 88> H    9.2515217500  -1.2466771700   0.9774560900
| 89> H    4.5174171800  -1.8824837600  -1.0197978200
| 90> H    2.8407757300  -2.3717338900  -1.2706940200
| 91> H    3.6140384400  -2.6594810000   0.2943009100
| 92> *
| 93> %eprnmr
| 94>  Nuclei = all C { shift }
| 95>  origin giao
| 96>  giao_2el giao_2el_same_as_scf
| 97>  giao_1el giao_1el_analytic
| 98> end
| 99> 
|100>                          ****END OF INPUT****
================================================================================

                       ****************************
                       * Single Point Calculation *
                       ****************************

---------------------------------
CARTESIAN COORDINATES (ANGSTROEM)
---------------------------------
  C     -5.358125    0.172179    0.142231
  C     -6.697668   -0.324445   -0.348743
  C     -7.206675    0.495592   -1.540343
  H     -7.443415   -0.224053    0.458281
  H     -6.641750   -1.384169   -0.621091
  C     -5.301713    1.630211    0.381105
  C     -5.862474    2.471348   -0.743361
  C     -7.246933    1.977364   -1.184865
  H     -5.178051    2.402711   -1.602643
  H     -5.905372    3.523732   -0.443466
  H     -7.599541    2.554758   -2.047615
  H     -7.968441    2.124029   -0.366950
  O     -8.481822    0.019758   -1.991230
  H     -6.530242    0.345098   -2.393307
  C     -4.314927   -0.677725    0.294292
  C     -4.839565    2.171895    1.513927
  H     -4.465190    1.553698    2.325178
  H     -4.835948    3.249804    1.657869
  C     -2.963253   -0.321490    0.659795
  H     -4.513517   -1.726170    0.076230
  C     -1.945249   -1.177397    0.894147
  H     -2.757690    0.743542    0.739498
  C     -2.041524   -2.681849    0.884044
  C     -0.982283   -3.315690   -0.036449
  H     -3.038118   -3.032912    0.603044
  H     -1.858209   -3.035398    1.911360
  C      0.434121   -2.799075    0.249178
  H     -1.248223   -3.112061   -1.081560
  H     -1.006013   -4.405729    0.084290
  C      0.503287   -1.266127    0.202410
  H      1.127554   -3.252285   -0.466503
  H      0.744494   -3.130519    1.251706
  C     -0.554763   -0.719438    1.213612
  H     -0.285527   -1.193244    2.175619
  C     -0.224696    0.764853    1.334373
  H     -9.111508    0.143114   -1.268295
  C      1.320014    0.804304    1.226627
  H     -0.595340    1.194989    2.270782
  H     -0.680950    1.331703    0.515213
  C      1.785843   -0.620323    0.796299
  H      1.785842    1.093694    2.173743
  H      1.634313    1.545257    0.481576
  H      2.034407   -1.194355    1.703798
  C      3.072232   -0.576131   -0.063534
  C      0.232797   -0.743644   -1.215119
  H     -0.798228   -0.940086   -1.525284
  H      0.899169   -1.226318   -1.938438
  H      0.393971    0.336900   -1.285545
  H      2.843461    0.035712   -0.952078
  C      3.535119   -1.952348   -0.539790
  C      4.139651    0.166152    0.708658
  C      5.260908   -0.358727    1.205894
  H      3.930537    1.220982    0.881597
  H      5.462785   -1.416486    1.039265
  C      6.312549    0.364178    2.006517
  C      5.958947    1.815237    2.329782
  C      7.719932    0.246003    1.353918
  H      6.394557   -0.173924    2.966706
  H      8.407680    0.779946    2.027375
  C      7.791371    0.910595   -0.022294
  C      8.195901   -1.207020    1.268182
  H      5.036888    1.873661    2.918198
  H      5.811648    2.412938    1.424164
  H      6.763102    2.279082    2.911265
  H      8.802935    0.828132   -0.435247
  H      7.534578    1.973764    0.020639
  H      7.099919    0.423951   -0.720732
  H      7.629646   -1.770804    0.517885
  H      8.090067   -1.720814    2.230888
  H      9.251522   -1.246677    0.977456
  H      4.517417   -1.882484   -1.019798
  H      2.840776   -2.371734   -1.270694
  H      3.614038   -2.659481    0.294301

----------------------------
CARTESIAN COORDINATES (A.U.)
----------------------------
  NO LB      ZA    FRAG     MASS         X           Y           Z
   0 C     6.0000    0    12.011  -10.125390    0.325371    0.268778
   1 C     6.0000    0    12.011  -12.656758   -0.613113   -0.659028
   2 C     6.0000    0    12.011  -13.618642    0.936533   -2.910827
   3 H     1.0000    0     1.008  -14.066015   -0.423398    0.866026
   4 H     1.0000    0     1.008  -12.551089   -2.615700   -1.173692
   5 C     6.0000    0    12.011  -10.018785    3.080653    0.720184
   6 C     6.0000    0    12.011  -11.078470    4.670172   -1.404749
   7 C     6.0000    0    12.011  -13.694719    3.736677   -2.239070
   8 H     1.0000    0     1.008   -9.785098    4.540466   -3.028557
   9 H     1.0000    0     1.008  -11.159536    6.658889   -0.838029
  10 H     1.0000    0     1.008  -14.361051    4.827792   -3.869431
  11 H     1.0000    0     1.008  -15.058172    4.013833   -0.693435
  12 O     8.0000    0    15.999  -16.028321    0.037337   -3.762879
  13 H     1.0000    0     1.008  -12.340368    0.652140   -4.522694
  14 C     6.0000    0    12.011   -8.154031   -1.280715    0.556132
  15 C     6.0000    0    12.011   -9.145452    4.104286    2.860908
  16 H     1.0000    0     1.008   -8.437986    2.936064    4.393949
  17 H     1.0000    0     1.008   -9.138616    6.141239    3.132919
  18 C     6.0000    0    12.011   -5.599736   -0.607528    1.246831
  19 H     1.0000    0     1.008   -8.529311   -3.261989    0.144053
  20 C     6.0000    0    12.011   -3.675988   -2.224957    1.689694
  21 H     1.0000    0     1.008   -5.211279    1.405090    1.397449
  22 C     6.0000    0    12.011   -3.857921   -5.067960    1.670601
  23 C     6.0000    0    12.011   -1.856245   -6.265747   -0.068879
  24 H     1.0000    0     1.008   -5.741211   -5.731374    1.139587
  25 H     1.0000    0     1.008   -3.511507   -5.736072    3.611947
  26 C     6.0000    0    12.011    0.820371   -5.289486    0.470878
  27 H     1.0000    0     1.008   -2.358799   -5.880943   -2.043851
  28 H     1.0000    0     1.008   -1.901089   -8.325622    0.159285
  29 C     6.0000    0    12.011    0.951075   -2.392634    0.382500
  30 H     1.0000    0     1.008    2.130769   -6.145928   -0.881562
  31 H     1.0000    0     1.008    1.406890   -5.915823    2.365381
  32 C     6.0000    0    12.011   -1.048350   -1.359540    2.293395
  33 H     1.0000    0     1.008   -0.539568   -2.254905    4.111324
  34 C     6.0000    0    12.011   -0.424614    1.445363    2.521599
  35 H     1.0000    0     1.008  -17.218254    0.270447   -2.396731
  36 C     6.0000    0    12.011    2.494465    1.519915    2.317989
  37 H     1.0000    0     1.008   -1.125029    2.258201    4.291156
  38 H     1.0000    0     1.008   -1.286810    2.516554    0.973611
  39 C     6.0000    0    12.011    3.374754   -1.172241    1.504787
  40 H     1.0000    0     1.008    3.374752    2.066783    4.107778
  41 H     1.0000    0     1.008    3.088403    2.920113    0.910046
  42 H     1.0000    0     1.008    3.844472   -2.257003    3.219712
  43 C     6.0000    0    12.011    5.805677   -1.088730   -0.120062
  44 C     6.0000    0    12.011    0.439923   -1.405283   -2.296242
  45 H     1.0000    0     1.008   -1.508433   -1.776505   -2.882369
  46 H     1.0000    0     1.008    1.699183   -2.317405   -3.663116
  47 H     1.0000    0     1.008    0.744496    0.636649   -2.429329
  48 H     1.0000    0     1.008    5.373363    0.067486   -1.799166
  49 C     6.0000    0    12.011    6.680406   -3.689403   -1.020056
  50 C     6.0000    0    12.011    7.822807    0.313982    1.339170
  51 C     6.0000    0    12.011    9.941675   -0.677896    2.278810
  52 H     1.0000    0     1.008    7.427638    2.307321    1.665977
  53 H     1.0000    0     1.008   10.323168   -2.676771    1.963926
  54 C     6.0000    0    12.011   11.928989    0.688196    3.791767
  55 C     6.0000    0    12.011   11.260778    3.430300    4.402650
  56 C     6.0000    0    12.011   14.588556    0.464879    2.558534
  57 H     1.0000    0     1.008   12.083962   -0.328668    5.606261
  58 H     1.0000    0     1.008   15.888213    1.473885    3.831183
  59 C     6.0000    0    12.011   14.723558    1.720775   -0.042130
  60 C     6.0000    0    12.011   15.488008   -2.280938    2.396517
  61 H     1.0000    0     1.008    9.518338    3.540706    5.514596
  62 H     1.0000    0     1.008   10.982423    4.559792    2.691281
  63 H     1.0000    0     1.008   12.780411    4.306841    5.501494
  64 H     1.0000    0     1.008   16.635136    1.564943   -0.822498
  65 H     1.0000    0     1.008   14.238289    3.729873    0.039002
  66 H     1.0000    0     1.008   13.416902    0.801150   -1.361987
  67 H     1.0000    0     1.008   14.417942   -3.346335    0.978661
  68 H     1.0000    0     1.008   15.288010   -3.251867    4.215767
  69 H     1.0000    0     1.008   17.482842   -2.355878    1.847124
  70 H     1.0000    0     1.008    8.536681   -3.557379   -1.927139
  71 H     1.0000    0     1.008    5.368288   -4.481928   -2.401264
  72 H     1.0000    0     1.008    6.829543   -5.025691    0.556148

--------------------------------
INTERNAL COORDINATES (ANGSTROEM)
--------------------------------
 C      0   0   0     0.000000000000     0.00000000     0.00000000
 C      1   0   0     1.510650438784     0.00000000     0.00000000
 C      2   1   0     1.533447342651   111.78284599     0.00000000
 H      2   1   3     1.103405773860   109.37114762   241.46807306
 H      2   1   3     1.095588754777   110.70283832   122.93153261
 C      1   2   3     1.478547505592   114.23800859    50.24619679
 C      6   1   2     1.512080859270   114.47303636   312.22391790
 C      3   2   1     1.524347273632   110.32737720   305.11247465
 H      7   6   1     1.100686722981   108.37675907   289.93510966
 H      7   6   1     1.095120555615   110.20919949   172.74277856
 H      8   3   2     1.096381991636   109.68892138   179.26502225
 H      8   3   2     1.100485863498   108.67425194   296.75202230
 O      3   2   1     1.433776997040   111.22959954   180.36118793
 H      3   2   1     1.098980094692   109.00054895    65.12377353
 C      1   2   3     1.354149711838   120.88236298   232.22862237
 C      6   1   2     1.338016351791   123.31114842   129.92654990
 H     16   6   1     1.086485508578   121.38808447     0.72185551
 H     16   6   1     1.087483229971   120.96328550   181.37426532
 C     15   1   2     1.444825090446   126.46726705   175.20489260
 H     15   1   2     1.089140474944   116.18231665   357.99395675
 C     19  15   1     1.350492189142   126.35873009   175.46295603
 H     19  15   1     1.087612580943   115.89970390   354.74492897
 C     21  19  15     1.507563283621   125.67341864   356.84182938
 C     23  21  19     1.539822909256   111.76863859   127.51425880
 H     23  21  19     1.093346863907   112.35600866     3.35383642
 H     23  21  19     1.101807264357   107.65865658   246.09440543
 C     24  23  21     1.534494760972   112.65020760    51.03268458
 H     24  23  21     1.097471900820   109.03844442   288.89418057
 H     24  23  21     1.096962062104   109.16905409   172.91979533
 C     27  24  23     1.535220194991   111.84424635   306.13322705
 H     27  24  23     1.094736030843   108.88163433   182.58654781
 H     27  24  23     1.100567212942   109.17626502    66.10517499
 C     21  19  15     1.498411013376   122.87482698   177.36345767
 H     33  21  19     1.105638854817   106.29031933   124.26578554
 C     33  21  19     1.525334667837   121.00341002     1.94216199
 H     13   3   2     0.966620592227   107.56630599    62.81654551
 C     35  33  21     1.548965630607   103.59589084   196.86299023
 H     35  33  21     1.095104929583   112.12756998    74.98207486
 H     35  33  21     1.095678066494   110.74031117   315.33442340
 C     30  27  24     1.553935703910   116.13704416   166.12989632
 H     37  35  33     1.094426762068   111.77758457   248.50661594
 H     37  35  33     1.096766479439   110.50205926   129.84378748
 H     40  30  27     1.102202869494   106.52063092   320.09338578
 C     40  30  27     1.547922116869   119.04391016    80.39217253
 C     30  27  24     1.534777623750   111.10765835   294.12879367
 H     45  30  27     1.094442824345   111.51065582    66.57228520
 H     45  30  27     1.095543623080   110.64723114   306.51008508
 H     45  30  27     1.094765648455   111.68332885   186.63637057
 H     44  40  30     1.102813385974   106.91758720    62.21928550
 C     44  40  30     1.528089298863   113.52507291   303.05033555
 C     44  40  30     1.512167509118   108.48043700   176.82215295
 C     51  44  40     1.334150537840   126.18877653   112.50693245
 H     51  44  40     1.089174950516   114.89457656   294.26409151
 H     52  51  44     1.089667139807   118.72509813     1.25050051
 C     52  51  44     1.506498004169   126.58119413   181.69611385
 C     55  52  51     1.528105693808   113.98869741     4.38599552
 C     55  52  51     1.555820199916   111.84531428   236.43999674
 H     55  52  51     1.103739724060   106.27517244   122.26097807
 H     57  55  52     1.100744138522   105.76639861   181.49626310
 C     57  55  52     1.529949277197   112.74011565    63.58403071
 C     57  55  52     1.531396135834   112.12980193   298.34791097
 H     56  55  52     1.095372502216   111.04331104    60.29619019
 H     56  55  52     1.095028322665   111.99239190   300.01377955
 H     56  55  52     1.095417762611   110.15223051   179.98223349
 H     60  57  55     1.095715116582   110.45216557   178.53475835
 H     60  57  55     1.094583956818   112.06662801    58.41455601
 H     60  57  55     1.096697390999   110.52814107   297.96705899
 H     61  57  55     1.096103475669   111.45604325    71.12388923
 H     61  57  55     1.096351404814   111.43787617   310.30382154
 H     61  57  55     1.095641575852   110.40493497   190.28317306
 H     50  44  40     1.095535866851   110.53204692   187.96838191
 H     50  44  40     1.091886723723   111.21805997    68.58627870
 H     50  44  40     1.096345491366   111.44317116   308.14471288

---------------------------
INTERNAL COORDINATES (A.U.)
---------------------------
 C      0   0   0     0.000000000000     0.00000000     0.00000000
 C      1   0   0     2.854715613390     0.00000000     0.00000000
 C      2   1   0     2.897795518399   111.78284599     0.00000000
 H      2   1   3     2.085134727182   109.37114762   241.46807306
 H      2   1   3     2.070362701932   110.70283832   122.93153261
 C      1   2   3     2.794049861561   114.23800859    50.24619679
 C      6   1   2     2.857418716366   114.47303636   312.22391790
 C      3   2   1     2.880598880155   110.32737720   305.11247465
 H      7   6   1     2.079996465678   108.37675907   289.93510966
 H      7   6   1     2.069477933740   110.20919949   172.74277856
 H      8   3   2     2.071861702356   109.68892138   179.26502225
 H      8   3   2     2.079616896262   108.67425194   296.75202230
 O      3   2   1     2.709445861523   111.22959954   180.36118793
 H      3   2   1     2.076771405598   109.00054895    65.12377353
 C      1   2   3     2.558972099703   120.88236298   232.22862237
 C      6   1   2     2.528484467594   123.31114842   129.92654990
 H     16   6   1     2.053160059687   121.38808447     0.72185551
 H     16   6   1     2.055045479877   120.96328550   181.37426532
 C     15   1   2     2.730323732361   126.46726705   175.20489260
 H     15   1   2     2.058177219012   116.18231665   357.99395675
 C     19  15   1     2.552060383478   126.35873009   175.46295603
 H     19  15   1     2.055289917790   115.89970390   354.74492897
 C     21  19  15     2.848881735599   125.67341864   356.84182938
 C     23  21  19     2.909843593231   111.76863859   127.51425880
 H     23  21  19     2.066126142166   112.35600866     3.35383642
 H     23  21  19     2.082113982000   107.65865658   246.09440543
 C     24  23  21     2.899774852174   112.65020760    51.03268458
 H     24  23  21     2.073921332224   109.03844442   288.89418057
 H     24  23  21     2.072957876678   109.16905409   172.91979533
 C     27  24  23     2.901145723799   111.84424635   306.13322705
 H     27  24  23     2.068751287230   108.88163433   182.58654781
 H     27  24  23     2.079770624434   109.17626502    66.10517499
 C     21  19  15     2.831586451332   122.87482698   177.36345767
 H     33  21  19     2.089354638626   106.29031933   124.26578554
 C     33  21  19     2.882464784788   121.00341002     1.94216199
 H     13   3   2     1.826648194718   107.56630599    62.81654551
 C     35  33  21     2.927120832705   103.59589084   196.86299023
 H     35  33  21     2.069448404820   112.12756998    74.98207486
 H     35  33  21     2.070531476618   110.74031117   315.33442340
 C     30  27  24     2.936512910113   116.13704416   166.12989632
 H     37  35  33     2.068166853943   111.77758457   248.50661594
 H     37  35  33     2.072588279005   110.50205926   129.84378748
 H     40  30  27     2.082861567366   106.52063092   320.09338578
 C     40  30  27     2.925148877522   119.04391016    80.39217253
 C     30  27  24     2.900309385358   111.10765835   294.12879367
 H     45  30  27     2.068197207248   111.51065582    66.57228520
 H     45  30  27     2.070277415386   110.64723114   306.51008508
 H     45  30  27     2.068807256404   111.68332885   186.63637057
 H     44  40  30     2.084015276313   106.91758720    62.21928550
 C     44  40  30     2.887670283028   113.52507291   303.05033555
 C     44  40  30     2.857582460847   108.48043700   176.82215295
 C     51  44  40     2.521179137942   126.18877653   112.50693245
 H     51  44  40     2.058242368402   114.89457656   294.26409151
 H     52  51  44     2.059172471369   118.72509813     1.25050051
 C     52  51  44     2.846868649178   126.58119413   181.69611385
 C     55  52  51     2.887701264982   113.98869741     4.38599552
 C     55  52  51     2.940074091464   111.84531428   236.43999674
 H     55  52  51     2.085765801603   106.27517244   122.26097807
 H     57  55  52     2.080104965326   105.76639861   181.49626310
 C     57  55  52     2.891185132693   112.74011565    63.58403071
 C     57  55  52     2.893919299271   112.12980193   298.34791097
 H     56  55  52     2.069954043816   111.04331104    60.29619019
 H     56  55  52     2.069303638724   111.99239190   300.01377955
 H     56  55  52     2.070039573568   110.15223051   179.98223349
 H     60  57  55     2.070601491138   110.45216557   178.53475835
 H     60  57  55     2.068463908970   112.06662801    58.41455601
 H     60  57  55     2.072457720774   110.52814107   297.96705899
 H     61  57  55     2.071335383454   111.45604325    71.12388923
 H     61  57  55     2.071803901639   111.43787617   310.30382154
 H     61  57  55     2.070462519298   110.40493497   190.28317306
 H     50  44  40     2.070262758237   110.53204692   187.96838191
 H     50  44  40     2.063366877102   111.21805997    68.58627870
 H     50  44  40     2.071792726841   111.44317116   308.14471288

---------------------
BASIS SET INFORMATION
---------------------
There are 3 groups of distinct atoms

 Group   1 Type C   : 7s4p1d contracted to 3s2p1d pattern {511/31/1}
 Group   2 Type H   : 4s1p contracted to 2s1p pattern {31/1}
 Group   3 Type O   : 7s4p1d contracted to 3s2p1d pattern {511/31/1}

Atom   0C    basis set group =>   1
Atom   1C    basis set group =>   1
Atom   2C    basis set group =>   1
Atom   3H    basis set group =>   2
Atom   4H    basis set group =>   2
Atom   5C    basis set group =>   1
Atom   6C    basis set group =>   1
Atom   7C    basis set group =>   1
Atom   8H    basis set group =>   2
Atom   9H    basis set group =>   2
Atom  10H    basis set group =>   2
Atom  11H    basis set group =>   2
Atom  12O    basis set group =>   3
Atom  13H    basis set group =>   2
Atom  14C    basis set group =>   1
Atom  15C    basis set group =>   1
Atom  16H    basis set group =>   2
Atom  17H    basis set group =>   2
Atom  18C    basis set group =>   1
Atom  19H    basis set group =>   2
Atom  20C    basis set group =>   1
Atom  21H    basis set group =>   2
Atom  22C    basis set group =>   1
Atom  23C    basis set group =>   1
Atom  24H    basis set group =>   2
Atom  25H    basis set group =>   2
Atom  26C    basis set group =>   1
Atom  27H    basis set group =>   2
Atom  28H    basis set group =>   2
Atom  29C    basis set group =>   1
Atom  30H    basis set group =>   2
Atom  31H    basis set group =>   2
Atom  32C    basis set group =>   1
Atom  33H    basis set group =>   2
Atom  34C    basis set group =>   1
Atom  35H    basis set group =>   2
Atom  36C    basis set group =>   1
Atom  37H    basis set group =>   2
Atom  38H    basis set group =>   2
Atom  39C    basis set group =>   1
Atom  40H    basis set group =>   2
Atom  41H    basis set group =>   2
Atom  42H    basis set group =>   2
Atom  43C    basis set group =>   1
Atom  44C    basis set group =>   1
Atom  45H    basis set group =>   2
Atom  46H    basis set group =>   2
Atom  47H    basis set group =>   2
Atom  48H    basis set group =>   2
Atom  49C    basis set group =>   1
Atom  50C    basis set group =>   1
Atom  51C    basis set group =>   1
Atom  52H    basis set group =>   2
Atom  53H    basis set group =>   2
Atom  54C    basis set group =>   1
Atom  55C    basis set group =>   1
Atom  56C    basis set group =>   1
Atom  57H    basis set group =>   2
Atom  58H    basis set group =>   2
Atom  59C    basis set group =>   1
Atom  60C    basis set group =>   1
Atom  61H    basis set group =>   2
Atom  62H    basis set group =>   2
Atom  63H    basis set group =>   2
Atom  64H    basis set group =>   2
Atom  65H    basis set group =>   2
Atom  66H    basis set group =>   2
Atom  67H    basis set group =>   2
Atom  68H    basis set group =>   2
Atom  69H    basis set group =>   2
Atom  70H    basis set group =>   2
Atom  71H    basis set group =>   2
Atom  72H    basis set group =>   2

-------------------------
BASIS SET IN INPUT FORMAT
-------------------------

 # Basis set for element : H 
 NewGTO H 
 S 3 
   1      13.0107010000      0.0334854848
   2       1.9622572000      0.2347218709
   3       0.4445379600      0.8137702853
 S 1 
   1       0.1219496200      1.0000000000
 P 1 
   1       0.8000000000      1.0000000000
  end;

 # Basis set for element : C 
 NewGTO C 
 S 5 
   1    1238.4016938000      0.0055173650
   2     186.2900499200      0.0410888285
   3      42.2511763460      0.1822538213
   4      11.6765579320      0.4682845944
   5       3.5930506482      0.4457581734
 S 1 
   1       0.4024514736      1.0000000000
 S 1 
   1       0.1309018267      1.0000000000
 P 3 
   1       9.4680970621      0.0568883320
   2       2.0103545142      0.3129405934
   3       0.5477100471      0.7606501651
 P 1 
   1       0.1526861379      1.0000000000
 D 1 
   1       0.8000000000      1.0000000000
  end;

 # Basis set for element : O 
 NewGTO O 
 S 5 
   1    2266.1767785000     -0.0053893504
   2     340.8701019100     -0.0402347214
   3      77.3631351670     -0.1800818421
   4      21.4796449400     -0.4682885766
   5       6.6589433124     -0.4469261716
 S 1 
   1       0.8097597567      1.0000000000
 S 1 
   1       0.2553077223      1.0000000000
 P 3 
   1      17.7215043170      0.0626302488
   2       3.8635505440      0.3333113849
   3       1.0480920883      0.7414863830
 P 1 
   1       0.2764154441      1.0000000000
 D 1 
   1       1.2000000000      1.0000000000
  end;

---------------------------------
AUXILIARY/J BASIS SET INFORMATION
---------------------------------
There are 3 groups of distinct atoms

 Group   1 Type C   : 12s5p4d2f1g contracted to 6s4p3d1f1g pattern {711111/2111/211/2/1}
 Group   2 Type H   : 5s2p1d contracted to 3s1p1d pattern {311/2/1}
 Group   3 Type O   : 12s5p4d2f1g contracted to 6s4p3d1f1g pattern {711111/2111/211/2/1}

Atom   0C    basis set group =>   1
Atom   1C    basis set group =>   1
Atom   2C    basis set group =>   1
Atom   3H    basis set group =>   2
Atom   4H    basis set group =>   2
Atom   5C    basis set group =>   1
Atom   6C    basis set group =>   1
Atom   7C    basis set group =>   1
Atom   8H    basis set group =>   2
Atom   9H    basis set group =>   2
Atom  10H    basis set group =>   2
Atom  11H    basis set group =>   2
Atom  12O    basis set group =>   3
Atom  13H    basis set group =>   2
Atom  14C    basis set group =>   1
Atom  15C    basis set group =>   1
Atom  16H    basis set group =>   2
Atom  17H    basis set group =>   2
Atom  18C    basis set group =>   1
Atom  19H    basis set group =>   2
Atom  20C    basis set group =>   1
Atom  21H    basis set group =>   2
Atom  22C    basis set group =>   1
Atom  23C    basis set group =>   1
Atom  24H    basis set group =>   2
Atom  25H    basis set group =>   2
Atom  26C    basis set group =>   1
Atom  27H    basis set group =>   2
Atom  28H    basis set group =>   2
Atom  29C    basis set group =>   1
Atom  30H    basis set group =>   2
Atom  31H    basis set group =>   2
Atom  32C    basis set group =>   1
Atom  33H    basis set group =>   2
Atom  34C    basis set group =>   1
Atom  35H    basis set group =>   2
Atom  36C    basis set group =>   1
Atom  37H    basis set group =>   2
Atom  38H    basis set group =>   2
Atom  39C    basis set group =>   1
Atom  40H    basis set group =>   2
Atom  41H    basis set group =>   2
Atom  42H    basis set group =>   2
Atom  43C    basis set group =>   1
Atom  44C    basis set group =>   1
Atom  45H    basis set group =>   2
Atom  46H    basis set group =>   2
Atom  47H    basis set group =>   2
Atom  48H    basis set group =>   2
Atom  49C    basis set group =>   1
Atom  50C    basis set group =>   1
Atom  51C    basis set group =>   1
Atom  52H    basis set group =>   2
Atom  53H    basis set group =>   2
Atom  54C    basis set group =>   1
Atom  55C    basis set group =>   1
Atom  56C    basis set group =>   1
Atom  57H    basis set group =>   2
Atom  58H    basis set group =>   2
Atom  59C    basis set group =>   1
Atom  60C    basis set group =>   1
Atom  61H    basis set group =>   2
Atom  62H    basis set group =>   2
Atom  63H    basis set group =>   2
Atom  64H    basis set group =>   2
Atom  65H    basis set group =>   2
Atom  66H    basis set group =>   2
Atom  67H    basis set group =>   2
Atom  68H    basis set group =>   2
Atom  69H    basis set group =>   2
Atom  70H    basis set group =>   2
Atom  71H    basis set group =>   2
Atom  72H    basis set group =>   2

-------------------------------------
AUXILIARY/J BASIS SET IN INPUT FORMAT
-------------------------------------

 # Auxiliary/J basis set for element : H 
 NewAuxJGTO H 
 S 3 
   1      15.6752927000      0.1007184237
   2       3.6063578000      0.3404257499
   3       1.2080016000      0.6491996172
 S 1 
   1       0.4726794000      1.0000000000
 S 1 
   1       0.2018100000      1.0000000000
 P 2 
   1       2.0281365000      0.5596620919
   2       0.5358730000      0.5596620919
 D 1 
   1       2.2165124000      1.0000000000
  end;

 # Auxiliary/J basis set for element : C 
 NewAuxJGTO C 
 S 7 
   1    1861.0916331000      0.0134602335
   2     642.9939764000      0.0299160374
   3     235.1105725000      0.1008649584
   4      90.7028894000      0.2370970548
   5      36.7794552000      0.3924037254
   6      15.6046273000      0.3195862154
   7       6.8907294000      0.0530104441
 S 1 
   1       3.1478850000     -1.0000000000
 S 1 
   1       1.4777287000      1.0000000000
 S 1 
   1       0.7076466000      1.0000000000
 S 1 
   1       0.3430122000      1.0000000000
 S 1 
   1       0.1669453000      1.0000000000
 P 2 
   1      13.5472892000     -0.6769313712
   2       5.4669419000     -0.3779500978
 P 1 
   1       2.1751721000      1.0000000000
 P 1 
   1       0.8582194000      1.0000000000
 P 1 
   1       0.3376720000      1.0000000000
 D 2 
   1       5.9287253000     -0.3533329857
   2       1.9809209000     -0.7456525731
 D 1 
   1       0.8055417000     -1.0000000000
 D 1 
   1       0.3531244000     -1.0000000000
 F 2 
   1       1.6755626000      0.6311076882
   2       0.5997536000      0.4968166032
 G 1 
   1       1.0024600000     -1.0000000000
  end;

 # Auxiliary/J basis set for element : O 
 NewAuxJGTO O 
 S 7 
   1    2876.8216605000      0.0168151159
   2    1004.7443032000      0.0340137548
   3     369.7579954000      0.1194951309
   4     142.9442404000      0.2664627624
   5      57.8366425000      0.4202764046
   6      24.3864983000      0.2765077335
   7      10.6622662000      0.0057008815
 S 1 
   1       4.8070437000     -1.0000000000
 S 1 
   1       2.2210770000      1.0000000000
 S 1 
   1       1.0447795000      1.0000000000
 S 1 
   1       0.4968425000      1.0000000000
 S 1 
   1       0.2371384000      1.0000000000
 P 2 
   1      64.2613382000     -0.2731534179
   2      16.3006076000     -0.8168011598
 P 1 
   1       4.3550542000      1.0000000000
 P 1 
   1       1.2019554000      1.0000000000
 P 1 
   1       0.3354196000      1.0000000000
 D 2 
   1       9.2146611000     -0.4661230638
   2       2.8435251000     -0.6600908911
 D 1 
   1       0.9955759000     -1.0000000000
 D 1 
   1       0.3649441000     -1.0000000000
 F 2 
   1       2.6420115000      0.5931563945
   2       0.7345613000      0.5931563945
 G 1 
   1       1.3931000000     -1.0000000000
  end;


Checking for AutoStart:
The File: inpS.gbw exists
Trying to determine its content:
     ... Fine, the file contains calculation information
     ... Fine, the calculation information was read
     ... Fine, the file contains a basis set
     ... Fine, the basis set was read
     ... Fine, the file contains a geometry
     ... Fine, the geometry was read
     ... Fine, the file contains a set of orbitals
     ... Fine, the orbitals can be read
     => possible old guess file was deleted
     => GBW file was renamed to GES file
     => GES file is set as startup file
     => Guess is set to MORead
     ... now leaving AutoStart



           ************************************************************
           *        Program running with 4 parallel MPI-processes     *
           *              working on a common directory               *
           ************************************************************
------------------------------------------------------------------------------
                             ORCA STARTUP CALCULATIONS
                           -- RI-GTO INTEGRALS CHOSEN --
------------------------------------------------------------------------------
------------------------------------------------------------------------------
                   ___                                                        
                  /   \      - P O W E R E D   B Y -                         
                 /     \                                                     
                 |  |  |   _    _      __       _____    __    __             
                 |  |  |  | |  | |    /  \     |  _  \  |  |  /  |          
                  \  \/   | |  | |   /    \    | | | |  |  | /  /          
                 / \  \   | |__| |  /  /\  \   | |_| |  |  |/  /          
                |  |  |   |  __  | /  /__\  \  |    /   |      \           
                |  |  |   | |  | | |   __   |  |    \   |  |\   \          
                \     /   | |  | | |  |  |  |  | |\  \  |  | \   \       
                 \___/    |_|  |_| |__|  |__|  |_| \__\ |__|  \__/        
                                                                              
                      - O R C A' S   B I G   F R I E N D -                    
                                      &                                       
                       - I N T E G R A L  F E E D E R -                       
                                                                              
 v1 FN, 2020, v2 2021, v3 2022-2024                                           
------------------------------------------------------------------------------


----------------------
SHARK INTEGRAL PACKAGE
----------------------

Number of atoms                             ...     73
Number of basis functions                   ...    626
Number of shells                            ...    306
Maximum angular momentum                    ...      2
Integral batch strategy                     ... SHARK/LIBINT Hybrid
RI-J (if used) integral strategy            ... SPLIT-RIJ (Revised 2003 algorithm where possible)
Printlevel                                  ...      1
Contraction scheme used                     ... SEGMENTED contraction
Prescreening option                         ... SCHWARTZ
   Thresh                                   ... 3.000e-11
   Tcut                                     ... 1.000e-12
   Tpresel                                  ... 1.000e-12 
Coulomb Range Separation                    ... NOT USED
Exchange Range Separation                   ... Long Range
   Mu parameter                             ... 3.000e-01
   Scaling (regular/separated)              ... 1.670e-01 8.330e-01
Multipole approximations                    ... NOT USED
Finite Nucleus Model                        ... NOT USED
CABS basis                                  ... NOT available
Auxiliary Coulomb fitting basis             ... AVAILABLE
   # of basis functions in Aux-J            ...   1905
   # of shells in Aux-J                     ...    655
   Maximum angular momentum in Aux-J        ...      4
Auxiliary J/K fitting basis                 ... NOT available
Auxiliary Correlation fitting basis         ... NOT available
Auxiliary 'external' fitting basis          ... NOT available

Checking pre-screening integrals            ... done (  0.0 sec) Dimension = 306
Check shell pair data                       ... done (  0.0 sec)
Shell pair information
Shell pair cut-off parameter TPreSel        ...   1.0e-12
Total number of shell pairs                 ...     46971
Shell pairs after pre-screening             ...     27153
Total number of primitive shell pairs       ...    162105
Primitive shell pairs kept                  ...     59980
          la=0 lb=0:   9504 shell pairs
          la=1 lb=0:  10415 shell pairs
          la=1 lb=1:   2877 shell pairs
          la=2 lb=0:   2708 shell pairs
          la=2 lb=1:   1457 shell pairs
          la=2 lb=2:    192 shell pairs

Calculating one electron integrals          ... done (  0.1 sec)
Calculating RI/J V-Matrix + Cholesky decomp.... done (  0.2 sec)
Calculating Nuclear repulsion               ... done (  0.0 sec) ENN=   2754.793884342545 Eh

Diagonalization of the overlap matrix:
Smallest eigenvalue                        ... 4.405e-04
Time for diagonalization                   ...    0.046 sec
Threshold for overlap eigenvalues          ... 1.000e-07
Number of eigenvalues below threshold      ... 0
Time for construction of square roots      ...    0.025 sec
Total time needed                          ...    0.074 sec

-------------------
DFT GRID GENERATION
-------------------

General Integration Accuracy     IntAcc      ... 4.388
Radial Grid Type                 RadialGrid  ... OptM3 with GC (2021)
Angular Grid (max. ang.)         AngularGrid ... 4 (Lebedev-302)
Angular grid pruning method      GridPruning ... 4 (adaptive)
Weight generation scheme         WeightScheme... mBecke (2022)
Basis function cutoff            BFCut       ... 1.0000e-11
Integration weight cutoff        WCut        ... 1.0000e-14
Partially contracted basis set               ... off
Rotationally invariant grid construction     ... off
Angular grids for H and He will be reduced by one unit

Total number of grid points                  ...   309947
Total number of batches                      ...     4880
Average number of points per batch           ...       63
Average number of grid points per atom       ...     4246

--------------------
COSX GRID GENERATION
--------------------

GRIDX 1
-------
General Integration Accuracy     IntAcc      ... 3.816
Radial Grid Type                 RadialGrid  ... OptM3 with GC (2021)
Angular Grid (max. ang.)         AngularGrid ... 1 (Lebedev-50)
Angular grid pruning method      GridPruning ... 4 (adaptive)
Weight generation scheme         WeightScheme... mBecke (2022)
Basis function cutoff            BFCut       ... 1.0000e-11
Integration weight cutoff        WCut        ... 1.0000e-14
Partially contracted basis set               ... on
Rotationally invariant grid construction     ... off
Angular grids for H and He will be reduced by one unit

Total number of grid points                  ...    39435
Total number of batches                      ...      351
Average number of points per batch           ...      112
Average number of grid points per atom       ...      540
UseSFitting                                  ... on

GRIDX 2
-------
General Integration Accuracy     IntAcc      ... 4.020
Radial Grid Type                 RadialGrid  ... OptM3 with GC (2021)
Angular Grid (max. ang.)         AngularGrid ... 2 (Lebedev-110)
Angular grid pruning method      GridPruning ... 4 (adaptive)
Weight generation scheme         WeightScheme... mBecke (2022)
Basis function cutoff            BFCut       ... 1.0000e-11
Integration weight cutoff        WCut        ... 1.0000e-14
Partially contracted basis set               ... on
Rotationally invariant grid construction     ... off
Angular grids for H and He will be reduced by one unit

Total number of grid points                  ...    81436
Total number of batches                      ...      676
Average number of points per batch           ...      120
Average number of grid points per atom       ...     1116
UseSFitting                                  ... on

GRIDX 3
-------
General Integration Accuracy     IntAcc      ... 4.338
Radial Grid Type                 RadialGrid  ... OptM3 with GC (2021)
Angular Grid (max. ang.)         AngularGrid ... 3 (Lebedev-194)
Angular grid pruning method      GridPruning ... 4 (adaptive)
Weight generation scheme         WeightScheme... mBecke (2022)
Basis function cutoff            BFCut       ... 1.0000e-11
Integration weight cutoff        WCut        ... 1.0000e-14
Partially contracted basis set               ... on
Rotationally invariant grid construction     ... off
Angular grids for H and He will be reduced by one unit

Total number of grid points                  ...   176476
Total number of batches                      ...     1420
Average number of points per batch           ...      124
Average number of grid points per atom       ...     2417
UseSFitting                                  ... on
Initializing property integral containers    ... done (  0.0 sec)

SHARK setup successfully completed in   4.4 seconds

Maximum memory used throughout the entire STARTUP-calculation: 95.0 MB


           ************************************************************
           *        Program running with 4 parallel MPI-processes     *
           *              working on a common directory               *
           ************************************************************
-------------------------------------------------------------------------------
                                 ORCA GUESS
                   Start orbitals & Density for SCF / CASSCF
-------------------------------------------------------------------------------

------------
SCF SETTINGS
------------
Hamiltonian:
 Density Functional     Method          .... DFT(GTOs)
 Exchange Functional    Exchange        .... WB97X-V
 Correlation Functional Correlation     .... WB97X-V
 Gradients option       PostSCFGGA      .... off
 Hybrid DFT is turned on
   Fraction HF Exchange ScalHFX         ....  0.167000
   Scaling of DF-GGA-X  ScalDFX         ....  0.000000
   Scaling of DF-GGA-C  ScalDFC         ....  1.000000
   Scaling of DF-LDA-C  ScalLDAC        ....  1.000000
   Perturbative correction              ....  0.000000
 Long-range corrected/Screened/Range-Separated Hybrid DFT is turned on
   Amount of maximum screened exact exchange              ....  0.833000
   Range separation parameter mu (erf(mu*r12)/r12)        ....  0.300000
 RI-approximation to the Coulomb term is turned on
   Number of AuxJ basis functions       .... 1905
   RIJ-COSX (HFX calculated with COS-X)).... on


General Settings:
 Integral files         IntName         .... inpS
 Hartree-Fock type      HFTyp           .... RHF
 Total Charge           Charge          ....    0
 Multiplicity           Mult            ....    1
 Number of Electrons    NEL             ....  220
 Basis Dimension        Dim             ....  626
 Nuclear Repulsion      ENuc            ....   2754.7938843425 Eh

Convergence Acceleration:
 AO-DIIS                CNVDIIS         .... on
   Start iteration      DIISMaxIt       ....    12
   Startup error        DIISStart       ....  0.200000
   # of expansion vecs  DIISMaxEq       ....     5
   Bias factor          DIISBfac        ....   1.050
   Max. coefficient     DIISMaxC        ....  10.000
 MO-DIIS                CNVKDIIS        .... off
 Trust-Rad. Augm. Hess. CNVTRAH         .... auto
   Auto Start mean grad. ratio tolernc. ....  1.125000
   Auto Start start iteration           ....     1
   Auto Start num. interpolation iter.  ....    10
   Max. Number of Micro iterations      ....    24
   Max. Number of Macro iterations      .... Maxiter - #DIIS iter
   Number of Davidson start vectors     ....     2
   Converg. threshold    (grad. norm)   ....   1.000e-04
   Grad. Scal. Fac. for Micro threshold ....   0.100
   Minimum threshold for Micro iter.    ....   1.000e-02
   NR start threshold (gradient norm)   ....   1.000e-04
   Initial trust radius                 ....   0.400
   Minimum AH scaling param. (alpha)    ....   1.000
   Maximum AH scaling param. (alpha)    .... 1000.000
   Quad. conv. algorithm                .... NR
   White noise on init. David. guess    .... on
   Maximum white noise                  ....   0.010
   Pseudo random numbers                .... off
   Inactive MOs                         .... canonical
   Orbital update algorithm             .... Taylor
   Preconditioner                       .... Diag
   Full preconditioner red. dimension   ....   250
 SOSCF                  CNVSOSCF        .... off
 Level Shifting         CNVShift        .... on
   Level shift para.    LevelShift      ....    0.2500
   Turn off err/grad.   ShiftErr        ....    0.0010
 Zerner damping         CNVZerner       .... off
 Static damping         CNVDamp         .... on
   Fraction old density DampFac         ....    0.7000
   Max. Damping (<1)    DampMax         ....    0.9800
   Min. Damping (>=0)   DampMin         ....    0.0000
   Turn off err/grad.   DampErr         ....    0.1000

SCF Procedure:
 Maximum # iterations   MaxIter         ....   125
 SCF integral mode      SCFMode         .... Direct
   Integral package                     .... SHARK and LIBINT hybrid scheme
 Reset frequency        DirectResetFreq ....    20
 Integral Threshold     Thresh          ....  3.000e-11 Eh
 Primitive CutOff       TCut            ....  1.000e-12 Eh

Convergence Tolerance:
 Convergence Check Mode ConvCheckMode   .... Total+1el-Energy
 Convergence forced     ConvForced      .... 0
 Energy Change          TolE            ....  1.000e-07 Eh
 1-El. energy change                    ....  1.000e-04 Eh
 DIIS Error             TolErr          ....  1.000e-07

---------------------
INITIAL GUESS: MOREAD
---------------------
Guess MOs are being read from file: inpS.ges
Input Geometry matches current geometry (good)
Input basis set matches current basis set (good)
Occupation numbers will be reassigned to an Aufbau configuration
MOs were renormalized
MOs were reorthogonalized (Cholesky)
                      ------------------
                      INITIAL GUESS DONE (   0.2 sec)
                      ------------------
             **** ENERGY FILE WAS UPDATED (inpS.en.tmp) ****
Finished Guess after   0.3 sec
Maximum memory used throughout the entire GUESS-calculation: 52.0 MB


           ************************************************************
           *        Program running with 4 parallel MPI-processes     *
           *              working on a common directory               *
           ************************************************************

-------------------------------------------------------------------------------------------
                                      ORCA LEAN-SCF
                              memory conserving SCF solver
-------------------------------------------------------------------------------------------

--------------------
CPCM SOLVATION MODEL
--------------------
CPCM parameters:
  Epsilon                                         ...       4.8030
  Refrac                                          ...       1.4459
  Rsolv                                           ...       1.3000
  Surface type                                    ... GAUSSIAN VDW
  Discretization scheme                           ... Constant charge density
    Threshold for H atoms                         ...       5.0000 (charges/Ang^2)
    Threshold for non-H atoms                     ...       5.0000 (charges/Ang^2)
  Epsilon function type                           ...         CPCM
Solvent:                                          ... CHLOROFORM
Radii:
  Scheme                                          ... Element-dependent radii
  Radius for C  used is    3.8550 Bohr (=   2.0400 Ang.)
  Radius for H  used is    2.4944 Bohr (=   1.3200 Ang.)
  Radius for O  used is    3.4469 Bohr (=   1.8240 Ang.)
Calculating surface                               ...        done! (  0.0s)
Cavity surface points                             ...         5402
Cavity Volume                                     ...    3601.0289
Cavity Surface-area                               ...    1792.7744
Calculating surface distance matrix               ...        done! (  0.2s)
Performing Cholesky decomposition & store         ...        done! (  0.9s)
Overall time for CPCM initialization              ...                 1.1s

----------------------------------------D-I-I-S--------------------------------------------
Iteration    Energy (Eh)           Delta-E    RMSDP     MaxDP     DIISErr   Damp  Time(sec)
-------------------------------------------------------------------------------------------
               ***  Starting incremental Fock matrix formation  ***
    1    -1168.3616737203792582     0.00e+00  3.32e-08  1.81e-06  5.69e-06  0.700  23.1

  HOMO= 109 E= -7.883 eV LUMO=  8.093 eV gap=  15.976 eV
    2    -1168.3616737131442278     7.24e-09  2.83e-08  1.44e-06  2.86e-06  0.700   4.7
                 **** Energy Check signals convergence ****

  HOMO= 109 E= -7.883 eV LUMO=  8.093 eV gap=  15.976 eV

               *****************************************************
               *                     SUCCESS                       *
               *           SCF CONVERGED AFTER   2 CYCLES          *
               *****************************************************

Recomputing exchange energy using gridx3       ... done (   40.580 sec)
Old exchange energy                            :    -56.782882575 Eh
New exchange energy                            :    -56.782834466 Eh
Exchange energy change after final integration :      0.000048108 Eh
Total energy after final integration           :  -1168.361625605 Eh
             **** ENERGY FILE WAS UPDATED (inpS.en.tmp) ****

----------------
TOTAL SCF ENERGY
----------------

Total Energy       :      -1168.36162560476760 Eh          -31792.73614 eV

Components:
Nuclear Repulsion  :       2754.79388434254452 Eh           74961.75257 eV
Electronic Energy  :      -3923.14490035130621 Eh         -106754.20002 eV
One Electron Energy:      -7054.89170799465228 Eh         -191973.36311 eV
Two Electron Energy:       3131.74680764334607 Eh           85219.16309 eV
CPCM Dielectric    :         -0.01065770438256 Eh              -0.29001 eV

Virial components:
Potential Energy   :      -2321.67548135783909 Eh          -63176.00165 eV
Kinetic Energy     :       1153.31385575307127 Eh           31383.26551 eV
Virial Ratio       :          2.01304741963918

DFT components:
N(Alpha)           :      110.000087852603 electrons
N(Beta)            :      110.000087852603 electrons
N(Total)           :      220.000175705207 electrons
E(X)               :     -111.770488822207 Eh       
E(C)               :       -8.951572458946 Eh       
E(XC)              :     -120.722061281154 Eh       

CPCM Solvation Model Properties:
Surface-charge          :         -0.04165758455740
Corrected charge        :         -0.00000000000000
Outlying charge corr.   :          0.00006031093402 Eh               0.00164 eV
Free-energy (cav+disp)  :  This term is not implemented in the current solvation scheme

---------------
SCF CONVERGENCE
---------------

  Last Energy change         ...   -7.2350e-09  Tolerance :   1.0000e-07
  Last MAX-Density change    ...    1.4367e-06  Tolerance :   1.0000e-05
  Last RMS-Density change    ...    2.8275e-08  Tolerance :   1.0000e-06
  Last DIIS Error            ...    2.8594e-06  Tolerance :   1.0000e-07


----------------
ORBITAL ENERGIES
----------------

  NO   OCC          E(Eh)            E(eV) 
   0   2.0000     -19.213652      -522.8300 
   1   2.0000     -10.329768      -281.0873 
   2   2.0000     -10.293491      -280.1001 
   3   2.0000     -10.290263      -280.0123 
   4   2.0000     -10.286139      -279.9001 
   5   2.0000     -10.286082      -279.8985 
   6   2.0000     -10.285182      -279.8740 
   7   2.0000     -10.282926      -279.8126 
   8   2.0000     -10.282183      -279.7924 
   9   2.0000     -10.282013      -279.7878 
  10   2.0000     -10.281430      -279.7719 
  11   2.0000     -10.280872      -279.7568 
  12   2.0000     -10.279454      -279.7182 
  13   2.0000     -10.278498      -279.6922 
  14   2.0000     -10.278359      -279.6884 
  15   2.0000     -10.277122      -279.6547 
  16   2.0000     -10.276792      -279.6457 
  17   2.0000     -10.276439      -279.6361 
  18   2.0000     -10.272365      -279.5253 
  19   2.0000     -10.272027      -279.5161 
  20   2.0000     -10.271650      -279.5058 
  21   2.0000     -10.271552      -279.5031 
  22   2.0000     -10.271521      -279.5023 
  23   2.0000     -10.271004      -279.4882 
  24   2.0000     -10.268641      -279.4239 
  25   2.0000     -10.268501      -279.4201 
  26   2.0000     -10.268046      -279.4077 
  27   2.0000     -10.267079      -279.3814 
  28   2.0000     -10.266612      -279.3687 
  29   2.0000      -1.131553       -30.7911 
  30   2.0000      -0.998243       -27.1636 
  31   2.0000      -0.979156       -26.6442 
  32   2.0000      -0.957327       -26.0502 
  33   2.0000      -0.942590       -25.6492 
  34   2.0000      -0.917324       -24.9617 
  35   2.0000      -0.910796       -24.7840 
  36   2.0000      -0.889459       -24.2034 
  37   2.0000      -0.887191       -24.1417 
  38   2.0000      -0.872020       -23.7289 
  39   2.0000      -0.853048       -23.2126 
  40   2.0000      -0.834155       -22.6985 
  41   2.0000      -0.824721       -22.4418 
  42   2.0000      -0.809196       -22.0193 
  43   2.0000      -0.800957       -21.7951 
  44   2.0000      -0.795179       -21.6379 
  45   2.0000      -0.787151       -21.4195 
  46   2.0000      -0.761849       -20.7310 
  47   2.0000      -0.757761       -20.6197 
  48   2.0000      -0.728951       -19.8358 
  49   2.0000      -0.713168       -19.4063 
  50   2.0000      -0.712227       -19.3807 
  51   2.0000      -0.702008       -19.1026 
  52   2.0000      -0.689903       -18.7732 
  53   2.0000      -0.673218       -18.3192 
  54   2.0000      -0.647802       -17.6276 
  55   2.0000      -0.632109       -17.2006 
  56   2.0000      -0.623219       -16.9586 
  57   2.0000      -0.620320       -16.8798 
  58   2.0000      -0.605056       -16.4644 
  59   2.0000      -0.601851       -16.3772 
  60   2.0000      -0.590545       -16.0695 
  61   2.0000      -0.584803       -15.9133 
  62   2.0000      -0.575221       -15.6526 
  63   2.0000      -0.567912       -15.4537 
  64   2.0000      -0.563702       -15.3391 
  65   2.0000      -0.559073       -15.2132 
  66   2.0000      -0.557199       -15.1622 
  67   2.0000      -0.547721       -14.9043 
  68   2.0000      -0.546427       -14.8690 
  69   2.0000      -0.542247       -14.7553 
  70   2.0000      -0.537529       -14.6269 
  71   2.0000      -0.532805       -14.4984 
  72   2.0000      -0.526495       -14.3267 
  73   2.0000      -0.520241       -14.1565 
  74   2.0000      -0.518186       -14.1006 
  75   2.0000      -0.515999       -14.0410 
  76   2.0000      -0.505877       -13.7656 
  77   2.0000      -0.501515       -13.6469 
  78   2.0000      -0.497428       -13.5357 
  79   2.0000      -0.492335       -13.3971 
  80   2.0000      -0.489109       -13.3093 
  81   2.0000      -0.487265       -13.2592 
  82   2.0000      -0.483658       -13.1610 
  83   2.0000      -0.478802       -13.0289 
  84   2.0000      -0.473455       -12.8834 
  85   2.0000      -0.466887       -12.7046 
  86   2.0000      -0.462513       -12.5856 
  87   2.0000      -0.458150       -12.4669 
  88   2.0000      -0.456975       -12.4349 
  89   2.0000      -0.453216       -12.3326 
  90   2.0000      -0.448091       -12.1932 
  91   2.0000      -0.445931       -12.1344 
  92   2.0000      -0.439175       -11.9506 
  93   2.0000      -0.431607       -11.7446 
  94   2.0000      -0.426170       -11.5967 
  95   2.0000      -0.425022       -11.5654 
  96   2.0000      -0.422349       -11.4927 
  97   2.0000      -0.421112       -11.4590 
  98   2.0000      -0.415628       -11.3098 
  99   2.0000      -0.414208       -11.2712 
 100   2.0000      -0.410442       -11.1687 
 101   2.0000      -0.407647       -11.0926 
 102   2.0000      -0.404919       -11.0184 
 103   2.0000      -0.400386       -10.8951 
 104   2.0000      -0.394666       -10.7394 
 105   2.0000      -0.381962       -10.3937 
 106   2.0000      -0.372291       -10.1305 
 107   2.0000      -0.357157        -9.7187 
 108   2.0000      -0.335268        -9.1231 
 109   2.0000      -0.289690        -7.8829 
 110   0.0000       0.047417         1.2903 
 111   0.0000       0.100469         2.7339 
 112   0.0000       0.109814         2.9882 
 113   0.0000       0.134154         3.6505 
 114   0.0000       0.146248         3.9796 
 115   0.0000       0.147067         4.0019 
 116   0.0000       0.150700         4.1008 
 117   0.0000       0.156486         4.2582 
 118   0.0000       0.157819         4.2945 
 119   0.0000       0.158903         4.3240 
 120   0.0000       0.168398         4.5823 
*Only the first 10 virtual orbitals were printed.

                    ********************************
                    * MULLIKEN POPULATION ANALYSIS *
                    ********************************

-----------------------
MULLIKEN ATOMIC CHARGES
-----------------------
   0 C :   -0.126943
   1 C :    0.144067
   2 C :    0.082078
   3 H :    0.016918
   4 H :    0.013272
   5 C :   -0.184516
   6 C :    0.111052
   7 C :    0.006018
   8 H :    0.030008
   9 H :    0.012170
  10 H :    0.023650
  11 H :    0.011607
  12 O :   -0.355260
  13 H :    0.014109
  14 C :   -0.025673
  15 C :   -0.044728
  16 H :    0.036405
  17 H :    0.029322
  18 C :   -0.059824
  19 H :   -0.006352
  20 C :   -0.116448
  21 H :    0.001059
  22 C :    0.114259
  23 C :   -0.000689
  24 H :    0.012766
  25 H :    0.017369
  26 C :    0.106047
  27 H :    0.012551
  28 H :    0.014974
  29 C :   -0.404474
  30 H :    0.008669
  31 H :   -0.002404
  32 C :   -0.043782
  33 H :    0.011592
  34 C :    0.122314
  35 H :    0.181714
  36 C :    0.045770
  37 H :    0.007530
  38 H :    0.015624
  39 C :   -0.051956
  40 H :    0.013638
  41 H :    0.010864
  42 H :   -0.010416
  43 C :   -0.003762
  44 C :    0.092353
  45 H :    0.023399
  46 H :    0.018758
  47 H :    0.019073
  48 H :    0.001627
  49 C :    0.059530
  50 C :   -0.085484
  51 C :   -0.084282
  52 H :    0.013767
  53 H :    0.008722
  54 C :   -0.057345
  55 C :    0.049959
  56 C :   -0.166956
  57 H :    0.015142
  58 H :    0.012034
  59 C :    0.022261
  60 C :    0.026121
  61 H :    0.021357
  62 H :    0.025884
  63 H :    0.015994
  64 H :    0.017987
  65 H :    0.019115
  66 H :    0.016274
  67 H :    0.021028
  68 H :    0.016548
  69 H :    0.019519
  70 H :    0.019518
  71 H :    0.028635
  72 H :    0.019273
Sum of atomic charges:   -0.0000000

--------------------------------
MULLIKEN REDUCED ORBITAL CHARGES
--------------------------------
  0 C s       :     3.077825  s :     3.077825
      pz      :     1.005065  p :     3.006294
      px      :     0.996567
      py      :     1.004662
      dz2     :     0.003479  d :     0.042825
      dxz     :     0.007481
      dyz     :     0.006108
      dx2y2   :     0.014196
      dxy     :     0.011561

  1 C s       :     2.932306  s :     2.932306
      pz      :     0.972174  p :     2.889183
      px      :     0.946133
      py      :     0.970876
      dz2     :     0.006221  d :     0.034445
      dxz     :     0.009795
      dyz     :     0.005332
      dx2y2   :     0.008723
      dxy     :     0.004374

  2 C s       :     3.074998  s :     3.074998
      pz      :     1.026577  p :     2.771761
      px      :     0.785331
      py      :     0.959852
      dz2     :     0.010621  d :     0.071163
      dxz     :     0.017562
      dyz     :     0.010387
      dx2y2   :     0.018353
      dxy     :     0.014240

  3 H s       :     0.959889  s :     0.959889
      pz      :     0.010092  p :     0.023193
      px      :     0.008722
      py      :     0.004379

  4 H s       :     0.963939  s :     0.963939
      pz      :     0.004646  p :     0.022789
      px      :     0.003859
      py      :     0.014283

  5 C s       :     3.112197  s :     3.112197
      pz      :     1.003603  p :     3.027537
      px      :     0.973293
      py      :     1.050640
      dz2     :     0.011269  d :     0.044782
      dxz     :     0.007482
      dyz     :     0.012579
      dx2y2   :     0.007493
      dxy     :     0.005959

  6 C s       :     2.949163  s :     2.949163
      pz      :     0.968848  p :     2.904315
      px      :     0.969448
      py      :     0.966019
      dz2     :     0.005957  d :     0.035469
      dxz     :     0.010107
      dyz     :     0.005712
      dx2y2   :     0.008970
      dxy     :     0.004722

  7 C s       :     3.013510  s :     3.013510
      pz      :     0.989629  p :     2.945444
      px      :     0.994866
      py      :     0.960949
      dz2     :     0.004657  d :     0.035028
      dxz     :     0.008946
      dyz     :     0.007028
      dx2y2   :     0.009525
      dxy     :     0.004872

  8 H s       :     0.946708  s :     0.946708
      pz      :     0.010716  p :     0.023284
      px      :     0.008170
      py      :     0.004398

  9 H s       :     0.965011  s :     0.965011
      pz      :     0.004875  p :     0.022818
      px      :     0.003794
      py      :     0.014149

 10 H s       :     0.953664  s :     0.953664
      pz      :     0.011020  p :     0.022687
      px      :     0.004965
      py      :     0.006702

 11 H s       :     0.965704  s :     0.965704
      pz      :     0.010334  p :     0.022689
      px      :     0.008262
      py      :     0.004093

 12 O s       :     3.726415  s :     3.726415
      pz      :     1.546964  p :     4.616648
      px      :     1.232086
      py      :     1.837597
      dz2     :     0.002225  d :     0.012197
      dxz     :     0.005062
      dyz     :     0.001523
      dx2y2   :     0.001564
      dxy     :     0.001824

 13 H s       :     0.965659  s :     0.965659
      pz      :     0.010320  p :     0.020232
      px      :     0.006293
      py      :     0.003619

 14 C s       :     3.197387  s :     3.197387
      pz      :     0.980728  p :     2.792062
      px      :     0.902762
      py      :     0.908571
      dz2     :     0.002973  d :     0.036224
      dxz     :     0.007737
      dyz     :     0.003470
      dx2y2   :     0.012390
      dxy     :     0.009654

 15 C s       :     3.123054  s :     3.123054
      pz      :     0.977983  p :     2.895429
      px      :     1.003931
      py      :     0.913515
      dz2     :     0.007457  d :     0.026245
      dxz     :     0.004620
      dyz     :     0.007782
      dx2y2   :     0.004108
      dxy     :     0.002278

 16 H s       :     0.939051  s :     0.939051
      pz      :     0.010516  p :     0.024544
      px      :     0.006031
      py      :     0.007997

 17 H s       :     0.946056  s :     0.946056
      pz      :     0.004145  p :     0.024623
      px      :     0.004662
      py      :     0.015815

 18 C s       :     3.200231  s :     3.200231
      pz      :     1.021993  p :     2.824296
      px      :     0.891995
      py      :     0.910308
      dz2     :     0.003098  d :     0.035297
      dxz     :     0.007218
      dyz     :     0.003151
      dx2y2   :     0.012393
      dxy     :     0.009437

 19 H s       :     0.982037  s :     0.982037
      pz      :     0.004972  p :     0.024315
      px      :     0.003940
      py      :     0.015403

 20 C s       :     3.100011  s :     3.100011
      pz      :     0.958907  p :     2.972436
      px      :     0.981803
      py      :     1.031726
      dz2     :     0.003729  d :     0.044002
      dxz     :     0.007381
      dyz     :     0.006838
      dx2y2   :     0.014417
      dxy     :     0.011637

 21 H s       :     0.974426  s :     0.974426
      pz      :     0.004639  p :     0.024516
      px      :     0.003955
      py      :     0.015922

 22 C s       :     2.925190  s :     2.925190
      pz      :     0.997585  p :     2.924962
      px      :     0.976072
      py      :     0.951305
      dz2     :     0.009053  d :     0.035590
      dxz     :     0.004763
      dyz     :     0.005947
      dx2y2   :     0.009588
      dxy     :     0.006239

 23 C s       :     3.001148  s :     3.001148
      pz      :     1.014118  p :     2.963072
      px      :     0.963516
      py      :     0.985438
      dz2     :     0.009994  d :     0.036468
      dxz     :     0.007836
      dyz     :     0.002698
      dx2y2   :     0.010377
      dxy     :     0.005564

 24 H s       :     0.963992  s :     0.963992
      pz      :     0.005137  p :     0.023242
      px      :     0.013127
      py      :     0.004978

 25 H s       :     0.959313  s :     0.959313
      pz      :     0.013391  p :     0.023318
      px      :     0.004746
      py      :     0.005181

 26 C s       :     2.970808  s :     2.970808
      pz      :     0.967537  p :     2.887822
      px      :     0.977368
      py      :     0.942918
      dz2     :     0.006862  d :     0.035323
      dxz     :     0.006998
      dyz     :     0.005512
      dx2y2   :     0.008631
      dxy     :     0.007321

 27 H s       :     0.964578  s :     0.964578
      pz      :     0.013650  p :     0.022871
      px      :     0.004225
      py      :     0.004997

 28 H s       :     0.962384  s :     0.962384
      pz      :     0.004449  p :     0.022641
      px      :     0.003726
      py      :     0.014466

 29 C s       :     3.253660  s :     3.253660
      pz      :     1.044275  p :     3.099864
      px      :     0.997276
      py      :     1.058313
      dz2     :     0.011213  d :     0.050949
      dxz     :     0.011036
      dyz     :     0.009416
      dx2y2   :     0.010881
      dxy     :     0.008402

 30 H s       :     0.968271  s :     0.968271
      pz      :     0.009096  p :     0.023060
      px      :     0.008420
      py      :     0.005543

 31 H s       :     0.979863  s :     0.979863
      pz      :     0.013037  p :     0.022541
      px      :     0.004816
      py      :     0.004688

 32 C s       :     3.031914  s :     3.031914
      pz      :     0.989198  p :     2.968068
      px      :     0.946489
      py      :     1.032381
      dz2     :     0.008147  d :     0.043800
      dxz     :     0.007728
      dyz     :     0.008150
      dx2y2   :     0.011105
      dxy     :     0.008670

 33 H s       :     0.967120  s :     0.967120
      pz      :     0.012075  p :     0.021288
      px      :     0.004164
      py      :     0.005049

 34 C s       :     2.894385  s :     2.894385
      pz      :     0.987159  p :     2.948501
      px      :     0.983028
      py      :     0.978313
      dz2     :     0.005547  d :     0.034800
      dxz     :     0.006203
      dyz     :     0.007729
      dx2y2   :     0.009197
      dxy     :     0.006124

 35 H s       :     0.750176  s :     0.750176
[...]
 Total          141.520          174.230          191.326  iso=     169.025

 Orientation: 
  X           0.2334097   -0.5233860    0.8195041
  Y          -0.1690964   -0.8517895   -0.4958437
  Z           0.9575627   -0.0228405   -0.2873187

 --------------
 Nucleus  39C :
 --------------

Diamagnetic contribution to the shielding tensor (ppm) : 
           264.445          5.760        -7.122
             5.470        259.710         3.847
            -5.471          2.390       263.236

Paramagnetic contribution to the shielding tensor (ppm): 
          -100.134         -0.800         9.891
             3.114       -129.718         1.056
            13.062         -1.032      -136.195

Total shielding tensor (ppm): 
           164.310          4.960         2.769
             8.584        129.992         4.903
             7.591          1.358       127.041


 Diagonalized sT*s matrix:
 
 sDSO           259.907          262.711          264.773  iso=     262.464
 sPSO          -134.870         -132.819          -98.358  iso=    -122.016
        ---------------  ---------------  ---------------
 Total          125.037          129.892          166.415  iso=     140.448

 Orientation: 
  X          -0.0218465   -0.2294299   -0.9730800
  Y          -0.5155393    0.8365113   -0.1856558
  Z           0.8565874    0.4976050   -0.1365550

 --------------
 Nucleus  43C :
 --------------

Diamagnetic contribution to the shielding tensor (ppm) : 
           259.041          1.620        -5.001
             0.166        247.455         6.889
            -6.198          0.511       253.295

Paramagnetic contribution to the shielding tensor (ppm): 
           -93.927         -3.951        -3.315
             3.170        -91.382        -5.340
            -1.662          3.489       -92.088

Total shielding tensor (ppm): 
           165.115         -2.331        -8.316
             3.336        156.073         1.549
            -7.860          4.000       161.207


 Diagonalized sT*s matrix:
 
 sDSO           245.499          251.872          262.420  iso=     253.264
 sPSO           -92.644          -93.928          -90.824  iso=     -92.465
        ---------------  ---------------  ---------------
 Total          152.855          157.945          171.596  iso=     160.798

 Orientation: 
  X          -0.4443059    0.4514304   -0.7738235
  Y           0.6223406    0.7768535    0.0958689
  Z          -0.6444256    0.4389867    0.6261041

 --------------
 Nucleus  44C :
 --------------

Diamagnetic contribution to the shielding tensor (ppm) : 
           251.520          0.837         0.603
            -0.006        256.421        -4.582
            -0.204         -2.096       272.290

Paramagnetic contribution to the shielding tensor (ppm): 
           -71.799         -4.962        -1.968
            -2.359        -76.132         0.410
            -0.786         -2.281       -79.523

Total shielding tensor (ppm): 
           179.722         -4.126        -1.365
            -2.365        180.290        -4.173
            -0.990         -4.377       192.767


 Diagonalized sT*s matrix:
 
 sDSO           254.421          253.019          272.791  iso=     260.077
 sPSO           -78.547          -70.208          -78.699  iso=     -75.818
        ---------------  ---------------  ---------------
 Total          175.874          182.811          194.093  iso=     184.259

 Orientation: 
  X           0.6694180    0.7427841   -0.0123001
  Y           0.7077115   -0.6426692   -0.2934634
  Z           0.2258848   -0.1877448    0.9558912

 --------------
 Nucleus  49C :
 --------------

Diamagnetic contribution to the shielding tensor (ppm) : 
           247.545         -4.641        -2.971
           -13.000        255.214         6.153
            -9.359          3.698       252.482

Paramagnetic contribution to the shielding tensor (ppm): 
           -66.264          2.529        -2.882
            10.191        -73.511        -1.335
             1.811          0.066       -77.362

Total shielding tensor (ppm): 
           181.281         -2.113        -5.853
            -2.809        181.703         4.818
            -7.549          3.764       175.120


 Diagonalized sT*s matrix:
 
 sDSO           246.541          244.175          264.525  iso=     251.747
 sPSO           -76.230          -64.906          -76.001  iso=     -72.379
        ---------------  ---------------  ---------------
 Total          170.310          179.269          188.524  iso=     179.368

 Orientation: 
  X           0.4703605   -0.5859554    0.6598615
  Y          -0.2205270   -0.8020628   -0.5550344
  Z           0.8544758    0.1155490   -0.5064776

 --------------
 Nucleus  50C :
 --------------

Diamagnetic contribution to the shielding tensor (ppm) : 
           270.944         -0.662        14.202
             5.102        267.883        -2.979
            16.015         -3.033       255.746

Paramagnetic contribution to the shielding tensor (ppm): 
          -178.033         -4.904       -66.245
            -2.282       -302.004       -47.317
           -62.171        -47.868      -130.599

Total shielding tensor (ppm): 
            92.911         -5.566       -52.043
             2.820        -34.122       -50.296
           -46.156        -50.901       125.147


 Diagonalized sT*s matrix:
 
 sDSO           269.541          276.535          248.497  iso=     264.858
 sPSO          -312.573         -218.464          -79.599  iso=    -203.546
        ---------------  ---------------  ---------------
 Total          -43.032           58.071          168.898  iso=      61.312

 Orientation: 
  X           0.3336428   -0.7855596   -0.5211321
  Y           0.8552381    0.4847722   -0.1832038
  Z           0.3965479   -0.3845674    0.8335813

 --------------
 Nucleus  51C :
 --------------

Diamagnetic contribution to the shielding tensor (ppm) : 
           269.104         -2.563        15.025
           -13.291        274.846        10.731
            17.776          2.753       250.717

Paramagnetic contribution to the shielding tensor (ppm): 
          -180.191         -4.873       -67.360
            10.567       -290.069       -63.504
           -61.880        -57.477      -114.231

Total shielding tensor (ppm): 
            88.914         -7.436       -52.335
            -2.724        -15.223       -52.773
           -44.104        -54.724       136.485


 Diagonalized sT*s matrix:
 
 sDSO           275.075          280.886          238.706  iso=     264.889
 sPSO          -309.668         -212.649          -62.173  iso=    -194.830
        ---------------  ---------------  ---------------
 Total          -34.593           68.237          176.533  iso=      70.059

 Orientation: 
  X           0.2588147   -0.8566042   -0.4463677
  Y           0.8946684    0.3867901   -0.2235213
  Z           0.3641199   -0.3415005    0.8664837

 --------------
 Nucleus  54C :
 --------------

Diamagnetic contribution to the shielding tensor (ppm) : 
           255.502          0.484         2.123
             3.123        254.073         6.601
            -1.490          8.376       240.184

Paramagnetic contribution to the shielding tensor (ppm): 
           -93.635          0.142       -12.532
             0.368       -101.196        -5.070
            -5.402         -6.785       -76.935

Total shielding tensor (ppm): 
           161.867          0.626       -10.409
             3.491        152.877         1.531
            -6.892          1.591       163.249


 Diagonalized sT*s matrix:
 
 sDSO           245.839          257.141          246.780  iso=     249.920
 sPSO           -95.082         -101.143          -75.541  iso=     -90.589
        ---------------  ---------------  ---------------
 Total          150.757          155.998          171.239  iso=     159.331

 Orientation: 
  X          -0.4717039   -0.5661069   -0.6760314
  Y           0.7743866   -0.6326244   -0.0105736
  Z          -0.4216881   -0.5284972    0.7367970

 --------------
 Nucleus  55C :
 --------------

Diamagnetic contribution to the shielding tensor (ppm) : 
           240.320         -2.406         1.640
            16.830        263.076         3.500
            12.454          6.718       241.176

Paramagnetic contribution to the shielding tensor (ppm): 
           -59.081          3.364        -3.606
           -19.007        -76.128         8.167
           -13.397          2.716       -69.973

Total shielding tensor (ppm): 
           181.239          0.959        -1.966
            -2.177        186.948        11.667
            -0.943          9.433       171.203


 Diagonalized sT*s matrix:
 
 sDSO           241.904          242.378          260.289  iso=     248.191
 sPSO           -76.061          -61.199          -67.921  iso=     -68.394
        ---------------  ---------------  ---------------
 Total          165.843          181.179          192.368  iso=     179.797

 Orientation: 
  X           0.0703520   -0.9913635    0.1106749
  Y          -0.4469143   -0.1305163   -0.8850046
  Z           0.8918061    0.0127997   -0.4522367

 --------------
 Nucleus  56C :
 --------------

Diamagnetic contribution to the shielding tensor (ppm) : 
           248.641         -3.188        -4.814
            -7.053        244.262        -2.195
            -8.378         -2.940       239.734

Paramagnetic contribution to the shielding tensor (ppm): 
           -72.771         -0.213         3.465
             6.455        -81.080         4.973
             1.350          9.143       -83.041

Total shielding tensor (ppm): 
           175.870         -3.401        -1.350
            -0.598        163.182         2.778
            -7.028          6.203       156.693


 Diagonalized sT*s matrix:
 
 sDSO           241.544          238.419          252.674  iso=     244.212
 sPSO           -87.528          -74.048          -75.316  iso=     -78.964
        ---------------  ---------------  ---------------
 Total          154.016          164.372          177.358  iso=     165.248

 Orientation: 
  X           0.1257027    0.2874330   -0.9495162
  Y          -0.4074379    0.8876224    0.2147577
  Z           0.9045403    0.3598733    0.2286876

 --------------
 Nucleus  59C :
 --------------

Diamagnetic contribution to the shielding tensor (ppm) : 
           248.134          1.841        -0.746
             4.470        238.497        -8.150
           -20.899         -8.031       245.515

Paramagnetic contribution to the shielding tensor (ppm): 
           -72.855         -1.303         0.442
            -4.683        -56.627         0.852
            21.189         -4.112       -56.668

Total shielding tensor (ppm): 
           175.279          0.537        -0.305
            -0.213        181.870        -7.298
             0.290        -12.143       188.847


 Diagonalized sT*s matrix:
 
 sDSO           238.329          242.940          250.876  iso=     244.048
 sPSO           -63.352          -67.607          -55.190  iso=     -62.050
        ---------------  ---------------  ---------------
 Total          174.977          175.333          195.686  iso=     181.999

 Orientation: 
  X          -0.4010041    0.9160689   -0.0036796
  Y           0.7465963    0.3244856   -0.5807780
  Z           0.5308386    0.2356415    0.8140537

 --------------
 Nucleus  60C :
 --------------

Diamagnetic contribution to the shielding tensor (ppm) : 
           245.414         -4.903         1.498
           -19.652        246.299        -1.221
             0.944          0.544       228.301

Paramagnetic contribution to the shielding tensor (ppm): 
           -79.751         -6.201        -3.677
             7.726        -55.416        -9.568
            -7.227         -5.407       -59.117

Total shielding tensor (ppm): 
           165.663        -11.105        -2.179
           -11.926        190.883       -10.790
            -6.283         -4.863       169.184


 Diagonalized sT*s matrix:
 
 sDSO           234.563          232.706          252.746  iso=     240.005
 sPSO           -77.458          -60.699          -56.127  iso=     -64.761
        ---------------  ---------------  ---------------
 Total          157.104          172.007          196.619  iso=     175.243

 Orientation: 
  X           0.7643899   -0.5627021   -0.3147610
  Y           0.3864612    0.0090906    0.9222609
  Z           0.5160968    0.8266098   -0.2244113



--------------------------------
CHEMICAL SHIELDING SUMMARY (ppm)
--------------------------------


  Nucleus  Element    Isotropic     Anisotropy
  -------  -------  ------------   ------------
      0       C           59.655        148.077 
      1       C          151.199         30.041 
      2       C          128.869         55.173 
      5       C           51.501        179.287 
      6       C          165.038         22.792 
      7       C          161.673         22.387 
     14       C           74.579        128.365 
     15       C           82.950        121.256 
     18       C           79.509        134.154 
     20       C           52.377        175.015 
     22       C          169.080          8.650 
     23       C          174.468         12.694 
     26       C          158.742         23.659 
     29       C          153.883         17.807 
     32       C          143.432         28.236 
     34       C          174.902         23.294 
     36       C          169.025         33.451 
     39       C          140.448         38.951 
     43       C          160.798         16.196 
     44       C          184.259         14.750 
     49       C          179.368         13.735 
     50       C           61.312        161.378 
     51       C           70.059        159.711 
     54       C          159.331         17.861 
     55       C          179.797         18.857 
     56       C          165.248         18.164 
     59       C          181.999         20.531 
     60       C          175.243         32.064 


NMR shielding tensor and spin rotation calculation done in   1.0 sec 

Maximum memory used throughout the entire PROP-calculation: 51.5 MB

--------------------------------
SUGGESTED CITATIONS FOR THIS RUN
--------------------------------

Below you find a list of papers that are relevant to this ORCA run
We neither can nor want to force you to cite these papers, but we appreciate if you do
You receive ORCA, which is the product of decades of hard work by many enthusiastic individuals, for free
The only thing we kindly ask in return is that you cite our papers,
We deeply appreciate it, if you show your appreciation for ORCA by not just citing the generic ORCA reference.

Please note that relegating all ORCA citations to the supporting information does *not* help us.
SI sections are not indexed - citations you put there will not count into any citation statistics
But we need these citations in order to attract the funding resources that allow us to do what we are doing

Therefore, if you are a happy ORCA user, please consider citing a few of the papers listed below in the main body of your paper

In addition to the list printed below, the program has created the file inpS.bibtex that contains the list in bibtex format
You can import this file easily into all common literature databanks and citation aid programs


List of essential papers. We consider these as the minimum necessary citations

  1. Neese,F.
     Software update: the ORCA program system, version 5.0
     WIRES Comput. Molec. Sci., 2022 12(1)e1606
     doi.org/10.1002/wcms.1606

List of papers to cite with high priority. The work reported in these papers was absolutely
necessary for this run to complete.
Our perspective: the developers of density functionals and basis sets usually get cited in chemistry papers
Good! But without the algorithms to do something with them, the functionals or basis sets would not do anything.
Hence, in our opinion, the algorithm design and method developments papers are equally worthy of getting cited

  1. Neese,F.
     An improvement of the resolution of the identity approximation for the formation of the Coulomb matrix
     J. Comp. Chem., 2003 24(14)1740-1747
     doi.org/10.1002/jcc.10318
  2. Neese,F.; Wennmohs,F.; Hansen,A.; Becker,U.
     Efficient, approximate and parallel Hartree-Fock and hybrid DFT calculations. A 'chain-of-spheres' algorithm for the Hartree-Fock exchange
     Chem. Phys., 2009 356(1-3)98-109
     doi.org/10.1016/j.chemphys.2008.10.036
  3. Stoychev,G.L.; Auer,A.A.; Izsak,R.; Neese,F.
     Self-Consistent Field Calculation of Nuclear Magnetic Resonance Chemical Shielding Constants Using Gauge-Including Atomic Orbitals and Approximate Two-Electron Integrals
     J. Chem. Theory Comput., 2018 14(2)619-637
     doi.org/10.1021/acs.jctc.7b01006
  4. Garcia-Rates,M.; Neese,F.
     Effect of the Solute Cavity on the Solvation Energy and its Derivatives within the Framework of the Gaussian Charge Scheme
     J. Comput. Chem., 2020 41 922-939
     doi.org/10.1002/jcc.26139
  5. Helmich-Paris,B.; de Souza,B.; Neese,F.; Izsák,R.
     An improved chain of spheres for exchange algorithm
     J. Chem. Phys., 2021 155 104109
     doi.org/doi: 10.1063/5.0058766.
  6. Neese,F.
     The SHARK Integral Generation and Digestion System
     J. Comp. Chem., 2022  1-16
     doi.org/10.1002/jcc.26942
  7. Caldeweyher,E.; Bannwarth,C.; Grimme,S.
     Extension of the D3 dispersion coefficient model
     J. Chem. Phys., 2017 147 034112-XXXX
     doi.org/10.1063/1.4993215
  8. Caldeweyher,E.; Ehlert,S.; Hansen,A.; Neugebauer,H.; Spicher,S.; Bannwarth,C.; Grimme,S.
     A generally applicable atomic-charge dependent London dispersion correction
     J. Chem. Phys., 2019 150 154122-XXXX
     doi.org/10.1063/1.5090222
  9. Caldeweyher,E.; Mewes,J.; Ehlert,S.; Grimme,S.
     Extension and evaluation of the D4 London-dispersion model for periodic systems
     Phys. Chem. Chem. Phys., 2020 22(16)8499-8512
     doi.org/10.1039/D0CP00502A

List of suggested additional citations. These are papers that are important in the 'surrounding' of 
of this run, or papers that preceded the highly important papers. If you like your results we are grateful for a citation.

  1. Izsak,R.; Neese,F.
     An overlap fitted chain of spheres exchange method
     J. Chem. Phys., 2011 135 144105
     doi.org/10.1063/1.3646921
  2. Izsak,R.; Hansen,A.; Neese,F.
     The resolution of identity and chain of spheres approximations for the LPNO-CCSD singles Fock term
     Molec. Phys., 2012 110 2413-2417
     doi.org/10.1080/00268976.2012.687466
  3. Neese,F.
     The ORCA program system
     WIRES Comput. Molec. Sci., 2012 2(1)73-78
     doi.org/10.1002/wcms.81
  4. Izsak,R.; Neese,F.; Klopper,W.
     Robust fitting techniques in the chain of spheres approximation to the Fock exchange: The role of the complementary space
     J. Chem. Phys., 2013 139 
     doi.org/10.1063/1.4819264
  5. Neese,F.
     Software update: the ORCA program system, version 4.0
     WIRES Comput. Molec. Sci., 2018 8(1)1-6
     doi.org/10.1002/wcms.1327
  6. Neese,F.; Wennmohs,F.; Becker,U.; Riplinger,C.
     The ORCA quantum chemistry program package
     J. Chem. Phys., 2020 152 Art. No. L224108
     doi.org/10.1063/5.0004608

Timings for individual modules:

Sum of individual times          ...      174.382 sec (=   2.906 min)
Startup calculation              ...        4.617 sec (=   0.077 min)   2.6 %
SCF iterations                   ...       70.937 sec (=   1.182 min)  40.7 %
Property integrals               ...       59.350 sec (=   0.989 min)  34.0 %
SCF Response                     ...       38.168 sec (=   0.636 min)  21.9 %
Property calculations            ...        1.309 sec (=   0.022 min)   0.8 %
                             ****ORCA TERMINATED NORMALLY****
TOTAL RUN TIME: 0 days 0 hours 2 minutes 54 seconds 673 msec
