
                                 *****************
                                 * O   R   C   A *
                                 *****************

                                            #,                                       
                                            ###                                      
                                            ####                                     
                                            #####                                    
                                            ######                                   
                                           ########,                                 
                                     ,,################,,,,,                         
                               ,,#################################,,                 
                          ,,##########################################,,             
                       ,#########################################, ''#####,          
                    ,#############################################,,   '####,        
                  ,##################################################,,,,####,       
                ,###########''''           ''''###############################       
              ,#####''   ,,,,##########,,,,          '''####'''          '####       
            ,##' ,,,,###########################,,,                        '##       
           ' ,,###''''                  '''############,,,                           
         ,,##''                                '''############,,,,        ,,,,,,###''
      ,#''                                            '''#######################'''  
     '                                                          ''''####''''         
             ,#######,   #######,   ,#######,      ##                                
            ,#'     '#,  ##    ##  ,#'     '#,    #''#        ######   ,####,        
            ##       ##  ##   ,#'  ##            #'  '#       #        #'  '#        
            ##       ##  #######   ##           ,######,      #####,   #    #        
            '#,     ,#'  ##    ##  '#,     ,#' ,#      #,         ##   #,  ,#        
             '#######'   ##     ##  '#######'  #'      '#     #####' # '####'        



                  #######################################################
                  #                        -***-                        #
                  #          Department of theory and spectroscopy      #
                  #    Directorship and core code : Frank Neese         #
                  #        Max Planck Institute fuer Kohlenforschung    #
                  #                Kaiser Wilhelm Platz 1               #
                  #                 D-45470 Muelheim/Ruhr               #
                  #                      Germany                        #
                  #                                                     #
                  #                  All rights reserved                #
                  #                        -***-                        #
                  #######################################################


                         Program Version 5.0.2 -  RELEASE  -


 With contributions from (in alphabetic order):
   Daniel Aravena         : Magnetic Suceptibility
   Michael Atanasov       : Ab Initio Ligand Field Theory (pilot matlab implementation)
   Alexander A. Auer      : GIAO ZORA, VPT2 properties, NMR spectrum
   Ute Becker             : Parallelization
   Giovanni Bistoni       : ED, misc. LED, open-shell LED, HFLD
   Martin Brehm           : Molecular dynamics
   Dmytro Bykov           : SCF Hessian
   Vijay G. Chilkuri      : MRCI spin determinant printing, contributions to CSF-ICE
   Dipayan Datta          : RHF DLPNO-CCSD density
   Achintya Kumar Dutta   : EOM-CC, STEOM-CC
   Dmitry Ganyushin       : Spin-Orbit,Spin-Spin,Magnetic field MRCI
   Miquel Garcia          : C-PCM and meta-GGA Hessian, CC/C-PCM, Gaussian charge scheme
   Yang Guo               : DLPNO-NEVPT2, F12-NEVPT2, CIM, IAO-localization
   Andreas Hansen         : Spin unrestricted coupled pair/coupled cluster methods
   Benjamin Helmich-Paris : MC-RPA, TRAH-SCF, COSX integrals
   Lee Huntington         : MR-EOM, pCC
   Robert Izsak           : Overlap fitted RIJCOSX, COSX-SCS-MP3, EOM
   Marcus Kettner         : VPT2
   Christian Kollmar      : KDIIS, OOCD, Brueckner-CCSD(T), CCSD density, CASPT2, CASPT2-K
   Simone Kossmann        : Meta GGA functionals, TD-DFT gradient, OOMP2, MP2 Hessian
   Martin Krupicka        : Initial AUTO-CI
   Lucas Lang             : DCDCAS
   Marvin Lechner         : AUTO-CI (C++ implementation), FIC-MRCC
   Dagmar Lenk            : GEPOL surface, SMD
   Dimitrios Liakos       : Extrapolation schemes; Compound Job, initial MDCI parallelization
   Dimitrios Manganas     : Further ROCIS development; embedding schemes
   Dimitrios Pantazis     : SARC Basis sets
   Anastasios Papadopoulos: AUTO-CI, single reference methods and gradients
   Taras Petrenko         : DFT Hessian,TD-DFT gradient, ASA, ECA, R-Raman, ABS, FL, XAS/XES, NRVS
   Peter Pinski           : DLPNO-MP2, DLPNO-MP2 Gradient
   Christoph Reimann      : Effective Core Potentials
   Marius Retegan         : Local ZFS, SOC
   Christoph Riplinger    : Optimizer, TS searches, QM/MM, DLPNO-CCSD(T), (RO)-DLPNO pert. Triples
   Tobias Risthaus        : Range-separated hybrids, TD-DFT gradient, RPA, STAB
   Michael Roemelt        : Original ROCIS implementation
   Masaaki Saitow         : Open-shell DLPNO-CCSD energy and density
   Barbara Sandhoefer     : DKH picture change effects
   Avijit Sen             : IP-ROCIS
   Kantharuban Sivalingam : CASSCF convergence, NEVPT2, FIC-MRCI
   Bernardo de Souza      : ESD, SOC TD-DFT
   Georgi Stoychev        : AutoAux, RI-MP2 NMR, DLPNO-MP2 response
   Willem Van den Heuvel  : Paramagnetic NMR
   Boris Wezisla          : Elementary symmetry handling
   Frank Wennmohs         : Technical directorship


 We gratefully acknowledge several colleagues who have allowed us to
 interface, adapt or use parts of their codes:
   Stefan Grimme, W. Hujo, H. Kruse, P. Pracht,  : VdW corrections, initial TS optimization,
                  C. Bannwarth, S. Ehlert          DFT functionals, gCP, sTDA/sTD-DF
   Ed Valeev, F. Pavosevic, A. Kumar             : LibInt (2-el integral package), F12 methods
   Garnet Chan, S. Sharma, J. Yang, R. Olivares  : DMRG
   Ulf Ekstrom                                   : XCFun DFT Library
   Mihaly Kallay                                 : mrcc  (arbitrary order and MRCC methods)
   Jiri Pittner, Ondrej Demel                    : Mk-CCSD
   Frank Weinhold                                : gennbo (NPA and NBO analysis)
   Christopher J. Cramer and Donald G. Truhlar   : smd solvation model
   Lars Goerigk                                  : TD-DFT with DH, B97 family of functionals
   V. Asgeirsson, H. Jonsson                     : NEB implementation
   FAccTs GmbH                                   : IRC, NEB, NEB-TS, DLPNO-Multilevel, CI-OPT
                                                   MM, QMMM, 2- and 3-layer-ONIOM, Crystal-QMMM,
                                                   LR-CPCM, SF, NACMEs, symmetry and pop. for TD-DFT,
                                                   nearIR, NL-DFT gradient (VV10), updates on ESD,
                                                   ML-optimized integration grids
   S Lehtola, MJT Oliveira, MAL Marques          : LibXC Library
   Liviu Ungur et al                             : ANISO software


 Your calculation uses the libint2 library for the computation of 2-el integrals
 For citations please refer to: http://libint.valeyev.net

 Your ORCA version has been built with support for libXC version: 5.1.0
 For citations please refer to: https://tddft.org/programs/libxc/

 This ORCA versions uses:
   CBLAS   interface :  Fast vector & matrix operations
   LAPACKE interface :  Fast linear algebra routines
   SCALAPACK package :  Parallel linear algebra routines
   Shared memory     :  Shared parallel matrices
   BLAS/LAPACK       :  OpenBLAS 0.3.15  USE64BITINT DYNAMIC_ARCH NO_AFFINITY Zen SINGLE_THREADED
        Core in use  :  Zen
   Copyright (c) 2011-2014, The OpenBLAS Project


Your calculation utilizes the atom-pairwise dispersion correction
based on tight binding partial charges (D4)
Cite in your paper:
E.Caldeweyher, C.Bannwarth, S.Grimme, J.Chem.Phys., (2017), 147, 034112.
E.Caldeweyher, S.Ehlert, A.Hansen, H.Neugebauer, S.Grimme, J.Chem.Phys., (2018), in progress.
   

================================================================================

----- Orbital basis set information -----
Your calculation utilizes the basis: pcSseg-1
   F. Jensen, J. Chem. Theory Comput. 11, 132 (2015).

----- AuxJ basis set information -----
Your calculation utilizes the auxiliary basis: def2/J
   F. Weigend, Phys. Chem. Chem. Phys. 8, 1057 (2006).

================================================================================
                                        WARNINGS
                       Please study these warnings very carefully!
================================================================================



WARNING: Found flag for RIJCOSX approximation but no HF exchange needed!
  ===> : RIJCOSX  will be disabled and Split-RI-J is turned on

INFO   : the flag for use of the SHARK integral package has been found!

================================================================================
                                       INPUT FILE
================================================================================
NAME = inpS
|  1> ! revTPSS
|  2> ! D4
|  3> ! pcSseg-1
|  4> ! def2/J RIJCOSX
|  5> ! DEFGRID2
|  6> ! scfconv7
|  7> ! smallprint printgap noloewdin
|  8> ! NOSOSCF
|  9> %MaxCore 4000
| 10> %output
| 11>        print[P_BondOrder_M] 1
| 12>        print[P_Mayer] 1
| 13>        print[P_basis] 2
| 14> end
| 15> %pal
| 16>     nprocs 4
| 17> end
| 18> ! CPCM(chloroform)
| 19> *xyz 0 1
| 20> C   -5.1451683500   0.3167439700   0.2058890500
| 21> C   -6.5338977300  -0.1429816500  -0.1709338100
| 22> C   -7.0392642900   0.5560964200  -1.4389504500
| 23> H   -7.2357820500   0.1088881000   0.6421475400
| 24> H   -6.5581428100  -1.2295562500  -0.3086754500
| 25> C   -4.9877230200   1.7857294600   0.2608439200
| 26> C   -5.5411157700   2.5197918000  -0.9396865200
| 27> C   -6.9702475900   2.0699218900  -1.2724533100
| 28> H   -4.8983241400   2.3022035400  -1.8062491000
| 29> H   -5.5063979500   3.6012958400  -0.7711362500
| 30> H   -7.3178374500   2.5588334200  -2.1901692500
| 31> H   -7.6498512500   2.3657425500  -0.4590031200
| 32> O   -8.3605435600   0.1172442700  -1.7810863400
| 33> H   -6.4122087300   0.2532822200  -2.2891889000
| 34> C   -4.1510535200  -0.5773291200   0.4201361100
| 35> C   -4.4443809000   2.4288729500   1.3006491900
| 36> H   -4.0753002600   1.8903462800   2.1690015800
| 37> H   -4.3673907300   3.5135672200   1.3089266300
| 38> C   -2.7650011400  -0.2726491600   0.6888678100
| 39> H   -4.4249160200  -1.6282919200   0.3382271800
| 40> C   -1.7886157600  -1.1624543400   0.9693761600
| 41> H   -2.4905730900   0.7788788900   0.6437833300
| 42> C   -1.9702679400  -2.6516799800   1.1185904200
| 43> C   -0.9916776500  -3.4404715700   0.2276901300
| 44> H   -2.9969371000  -2.9679554000   0.9145430200
| 45> H   -1.7620658500  -2.9118079000   2.1688874500
| 46> C    0.4629651800  -2.9814446400   0.3974385600
| 47> H   -1.2949817800  -3.3326918500  -0.8213975400
| 48> H   -1.0698309100  -4.5084121100   0.4658676300
| 49> C    0.6132307000  -1.4681170200   0.1868610700
| 50> H    1.0979016800  -3.5460069700  -0.2932592000
| 51> H    0.8021058200  -3.2244848200   1.4157830400
| 52> C   -0.3613727000  -0.7593553700   1.1800197100
| 53> H   -0.0716460800  -1.1450247900   2.1752594900
| 54> C    0.0597645600   0.7046148400   1.1258344900
| 55> H   -8.9477411400   0.3693470600  -1.0558904800
| 56> C    1.6007497500   0.6279359500   1.0011429800
| 57> H   -0.2668978300   1.2635660700   2.0092275500
| 58> H   -0.3756342400   1.2000086900   0.2507066300
| 59> C    1.9638863700  -0.8503591400   0.6522575300
| 60> H    2.0890175400   0.9386540400   1.9289108800
| 61> H    1.9696522200   1.3010396400   0.2180157300
| 62> H    2.2292751800  -1.3796225300   1.5809671800
| 63> C    3.1629469000  -0.9360850800  -0.3022562300
| 64> C    0.2912011800  -1.0763674300  -1.2617346000
| 65> H   -0.7684909000  -1.2286210900  -1.4891358900
| 66> H    0.8758702600  -1.6755779700  -1.9677527800
| 67> H    0.5173012000  -0.0229249300  -1.4544889900
| 68> H    2.8991116100  -0.3732066500  -1.2117570600
| 69> C    3.5210541700  -2.3691583700  -0.7376271200
| 70> C    4.4233070700  -0.2998071900   0.2456886600
| 71> C    4.7252106700  -0.0919883800   1.5268928400
| 72> H    5.1599243100  -0.0571493900  -0.5215046100
| 73> H    3.9848061900  -0.3490385800   2.2868021500
| 74> C    6.0002144700   0.4772058300   2.1021954400
| 75> C    5.6391758900   1.5612144700   3.1330128500
| 76> C    7.0351500500   0.9495683300   1.0597772800
| 77> H    6.4760527900  -0.3449830300   2.6643345500
| 78> H    7.0936828700   0.1653304100   0.2912870600
| 79> C    8.4332385600   1.0709303000   1.6745467000
| 80> C    6.6442371100   2.2628327900   0.3732456100
| 81> H    5.0090385600   1.1384012800   3.9230140200
| 82> H    5.0797652500   2.3781736800   2.6647455600
| 83> H    6.5308254500   1.9832549500   3.6075008300
| 84> H    9.1687181200   1.3386848100   0.9076032500
| 85> H    8.7496043500   0.1268239200   2.1323951800
| 86> H    8.4652608200   1.8495744600   2.4452286700
| 87> H    6.7407914600   3.1074493000   1.0652417600
| 88> H    5.6126248400   2.2442689800   0.0076174500
| 89> H    7.3047618400   2.4585029500  -0.4787047500
| 90> H    4.4626797300  -2.3722891600  -1.2981322900
| 91> H    2.7519040100  -2.8085144700  -1.3780956700
| 92> H    3.6518823500  -3.0112809200   0.1413059100
| 93> *
| 94> %eprnmr
| 95>  Nuclei = all H { shift }
| 96>  origin giao
| 97>  giao_2el giao_2el_same_as_scf
| 98>  giao_1el giao_1el_analytic
| 99> end
|100> 
|101>                          ****END OF INPUT****
================================================================================

                       ****************************
                       * Single Point Calculation *
                       ****************************

---------------------------------
CARTESIAN COORDINATES (ANGSTROEM)
---------------------------------
  C     -5.145168    0.316744    0.205889
  C     -6.533898   -0.142982   -0.170934
  C     -7.039264    0.556096   -1.438950
  H     -7.235782    0.108888    0.642148
  H     -6.558143   -1.229556   -0.308675
  C     -4.987723    1.785729    0.260844
  C     -5.541116    2.519792   -0.939687
  C     -6.970248    2.069922   -1.272453
  H     -4.898324    2.302204   -1.806249
  H     -5.506398    3.601296   -0.771136
  H     -7.317837    2.558833   -2.190169
  H     -7.649851    2.365743   -0.459003
  O     -8.360544    0.117244   -1.781086
  H     -6.412209    0.253282   -2.289189
  C     -4.151054   -0.577329    0.420136
  C     -4.444381    2.428873    1.300649
  H     -4.075300    1.890346    2.169002
  H     -4.367391    3.513567    1.308927
  C     -2.765001   -0.272649    0.688868
  H     -4.424916   -1.628292    0.338227
  C     -1.788616   -1.162454    0.969376
  H     -2.490573    0.778879    0.643783
  C     -1.970268   -2.651680    1.118590
  C     -0.991678   -3.440472    0.227690
  H     -2.996937   -2.967955    0.914543
  H     -1.762066   -2.911808    2.168887
  C      0.462965   -2.981445    0.397439
  H     -1.294982   -3.332692   -0.821398
  H     -1.069831   -4.508412    0.465868
  C      0.613231   -1.468117    0.186861
  H      1.097902   -3.546007   -0.293259
  H      0.802106   -3.224485    1.415783
  C     -0.361373   -0.759355    1.180020
  H     -0.071646   -1.145025    2.175259
  C      0.059765    0.704615    1.125834
  H     -8.947741    0.369347   -1.055890
  C      1.600750    0.627936    1.001143
  H     -0.266898    1.263566    2.009228
  H     -0.375634    1.200009    0.250707
  C      1.963886   -0.850359    0.652258
  H      2.089018    0.938654    1.928911
  H      1.969652    1.301040    0.218016
  H      2.229275   -1.379623    1.580967
  C      3.162947   -0.936085   -0.302256
  C      0.291201   -1.076367   -1.261735
  H     -0.768491   -1.228621   -1.489136
  H      0.875870   -1.675578   -1.967753
  H      0.517301   -0.022925   -1.454489
  H      2.899112   -0.373207   -1.211757
  C      3.521054   -2.369158   -0.737627
  C      4.423307   -0.299807    0.245689
  C      4.725211   -0.091988    1.526893
  H      5.159924   -0.057149   -0.521505
  H      3.984806   -0.349039    2.286802
  C      6.000214    0.477206    2.102195
  C      5.639176    1.561214    3.133013
  C      7.035150    0.949568    1.059777
  H      6.476053   -0.344983    2.664335
  H      7.093683    0.165330    0.291287
  C      8.433239    1.070930    1.674547
  C      6.644237    2.262833    0.373246
  H      5.009039    1.138401    3.923014
  H      5.079765    2.378174    2.664746
  H      6.530825    1.983255    3.607501
  H      9.168718    1.338685    0.907603
  H      8.749604    0.126824    2.132395
  H      8.465261    1.849574    2.445229
  H      6.740791    3.107449    1.065242
  H      5.612625    2.244269    0.007617
  H      7.304762    2.458503   -0.478705
  H      4.462680   -2.372289   -1.298132
  H      2.751904   -2.808514   -1.378096
  H      3.651882   -3.011281    0.141306

----------------------------
CARTESIAN COORDINATES (A.U.)
----------------------------
  NO LB      ZA    FRAG     MASS         X           Y           Z
   0 C     6.0000    0    12.011   -9.722959    0.598559    0.389074
   1 C     6.0000    0    12.011  -12.347277   -0.270196   -0.323018
   2 C     6.0000    0    12.011  -13.302282    1.050870   -2.719222
   3 H     1.0000    0     1.008  -13.673646    0.205769    1.213483
   4 H     1.0000    0     1.008  -12.393094   -2.323525   -0.583312
   5 C     6.0000    0    12.011   -9.425431    3.374540    0.492924
   6 C     6.0000    0    12.011  -10.471191    4.761716   -1.775750
   7 C     6.0000    0    12.011  -13.171859    3.911585   -2.404588
   8 H     1.0000    0     1.008   -9.256491    4.350534   -3.413316
   9 H     1.0000    0     1.008  -10.405584    6.805463   -1.457236
  10 H     1.0000    0     1.008  -13.828709    4.835494   -4.138820
  11 H     1.0000    0     1.008  -14.456124    4.470606   -0.867390
  12 O     8.0000    0    15.999  -15.799138    0.221560   -3.365765
  13 H     1.0000    0     1.008  -12.117318    0.478634   -4.325940
  14 C     6.0000    0    12.011   -7.844354   -1.090994    0.793942
  15 C     6.0000    0    12.011   -8.398663    4.589905    2.457871
  16 H     1.0000    0     1.008   -7.701201    3.572237    4.098819
  17 H     1.0000    0     1.008   -8.253172    6.639680    2.473513
  18 C     6.0000    0    12.011   -5.225095   -0.515232    1.301772
  19 H     1.0000    0     1.008   -8.361879   -3.077026    0.639157
  20 C     6.0000    0    12.011   -3.379994   -2.196720    1.831855
  21 H     1.0000    0     1.008   -4.706501    1.471868    1.216574
  22 C     6.0000    0    12.011   -3.723267   -5.010949    2.113830
  23 C     6.0000    0    12.011   -1.873999   -6.501549    0.430272
  24 H     1.0000    0     1.008   -5.663390   -5.608623    1.728236
  25 H     1.0000    0     1.008   -3.329822   -5.502519    4.098603
  26 C     6.0000    0    12.011    0.874877   -5.634114    0.751050
  27 H     1.0000    0     1.008   -2.447161   -6.297875   -1.552216
  28 H     1.0000    0     1.008   -2.021687   -8.519664    0.880362
  29 C     6.0000    0    12.011    1.158838   -2.774339    0.353116
  30 H     1.0000    0     1.008    2.074733   -6.700982   -0.554180
  31 H     1.0000    0     1.008    1.515760   -6.093393    2.675442
  32 C     6.0000    0    12.011   -0.682895   -1.434974    2.229914
  33 H     1.0000    0     1.008   -0.135391   -2.163783    4.110645
  34 C     6.0000    0    12.011    0.112939    1.331529    2.127519
  35 H     1.0000    0     1.008  -16.908780    0.697965   -1.995344
  36 C     6.0000    0    12.011    3.024979    1.186627    1.891886
  37 H     1.0000    0     1.008   -0.504364    2.387794    3.796890
  38 H     1.0000    0     1.008   -0.709846    2.267688    0.473767
  39 C     6.0000    0    12.011    3.711207   -1.606946    1.232588
  40 H     1.0000    0     1.008    3.947671    1.773799    3.645113
  41 H     1.0000    0     1.008    3.722103    2.458609    0.411990
  42 H     1.0000    0     1.008    4.212720   -2.607109    2.987595
  43 C     6.0000    0    12.011    5.977103   -1.768944   -0.571181
  44 C     6.0000    0    12.011    0.550290   -2.034040   -2.384333
  45 H     1.0000    0     1.008   -1.452237   -2.321757   -2.814059
  46 H     1.0000    0     1.008    1.655155   -3.166383   -3.718514
  47 H     1.0000    0     1.008    0.977558   -0.043322   -2.748586
  48 H     1.0000    0     1.008    5.478527   -0.705258   -2.289889
  49 C     6.0000    0    12.011    6.653828   -4.477060   -1.393913
  50 C     6.0000    0    12.011    8.358839   -0.566553    0.464284
  51 C     6.0000    0    12.011    8.929354   -0.173833    2.885409
  52 H     1.0000    0     1.008    9.750844   -0.107997   -0.985501
  53 H     1.0000    0     1.008    7.530192   -0.659587    4.321430
  54 C     6.0000    0    12.011   11.338762    0.901788    3.972574
  55 C     6.0000    0    12.011   10.656498    2.950268    5.920536
  56 C     6.0000    0    12.011   13.294507    1.794424    2.002689
  57 H     1.0000    0     1.008   12.237966   -0.651923    5.034863
  58 H     1.0000    0     1.008   13.405118    0.312429    0.550453
  59 C     6.0000    0    12.011   15.936511    2.023765    3.164435
  60 C     6.0000    0    12.011   12.555789    4.276134    0.705332
  61 H     1.0000    0     1.008    9.465711    2.151267    7.413422
  62 H     1.0000    0     1.008    9.599365    4.494097    5.035639
  63 H     1.0000    0     1.008   12.341472    3.747809    6.817189
  64 H     1.0000    0     1.008   17.326366    2.529748    1.715122
  65 H     1.0000    0     1.008   16.534356    0.239662    4.029643
  66 H     1.0000    0     1.008   15.997025    3.495189    4.620813
  67 H     1.0000    0     1.008   12.738250    5.872228    2.013015
  68 H     1.0000    0     1.008   10.606324    4.241054    0.014395
  69 H     1.0000    0     1.008   13.803999    4.645897   -0.904621
  70 H     1.0000    0     1.008    8.433243   -4.482977   -2.453115
  71 H     1.0000    0     1.008    5.200345   -5.307323   -2.604223
  72 H     1.0000    0     1.008    6.901058   -5.690496    0.267029

--------------------------------
INTERNAL COORDINATES (ANGSTROEM)
--------------------------------
 C      0   0   0     0.000000000000     0.00000000     0.00000000
 C      1   0   0     1.510600014689     0.00000000     0.00000000
 C      2   1   0     1.533613936830   111.74438084     0.00000000
 H      2   1   3     1.103259376278   109.36262457   241.47561089
 H      2   1   3     1.095538655027   110.70471511   122.89197582
 C      1   2   3     1.478420589516   114.17765432    50.51403020
 C      6   1   2     1.512072879237   114.44887489   312.05419587
 C      3   2   1     1.524517023889   110.32978019   305.01544005
 H      7   6   1     1.100661817065   108.38427346   289.89915849
 H      7   6   1     1.095109815991   110.22045124   172.70874041
 H      8   3   2     1.096383026808   109.69638546   179.06218278
 H      8   3   2     1.100487259890   108.64440798   296.48208680
 O      3   2   1     1.433676074334   111.19067817   180.34715288
 H      3   2   1     1.098999789312   109.02900897    65.18791788
 C      1   2   3     1.354080052363   120.89433350   232.65458765
 C      6   1   2     1.337927205649   123.35130207   129.85359129
 H     16   6   1     1.086401107484   121.39093450     0.65953552
 H     16   6   1     1.087454671083   120.94056758   181.34153708
 C     15   1   2     1.444364152392   126.48975094   175.20173294
 H     15   1   2     1.089143034089   116.14420161   357.95937937
 C     19  15   1     1.350469030764   126.40337362   176.38611728
 H     19  15   1     1.087683136258   115.99796543   355.44671202
 C     21  19  15     1.507665552011   125.75170518   357.04216264
 C     23  21  19     1.540627941736   111.83707420   127.55235645
 H     23  21  19     1.093487561355   112.35556025     3.40686080
 H     23  21  19     1.101879528928   107.74375199   246.18676237
 C     24  23  21     1.534765785005   112.64006891    50.76601864
 H     24  23  21     1.097358101380   109.08583369   288.61116339
 H     24  23  21     1.096965564879   109.12535565   172.66652770
 C     27  24  23     1.535279483107   111.86401052   306.25445079
 H     27  24  23     1.094960446389   109.00331100   182.60569312
 H     27  24  23     1.100504603689   109.17010220    66.13591149
 C     21  19  15     1.497959357623   122.73598868   177.39670394
 H     33  21  19     1.105976778940   106.39750446   124.18629648
 C     33  21  19     1.524303580523   121.11033502     1.76290294
 H     13   3   2     0.966574285839   107.51717780    62.53651957
 C     35  33  21     1.547922149411   103.31656881   194.97600366
 H     35  33  21     1.095225133484   112.27649125    73.17776337
 H     35  33  21     1.095826607182   110.65833382   313.50422077
 C     30  27  24     1.556434837115   115.79502303   166.41384289
 H     37  35  33     1.093482712472   111.22933727   251.83994407
 H     37  35  33     1.096560942017   111.22503596   133.50639571
 H     40  30  27     1.101386658023   105.69435050   322.04453269
 C     40  30  27     1.534989123552   118.01937435    82.93750150
 C     30  27  24     1.534796458218   111.13184610   294.65934914
 H     45  30  27     1.094458691816   111.33076837    67.35481338
 H     45  30  27     1.095149704308   110.90354261   307.23764664
 H     45  30  27     1.094539434975   111.62521331   187.23242722
 H     44  40  30     1.101650101883   107.32328706    62.29776817
 C     44  40  30     1.539963533074   114.16875575   303.49116347
 C     44  40  30     1.514463903136   113.68060683   179.74246249
 C     51  44  40     1.332598436264   127.00713494    23.36620195
 H     51  44  40     1.090904798642   113.63747827   199.40230440
 H     52  51  44     1.091666505279   118.61210745   356.52399923
 C     52  51  44     1.510162183436   128.04756111   176.72757881
 C     55  52  51     1.538833363494   108.82105710   132.32575771
 C     55  52  51     1.543001492693   115.10664840     4.03116045
 H     55  52  51     1.103819281984   106.09434870   246.61830404
 H     57  55  52     1.099560104960   106.82975115   315.00975069
 C     57  55  52     1.532097140955   111.42167467   198.75914351
 C     57  55  52     1.532580243404   113.19569868    73.94759064
 H     56  55  52     1.095420420158   110.25285245    58.18878405
 H     56  55  52     1.095279356983   111.03093458   299.03036216
 H     56  55  52     1.094667048820   111.76751774   177.99956524
 H     60  57  55     1.095821571380   110.54745921   176.03346258
 H     60  57  55     1.095923993933   111.27358315    56.01891529
 H     60  57  55     1.096021373843   111.41298334   295.36782450
 H     61  57  55     1.096156222025   110.79351411    71.59199683
 H     61  57  55     1.094647176967   112.05355731   311.05593860
 H     61  57  55     1.095627284418   110.33993466   190.48726498
 H     50  44  40     1.095825963686   110.30913097   187.97566730
 H     50  44  40     1.093080836340   112.09017500    67.98910205
 H     50  44  40     1.096339661385   110.25144400   306.93279531

---------------------------
INTERNAL COORDINATES (A.U.)
---------------------------
 C      0   0   0     0.000000000000     0.00000000     0.00000000
 C      1   0   0     2.854620325659     0.00000000     0.00000000
 C      2   1   0     2.898110335773   111.74438084     0.00000000
 H      2   1   3     2.084858075846   109.36262457   241.47561089
 H      2   1   3     2.070268027126   110.70471511   122.89197582
 C      1   2   3     2.793810024936   114.17765432    50.51403020
 C      6   1   2     2.857403636289   114.44887489   312.05419587
 C      3   2   1     2.880919661651   110.32978019   305.01544005
 H      7   6   1     2.079949400316   108.38427346   289.89915849
 H      7   6   1     2.069457638791   110.22045124   172.70874041
 H      8   3   2     2.071863658546   109.69638546   179.06218278
 H      8   3   2     2.079619535061   108.64440798   296.48208680
 O      3   2   1     2.709255145246   111.19067817   180.34715288
 H      3   2   1     2.076808623036   109.02900897    65.18791788
 C      1   2   3     2.558840462371   120.89433350   232.65458765
 C      6   1   2     2.528316005799   123.35130207   129.85359129
 H     16   6   1     2.053000564734   121.39093450     0.65953552
 H     16   6   1     2.054991511400   120.94056758   181.34153708
 C     15   1   2     2.729452685674   126.48975094   175.20173294
 H     15   1   2     2.058182055096   116.14420161   357.95937937
 C     19  15   1     2.552016620486   126.40337362   176.38611728
 H     19  15   1     2.055423248013   115.99796543   355.44671202
 C     21  19  15     2.849074994847   125.75170518   357.04216264
 C     23  21  19     2.911364884149   111.83707420   127.55235645
 H     23  21  19     2.066392021810   112.35556025     3.40686080
 H     23  21  19     2.082250542248   107.74375199   246.18676237
 C     24  23  21     2.900287013373   112.64006891    50.76601864
 H     24  23  21     2.073706282448   109.08583369   288.61116339
 H     24  23  21     2.072964495964   109.12535565   172.66652770
 C     27  24  23     2.901257762101   111.86401052   306.25445079
 H     27  24  23     2.069175371151   109.00331100   182.60569312
 H     27  24  23     2.079652310092   109.17010220    66.13591149
 C     21  19  15     2.830732945652   122.73598868   177.39670394
 H     33  21  19     2.089993222673   106.39750446   124.18629648
 C     33  21  19     2.880516312143   121.11033502     1.76290294
 H     13   3   2     1.826560688326   107.51717780    62.53651957
 C     35  33  21     2.925148939017   103.31656881   194.97600366
 H     35  33  21     2.069675557272   112.27649125    73.17776337
 H     35  33  21     2.070812177838   110.65833382   313.50422077
 C     30  27  24     2.941235587442   115.79502303   166.41384289
 H     37  35  33     2.066382858749   111.22933727   251.83994407
 H     37  35  33     2.072199869566   111.22503596   133.50639571
 H     40  30  27     2.081319151218   105.69435050   322.04453269
 C     40  30  27     2.900709062061   118.01937435    82.93750150
 C     30  27  24     2.900344977345   111.13184610   294.65934914
 H     45  30  27     2.068227192422   111.33076837    67.35481338
 H     45  30  27     2.069533016787   110.90354261   307.23764664
 H     45  30  27     2.068379774879   111.62521331   187.23242722
 H     44  40  30     2.081816987966   107.32328706    62.29776817
 C     44  40  30     2.910109333736   114.16875575   303.49116347
 C     44  40  30     2.861922016637   113.68060683   179.74246249
 C     51  44  40     2.518246091030   127.00713494    23.36620195
 H     51  44  40     2.061511307613   113.63747827   199.40230440
 H     52  51  44     2.062950724553   118.61210745   356.52399923
 C     52  51  44     2.853792944498   128.04756111   176.72757881
 C     55  52  51     2.907973622745   108.82105710   132.32575771
 C     55  52  51     2.915850245422   115.10664840     4.03116045
 H     55  52  51     2.085916144292   106.09434870   246.61830404
 H     57  55  52     2.077867466159   106.82975115   315.00975069
 C     57  55  52     2.895244006969   111.42167467   198.75914351
 C     57  55  52     2.896156938291   113.19569868    73.94759064
 H     56  55  52     2.070044595603   110.25285245    58.18878405
 H     56  55  52     2.069778024835   111.03093458   299.03036216
 H     56  55  52     2.068620930097   111.76751774   177.99956524
 H     60  57  55     2.070802661551   110.54745921   176.03346258
 H     60  57  55     2.070996212126   111.27358315    56.01891529
 H     60  57  55     2.071180233487   111.41298334   295.36782450
 H     61  57  55     2.071435059620   110.79351411    71.59199683
 H     61  57  55     2.068583377737   112.05355731   311.05593860
 H     61  57  55     2.070435512401   110.33993466   190.48726498
 H     50  44  40     2.070810961807   110.30913097   187.97566730
 H     50  44  40     2.065623422921   112.09017500    67.98910205
 H     50  44  40     2.071781709773   110.25144400   306.93279531

---------------------
BASIS SET INFORMATION
---------------------
There are 3 groups of distinct atoms

 Group   1 Type C   : 8s5p1d contracted to 3s3p1d pattern {521/311/1}
 Group   2 Type H   : 4s2p contracted to 2s1p pattern {31/2}
 Group   3 Type O   : 8s5p1d contracted to 3s3p1d pattern {521/311/1}

Atom   0C    basis set group =>   1
Atom   1C    basis set group =>   1
Atom   2C    basis set group =>   1
Atom   3H    basis set group =>   2
Atom   4H    basis set group =>   2
Atom   5C    basis set group =>   1
Atom   6C    basis set group =>   1
Atom   7C    basis set group =>   1
Atom   8H    basis set group =>   2
Atom   9H    basis set group =>   2
Atom  10H    basis set group =>   2
Atom  11H    basis set group =>   2
Atom  12O    basis set group =>   3
Atom  13H    basis set group =>   2
Atom  14C    basis set group =>   1
Atom  15C    basis set group =>   1
Atom  16H    basis set group =>   2
Atom  17H    basis set group =>   2
Atom  18C    basis set group =>   1
Atom  19H    basis set group =>   2
Atom  20C    basis set group =>   1
Atom  21H    basis set group =>   2
Atom  22C    basis set group =>   1
Atom  23C    basis set group =>   1
Atom  24H    basis set group =>   2
Atom  25H    basis set group =>   2
Atom  26C    basis set group =>   1
Atom  27H    basis set group =>   2
Atom  28H    basis set group =>   2
Atom  29C    basis set group =>   1
Atom  30H    basis set group =>   2
Atom  31H    basis set group =>   2
Atom  32C    basis set group =>   1
Atom  33H    basis set group =>   2
Atom  34C    basis set group =>   1
Atom  35H    basis set group =>   2
Atom  36C    basis set group =>   1
Atom  37H    basis set group =>   2
Atom  38H    basis set group =>   2
Atom  39C    basis set group =>   1
Atom  40H    basis set group =>   2
Atom  41H    basis set group =>   2
Atom  42H    basis set group =>   2
Atom  43C    basis set group =>   1
Atom  44C    basis set group =>   1
Atom  45H    basis set group =>   2
Atom  46H    basis set group =>   2
Atom  47H    basis set group =>   2
Atom  48H    basis set group =>   2
Atom  49C    basis set group =>   1
Atom  50C    basis set group =>   1
Atom  51C    basis set group =>   1
Atom  52H    basis set group =>   2
Atom  53H    basis set group =>   2
Atom  54C    basis set group =>   1
Atom  55C    basis set group =>   1
Atom  56C    basis set group =>   1
Atom  57H    basis set group =>   2
Atom  58H    basis set group =>   2
Atom  59C    basis set group =>   1
Atom  60C    basis set group =>   1
Atom  61H    basis set group =>   2
Atom  62H    basis set group =>   2
Atom  63H    basis set group =>   2
Atom  64H    basis set group =>   2
Atom  65H    basis set group =>   2
Atom  66H    basis set group =>   2
Atom  67H    basis set group =>   2
Atom  68H    basis set group =>   2
Atom  69H    basis set group =>   2
Atom  70H    basis set group =>   2
Atom  71H    basis set group =>   2
Atom  72H    basis set group =>   2

-------------------------
BASIS SET IN INPUT FORMAT
-------------------------

 # Basis set for element : H 
 NewGTO H 
 S 3 
   1      12.2518000000      0.0372173893
   2       1.8687100000      0.2538082070
   3       0.4182080000      0.7973867639
 S 1 
   1       0.1061000000      1.0000000000
 P 2 
   1       9.0000000000      0.0402678705
   2       1.0000000000      0.9880231245
  end;

 # Basis set for element : C 
 NewGTO C 
 S 5 
   1    1243.2000000000      0.0056300977
   2     187.1450000000      0.0419506039
   3      42.5126000000      0.1846643605
   4      11.7393000000      0.4665574214
   5       3.5054800000      0.4482347783
 S 2 
   1       5.3908900000     -0.1481148174
   2       0.4933410000      1.0519817143
 S 1 
   1       0.1497410000      1.0000000000
 P 3 
   1      59.6736000000      0.0113906672
   2       9.1805600000      0.1672414929
   3       1.9365800000      0.9041087436
 P 1 
   1       0.5262960000      1.0000000000
 P 1 
   1       0.1363190000      1.0000000000
 D 1 
   1       0.8000000000      1.0000000000
  end;

 # Basis set for element : O 
 NewGTO O 
 S 5 
   1    2288.6400000000      0.0054511382
   2     344.4160000000      0.0407189228
   3      78.2538000000      0.1813694209
   4      21.7195000000      0.4655368202
   5       6.5590700000      0.4512113212
 S 2 
   1      10.4656000000     -0.1502112012
   2       0.9643510000      1.0528679834
 S 1 
   1       0.2851270000      1.0000000000
 P 3 
   1     110.8840000000      0.0113058003
   2      17.0590000000      0.1699226452
   3       3.6899900000      0.9008060328
 P 1 
   1       0.9929960000      1.0000000000
 P 1 
   1       0.2449240000      1.0000000000
 D 1 
   1       1.0000000000      1.0000000000
  end;

---------------------------------
AUXILIARY/J BASIS SET INFORMATION
---------------------------------
There are 3 groups of distinct atoms

 Group   1 Type C   : 12s5p4d2f1g contracted to 6s4p3d1f1g pattern {711111/2111/211/2/1}
 Group   2 Type H   : 5s2p1d contracted to 3s1p1d pattern {311/2/1}
 Group   3 Type O   : 12s5p4d2f1g contracted to 6s4p3d1f1g pattern {711111/2111/211/2/1}

Atom   0C    basis set group =>   1
Atom   1C    basis set group =>   1
Atom   2C    basis set group =>   1
Atom   3H    basis set group =>   2
Atom   4H    basis set group =>   2
Atom   5C    basis set group =>   1
Atom   6C    basis set group =>   1
Atom   7C    basis set group =>   1
Atom   8H    basis set group =>   2
Atom   9H    basis set group =>   2
Atom  10H    basis set group =>   2
Atom  11H    basis set group =>   2
Atom  12O    basis set group =>   3
Atom  13H    basis set group =>   2
Atom  14C    basis set group =>   1
Atom  15C    basis set group =>   1
Atom  16H    basis set group =>   2
Atom  17H    basis set group =>   2
Atom  18C    basis set group =>   1
Atom  19H    basis set group =>   2
Atom  20C    basis set group =>   1
Atom  21H    basis set group =>   2
Atom  22C    basis set group =>   1
Atom  23C    basis set group =>   1
Atom  24H    basis set group =>   2
Atom  25H    basis set group =>   2
Atom  26C    basis set group =>   1
Atom  27H    basis set group =>   2
Atom  28H    basis set group =>   2
Atom  29C    basis set group =>   1
Atom  30H    basis set group =>   2
Atom  31H    basis set group =>   2
Atom  32C    basis set group =>   1
Atom  33H    basis set group =>   2
Atom  34C    basis set group =>   1
Atom  35H    basis set group =>   2
Atom  36C    basis set group =>   1
Atom  37H    basis set group =>   2
Atom  38H    basis set group =>   2
Atom  39C    basis set group =>   1
Atom  40H    basis set group =>   2
Atom  41H    basis set group =>   2
Atom  42H    basis set group =>   2
Atom  43C    basis set group =>   1
Atom  44C    basis set group =>   1
Atom  45H    basis set group =>   2
Atom  46H    basis set group =>   2
Atom  47H    basis set group =>   2
Atom  48H    basis set group =>   2
Atom  49C    basis set group =>   1
Atom  50C    basis set group =>   1
Atom  51C    basis set group =>   1
Atom  52H    basis set group =>   2
Atom  53H    basis set group =>   2
Atom  54C    basis set group =>   1
Atom  55C    basis set group =>   1
Atom  56C    basis set group =>   1
Atom  57H    basis set group =>   2
Atom  58H    basis set group =>   2
Atom  59C    basis set group =>   1
Atom  60C    basis set group =>   1
Atom  61H    basis set group =>   2
Atom  62H    basis set group =>   2
Atom  63H    basis set group =>   2
Atom  64H    basis set group =>   2
Atom  65H    basis set group =>   2
Atom  66H    basis set group =>   2
Atom  67H    basis set group =>   2
Atom  68H    basis set group =>   2
Atom  69H    basis set group =>   2
Atom  70H    basis set group =>   2
Atom  71H    basis set group =>   2
Atom  72H    basis set group =>   2

-------------------------------------
AUXILIARY/J BASIS SET IN INPUT FORMAT
-------------------------------------

 # Auxiliary/J basis set for element : H 
 NewAuxJGTO H 
 S 3 
   1      15.6752927000      0.1007184237
   2       3.6063578000      0.3404257499
   3       1.2080016000      0.6491996172
 S 1 
   1       0.4726794000      1.0000000000
 S 1 
   1       0.2018100000      1.0000000000
 P 2 
   1       2.0281365000      0.5596620919
   2       0.5358730000      0.5596620919
 D 1 
   1       2.2165124000      1.0000000000
  end;

 # Auxiliary/J basis set for element : C 
 NewAuxJGTO C 
 S 7 
   1    1861.0916331000      0.0134602335
   2     642.9939764000      0.0299160374
   3     235.1105725000      0.1008649584
   4      90.7028894000      0.2370970548
   5      36.7794552000      0.3924037254
   6      15.6046273000      0.3195862154
   7       6.8907294000      0.0530104441
 S 1 
   1       3.1478850000     -1.0000000000
 S 1 
   1       1.4777287000      1.0000000000
 S 1 
   1       0.7076466000      1.0000000000
 S 1 
   1       0.3430122000      1.0000000000
 S 1 
   1       0.1669453000      1.0000000000
 P 2 
   1      13.5472892000     -0.6769313712
   2       5.4669419000     -0.3779500978
 P 1 
   1       2.1751721000      1.0000000000
 P 1 
   1       0.8582194000      1.0000000000
 P 1 
   1       0.3376720000      1.0000000000
 D 2 
   1       5.9287253000     -0.3533329857
   2       1.9809209000     -0.7456525731
 D 1 
   1       0.8055417000     -1.0000000000
 D 1 
   1       0.3531244000     -1.0000000000
 F 2 
   1       1.6755626000      0.6311076882
   2       0.5997536000      0.4968166032
 G 1 
   1       1.0024600000     -1.0000000000
  end;

 # Auxiliary/J basis set for element : O 
 NewAuxJGTO O 
 S 7 
   1    2876.8216605000      0.0168151159
   2    1004.7443032000      0.0340137548
   3     369.7579954000      0.1194951309
   4     142.9442404000      0.2664627624
   5      57.8366425000      0.4202764046
   6      24.3864983000      0.2765077335
   7      10.6622662000      0.0057008815
 S 1 
   1       4.8070437000     -1.0000000000
 S 1 
   1       2.2210770000      1.0000000000
 S 1 
   1       1.0447795000      1.0000000000
 S 1 
   1       0.4968425000      1.0000000000
 S 1 
   1       0.2371384000      1.0000000000
 P 2 
   1      64.2613382000     -0.2731534179
   2      16.3006076000     -0.8168011598
 P 1 
   1       4.3550542000      1.0000000000
 P 1 
   1       1.2019554000      1.0000000000
 P 1 
   1       0.3354196000      1.0000000000
 D 2 
   1       9.2146611000     -0.4661230638
   2       2.8435251000     -0.6600908911
 D 1 
   1       0.9955759000     -1.0000000000
 D 1 
   1       0.3649441000     -1.0000000000
 F 2 
   1       2.6420115000      0.5931563945
   2       0.7345613000      0.5931563945
 G 1 
   1       1.3931000000     -1.0000000000
  end;



           ************************************************************
           *        Program running with 4 parallel MPI-processes     *
           *              working on a common directory               *
           ************************************************************
------------------------------------------------------------------------------
                           ORCA GTO INTEGRAL CALCULATION
                           -- RI-GTO INTEGRALS CHOSEN --
------------------------------------------------------------------------------
------------------------------------------------------------------------------
                   ___                                                        
                  /   \      - P O W E R E D   B Y -                         
                 /     \                                                     
                 |  |  |   _    _      __       _____    __    __             
                 |  |  |  | |  | |    /  \     |  _  \  |  |  /  |          
                  \  \/   | |  | |   /    \    | | | |  |  | /  /          
                 / \  \   | |__| |  /  /\  \   | |_| |  |  |/  /          
                |  |  |   |  __  | /  /__\  \  |    /   |      \           
                |  |  |   | |  | | |   __   |  |    \   |  |\   \          
                \     /   | |  | | |  |  |  |  | |\  \  |  | \   \       
                 \___/    |_|  |_| |__|  |__|  |_| \__\ |__|  \__/        
                                                                              
                      - O R C A' S   B I G   F R I E N D -                    
                                      &                                       
                       - I N T E G R A L  F E E D E R -                       
                                                                              
 v1 FN, 2020, v2 2021                                                         
------------------------------------------------------------------------------


Reading SHARK input file inpS.SHARKINP.tmp ... ok
----------------------
SHARK INTEGRAL PACKAGE
----------------------

Number of atoms                             ...     73
Number of basis functions                   ...    713
Number of shells                            ...    335
Maximum angular momentum                    ...      2
Integral batch strategy                     ... SHARK/LIBINT Hybrid
RI-J (if used) integral strategy            ... SPLIT-RIJ (Revised 2003 algorithm where possible)
Printlevel                                  ...      1
Contraction scheme used                     ... SEGMENTED contraction
Coulomb Range Separation                    ... NOT USED
Exchange Range Separation                   ... NOT USED
Finite Nucleus Model                        ... NOT USED
Auxiliary Coulomb fitting basis             ... AVAILABLE
   # of basis functions in Aux-J            ...   1905
   # of shells in Aux-J                     ...    655
   Maximum angular momentum in Aux-J        ...      4
Auxiliary J/K fitting basis                 ... NOT available
Auxiliary Correlation fitting basis         ... NOT available
Auxiliary 'external' fitting basis          ... NOT available
Integral threshold                          ...     3.000000e-11
Primitive cut-off                           ...     1.000000e-12
Primitive pair pre-selection threshold      ...     1.000000e-12

Calculating pre-screening integrals         ... done (  0.0 sec) Dimension = 335
Organizing shell pair data                  ... done (  0.1 sec)
Shell pair information
Total number of shell pairs                 ...     56280
Shell pairs after pre-screening             ...     31476
Total number of primitive shell pairs       ...    225367
Primitive shell pairs kept                  ...     74267
          la=0 lb=0:   9618 shell pairs
          la=1 lb=0:  12934 shell pairs
          la=1 lb=1:   4230 shell pairs
          la=2 lb=0:   2752 shell pairs
          la=2 lb=1:   1746 shell pairs
          la=2 lb=2:    196 shell pairs

Calculating one electron integrals          ... done (  0.1 sec)
Calculating RI/J V-Matrix + Cholesky decomp.... done (  0.1 sec)
Calculating Nuclear repulsion               ... done (  0.0 sec) ENN=   2773.193137672711 Eh

SHARK setup successfully completed in   0.6 seconds

Maximum memory used throughout the entire GTOINT-calculation: 61.1 MB


           ************************************************************
           *        Program running with 4 parallel MPI-processes     *
           *              working on a common directory               *
           ************************************************************
-------------------------------------------------------------------------------
                                 ORCA SCF
-------------------------------------------------------------------------------

------------
SCF SETTINGS
------------
Hamiltonian:
 Density Functional     Method          .... DFT(GTOs)
 Exchange Functional    Exchange        .... revTPSS
 Correlation Functional Correlation     .... revTPSS
 LDA part of GGA corr.  LDAOpt          .... PW91-LDA
 Gradients option       PostSCFGGA      .... off
   Density functional embedding theory  .... OFF
 RI-approximation to the Coulomb term is turned on
   Number of AuxJ basis functions       .... 1905


General Settings:
 Integral files         IntName         .... inpS
 Hartree-Fock type      HFTyp           .... RHF
 Total Charge           Charge          ....    0
 Multiplicity           Mult            ....    1
 Number of Electrons    NEL             ....  220
 Basis Dimension        Dim             ....  713
 Nuclear Repulsion      ENuc            ....   2773.1931376727 Eh

Convergence Acceleration:
 DIIS                   CNVDIIS         .... on
   Start iteration      DIISMaxIt       ....    12
   Startup error        DIISStart       ....  0.200000
   # of expansion vecs  DIISMaxEq       ....     5
   Bias factor          DIISBfac        ....   1.050
   Max. coefficient     DIISMaxC        ....  10.000
 Trust-Rad. Augm. Hess. CNVTRAH         .... auto
   Auto Start mean grad. ratio tolernc. ....  1.125000
   Auto Start start iteration           ....    20
   Auto Start num. interpolation iter.  ....    10
   Max. Number of Micro iterations      ....    16
   Max. Number of Macro iterations      .... Maxiter - #DIIS iter
   Number of Davidson start vectors     ....     2
   Converg. threshold I  (grad. norm)   ....   1.000e-04
   Converg. threshold II (energy diff.) ....   1.000e-07
   Grad. Scal. Fac. for Micro threshold ....   0.100
   Minimum threshold for Micro iter.    ....   0.010
   NR start threshold (gradient norm)   ....   0.001
   Initial trust radius                 ....   0.400
   Minimum AH scaling param. (alpha)    ....   1.000
   Maximum AH scaling param. (alpha)    .... 1000.000
   Orbital update algorithm             .... Taylor
   White noise on init. David. guess    .... on
   Maximum white noise                  ....   0.010
   Quad. conv. algorithm                .... NR
 SOSCF                  CNVSOSCF        .... off
 Level Shifting         CNVShift        .... on
   Level shift para.    LevelShift      ....    0.2500
   Turn off err/grad.   ShiftErr        ....    0.0010
 Zerner damping         CNVZerner       .... off
 Static damping         CNVDamp         .... on
   Fraction old density DampFac         ....    0.7000
   Max. Damping (<1)    DampMax         ....    0.9800
   Min. Damping (>=0)   DampMin         ....    0.0000
   Turn off err/grad.   DampErr         ....    0.1000
 Fernandez-Rico         CNVRico         .... off

SCF Procedure:
 Maximum # iterations   MaxIter         ....   125
 SCF integral mode      SCFMode         .... Direct
   Integral package                     .... SHARK and LIBINT hybrid scheme
 Reset frequency        DirectResetFreq ....    20
 Integral Threshold     Thresh          ....  3.000e-11 Eh
 Primitive CutOff       TCut            ....  1.000e-12 Eh

Convergence Tolerance:
 Convergence Check Mode ConvCheckMode   .... Total+1el-Energy
 Convergence forced     ConvForced      .... 0
 Energy Change          TolE            ....  1.000e-07 Eh
 1-El. energy change                    ....  1.000e-04 Eh
 DIIS Error             TolErr          ....  1.000e-07


Diagonalization of the overlap matrix:
Smallest eigenvalue                        ... 4.961e-04
Time for diagonalization                   ...    0.063 sec
Threshold for overlap eigenvalues          ... 1.000e-08
Number of eigenvalues below threshold      ... 0
Time for construction of square roots      ...    0.059 sec
Total time needed                          ...    0.123 sec

Time for model grid setup =    0.757 sec

------------------------------
INITIAL GUESS: MODEL POTENTIAL
------------------------------
Loading Hartree-Fock densities                     ... done
Calculating cut-offs                               ... done
Initializing the effective Hamiltonian             ... done
Setting up the integral package (SHARK)            ... done
Starting the Coulomb interaction                   ... done (   0.6 sec)
Reading the grid                                   ... done
Mapping shells                                     ... done
Starting the XC term evaluation                    ... done (   0.3 sec)
  promolecular density results
     # of electrons  =    219.986608500
     EX              =   -164.434820396
     EC              =     -7.328040633
     EX+EC           =   -171.762861029
Transforming the Hamiltonian                       ... done (   0.0 sec)
Diagonalizing the Hamiltonian                      ... done (   0.1 sec)
Back transforming the eigenvectors                 ... done (   0.0 sec)
Now organizing SCF variables                       ... done
                      ------------------
                      INITIAL GUESS DONE (   1.9 sec)
                      ------------------
-------------------
DFT GRID GENERATION
-------------------

General Integration Accuracy     IntAcc      ... 4.388
Radial Grid Type                 RadialGrid  ... OptM3 with GC (2021)
Angular Grid (max. ang.)         AngularGrid ... 4 (Lebedev-302)
Angular grid pruning method      GridPruning ... 4 (adaptive)
Weight generation scheme         WeightScheme... Becke
Basis function cutoff            BFCut       ... 1.0000e-11
Integration weight cutoff        WCut        ... 1.0000e-14
Angular grids for H and He will be reduced by one unit
Partially contracted basis set               ... off
Rotationally invariant grid construction     ... off

Total number of grid points                  ...   309902
Total number of batches                      ...     4879
Average number of points per batch           ...       63
Average number of grid points per atom       ...     4245
Time for grid setup =    3.230 sec


--------------------
CPCM SOLVATION MODEL
--------------------
CPCM parameters:
  Epsilon                                         ...       4.9000
  Refrac                                          ...       1.4500
  Rsolv                                           ...       1.3000
  Surface type                                    ... GAUSSIAN VDW
  Epsilon function type                           ...         CPCM
Radii:
 Radius for C  used is    3.8550 Bohr (=   2.0400 Ang.)
 Radius for H  used is    2.4944 Bohr (=   1.3200 Ang.)
 Radius for O  used is    3.4469 Bohr (=   1.8240 Ang.)
Calculating surface                               ...        done! (  0.0s)
GEPOL surface points                              ...         3621
GEPOL Volume                                      ...    3595.2646
GEPOL Surface-area                                ...    1779.3621
Calculating surface distance matrix               ...        done! (  0.1s)
Performing Cholesky decomposition & store         ...        done! (  0.6s)
Overall time for CPCM initialization              ...                 0.7s
--------------
SCF ITERATIONS
--------------
ITER       Energy         Delta-E        Max-DP      RMS-DP      [F,P]     Damp
               ***  Starting incremental Fock matrix formation  ***

  HOMO= 109 E= -1.873 eV LUMO=  7.831 eV gap=   9.705 eV
  0  -1167.5215363108   0.000000000000 0.05248852  0.00083465  0.2606079 0.7000

  HOMO= 109 E= -3.347 eV LUMO=  6.719 eV gap=  10.066 eV
  1  -1167.8942296682  -0.372693357323 0.02892175  0.00061657  0.1012781 0.7000
                               ***Turning on DIIS***

  HOMO= 109 E= -4.321 eV LUMO=  5.828 eV gap=  10.149 eV
  2  -1168.0402688309  -0.146039162757 0.05183046  0.00101491  0.0301834 0.0000

  HOMO= 109 E= -4.949 eV LUMO=  5.236 eV gap=  10.185 eV
  3  -1168.2371003569  -0.196831525986 0.02324208  0.00047645  0.0547639 0.0000

  HOMO= 109 E= -4.988 eV LUMO=  5.198 eV gap=  10.186 eV
  4  -1168.3040665566  -0.066966199731 0.00754668  0.00015300  0.0102515 0.0000

  HOMO= 109 E= -4.937 eV LUMO=  5.255 eV gap=  10.193 eV
  5  -1168.3071270948  -0.003060538148 0.00307128  0.00005676  0.0090836 0.0000

  HOMO= 109 E= -4.919 eV LUMO=  5.271 eV gap=  10.190 eV
  6  -1168.3073899686  -0.000262873840 0.00125005  0.00001923  0.0029119 0.0000

  HOMO= 109 E= -4.920 eV LUMO= -1.533 eV gap=   3.387 eV
  7  -1168.3074102765  -0.000020307885 0.00071825  0.00001169  0.0005778 0.0000

  HOMO= 109 E= -4.918 eV LUMO= -1.531 eV gap=   3.387 eV
  8  -1168.3074132978  -0.000003021316 0.00027227  0.00000292  0.0003802 0.0000

  HOMO= 109 E= -4.916 eV LUMO= -1.529 eV gap=   3.387 eV
  9  -1168.3074139059  -0.000000608114 0.00017278  0.00000159  0.0002713 0.0000

  HOMO= 109 E= -4.917 eV LUMO= -1.530 eV gap=   3.387 eV
 10  -1168.3074141583  -0.000000252368 0.00005976  0.00000069  0.0001073 0.0000

  HOMO= 109 E= -4.917 eV LUMO= -1.530 eV gap=   3.387 eV
 11  -1168.3074141950  -0.000000036693 0.00002395  0.00000025  0.0000301 0.0000

  HOMO= 109 E= -4.917 eV LUMO= -1.530 eV gap=   3.387 eV
 12  -1168.3074141774   0.000000017551 0.00000980  0.00000011  0.0000151 0.0000

  HOMO= 109 E= -4.917 eV LUMO= -1.530 eV gap=   3.387 eV
 13  -1168.3074142032  -0.000000025715 0.00000520  0.00000005  0.0000084 0.0000
                 **** Energy Check signals convergence ****

               *****************************************************
               *                     SUCCESS                       *
               *           SCF CONVERGED AFTER  14 CYCLES          *
               *****************************************************


----------------
TOTAL SCF ENERGY
----------------

Total Energy       :        -1168.30741421 Eh          -31791.26098 eV

Components:
Nuclear Repulsion  :         2773.19313767 Eh           75462.42171 eV
Electronic Energy  :        -3941.50055188 Eh         -107253.68269 eV
One Electron Energy:        -7092.78959096 Eh         -193004.61694 eV
Two Electron Energy:         3151.28903908 Eh           85750.93425 eV
CPCM Dielectric    :           -0.01048365 Eh              -0.28527 eV

Virial components:
Potential Energy   :        -2330.40442368 Eh          -63413.52825 eV
Kinetic Energy     :         1162.09700947 Eh           31622.26727 eV
Virial Ratio       :            2.00534414


DFT components:
N(Alpha)           :      109.999968294272 electrons
N(Beta)            :      109.999968294272 electrons
N(Total)           :      219.999936588544 electrons
E(X)               :     -169.583567961370 Eh       
E(C)               :       -7.443578911912 Eh       
E(XC)              :     -177.027146873281 Eh       
DFET-embed. en.    :        0.000000000000 Eh       
CPCM Solvation Model Properties:
Surface-charge          :           -0.04521770
Charge-correction       :           -0.00002831 Eh              -0.00077 eV
Free-energy (cav+disp)  :  This term is not implemented in the current solvation scheme

---------------
SCF CONVERGENCE
---------------

  Last Energy change         ...   -4.8012e-09  Tolerance :   1.0000e-07
  Last MAX-Density change    ...    2.9484e-06  Tolerance :   1.0000e-05
  Last RMS-Density change    ...    2.6273e-08  Tolerance :   1.0000e-06
  Last DIIS Error            ...    3.2068e-06  Tolerance :   1.0000e-07

             **** THE GBW FILE WAS UPDATED (inpS.gbw) ****
             **** DENSITY inpS.scfp WAS UPDATED ****
             **** ENERGY FILE WAS UPDATED (inpS.en.tmp) ****
             **** THE GBW FILE WAS UPDATED (inpS.gbw) ****
             **** DENSITY inpS.scfp WAS UPDATED ****
----------------
ORBITAL ENERGIES
----------------

  NO   OCC          E(Eh)            E(eV) 
   0   2.0000     -18.905505      -514.4449 
   1   2.0000     -10.057004      -273.6650 
   2   2.0000     -10.015818      -272.5443 
   3   2.0000     -10.013402      -272.4785 
   4   2.0000     -10.013306      -272.4759 
   5   2.0000     -10.011403      -272.4241 
   6   2.0000     -10.011381      -272.4235 
   7   2.0000     -10.010844      -272.4089 
   8   2.0000     -10.010167      -272.3905 
   9   2.0000     -10.008222      -272.3376 
  10   2.0000     -10.007745      -272.3246 
  11   2.0000     -10.006717      -272.2966 
  12   2.0000     -10.006508      -272.2909 
  13   2.0000     -10.006360      -272.2869 
  14   2.0000     -10.005290      -272.2578 
  15   2.0000     -10.004682      -272.2412 
  16   2.0000     -10.004103      -272.2255 
  17   2.0000     -10.000931      -272.1392 
  18   2.0000      -9.999971      -272.1130 
  19   2.0000      -9.998634      -272.0767 
  20   2.0000      -9.998370      -272.0695 
  21   2.0000      -9.998252      -272.0663 
  22   2.0000      -9.998197      -272.0648 
  23   2.0000      -9.997791      -272.0537 
  24   2.0000      -9.997717      -272.0517 
  25   2.0000      -9.997015      -272.0326 
  26   2.0000      -9.995701      -271.9968 
  27   2.0000      -9.994547      -271.9655 
  28   2.0000      -9.994101      -271.9533 
  29   2.0000      -0.955778       -26.0080 
  30   2.0000      -0.806983       -21.9591 
  31   2.0000      -0.790927       -21.5222 
  32   2.0000      -0.770417       -20.9641 
  33   2.0000      -0.756093       -20.5743 
  34   2.0000      -0.733689       -19.9647 
  35   2.0000      -0.727165       -19.7872 
  36   2.0000      -0.708209       -19.2713 
  37   2.0000      -0.707864       -19.2620 
  38   2.0000      -0.693044       -18.8587 
  39   2.0000      -0.675335       -18.3768 
  40   2.0000      -0.657930       -17.9032 
  41   2.0000      -0.654492       -17.8096 
  42   2.0000      -0.634711       -17.2714 
  43   2.0000      -0.628506       -17.1025 
  44   2.0000      -0.623306       -16.9610 
  45   2.0000      -0.616032       -16.7631 
  46   2.0000      -0.590075       -16.0568 
  47   2.0000      -0.587828       -15.9956 
  48   2.0000      -0.558834       -15.2067 
  49   2.0000      -0.548869       -14.9355 
  50   2.0000      -0.547389       -14.8952 
  51   2.0000      -0.539342       -14.6763 
  52   2.0000      -0.526396       -14.3240 
  53   2.0000      -0.516443       -14.0531 
  54   2.0000      -0.492718       -13.4076 
  55   2.0000      -0.473226       -12.8771 
  56   2.0000      -0.465548       -12.6682 
  57   2.0000      -0.462738       -12.5918 
  58   2.0000      -0.451092       -12.2748 
  59   2.0000      -0.445757       -12.1297 
  60   2.0000      -0.432397       -11.7661 
  61   2.0000      -0.428286       -11.6543 
  62   2.0000      -0.426236       -11.5985 
  63   2.0000      -0.415342       -11.3020 
  64   2.0000      -0.413487       -11.2515 
  65   2.0000      -0.411390       -11.1945 
  66   2.0000      -0.400820       -10.9069 
  67   2.0000      -0.397046       -10.8042 
  68   2.0000      -0.395472       -10.7613 
  69   2.0000      -0.388896       -10.5824 
  70   2.0000      -0.385820       -10.4987 
  71   2.0000      -0.381372       -10.3777 
  72   2.0000      -0.378118       -10.2891 
  73   2.0000      -0.371798       -10.1171 
  74   2.0000      -0.368995       -10.0409 
  75   2.0000      -0.359861        -9.7923 
  76   2.0000      -0.358360        -9.7515 
  77   2.0000      -0.356553        -9.7023 
  78   2.0000      -0.353161        -9.6100 
  79   2.0000      -0.351030        -9.5520 
  80   2.0000      -0.347739        -9.4625 
  81   2.0000      -0.344123        -9.3641 
  82   2.0000      -0.343122        -9.3368 
  83   2.0000      -0.336702        -9.1621 
  84   2.0000      -0.333921        -9.0865 
  85   2.0000      -0.331256        -9.0139 
  86   2.0000      -0.324306        -8.8248 
  87   2.0000      -0.321408        -8.7460 
  88   2.0000      -0.319716        -8.6999 
  89   2.0000      -0.313685        -8.5358 
  90   2.0000      -0.312536        -8.5045 
  91   2.0000      -0.305827        -8.3220 
  92   2.0000      -0.302948        -8.2436 
  93   2.0000      -0.294519        -8.0143 
  94   2.0000      -0.289568        -7.8796 
  95   2.0000      -0.286812        -7.8045 
  96   2.0000      -0.284290        -7.7359 
  97   2.0000      -0.282632        -7.6908 
  98   2.0000      -0.279187        -7.5971 
  99   2.0000      -0.277488        -7.5508 
 100   2.0000      -0.275078        -7.4853 
 101   2.0000      -0.273632        -7.4459 
 102   2.0000      -0.268586        -7.3086 
 103   2.0000      -0.264823        -7.2062 
 104   2.0000      -0.260376        -7.0852 
 105   2.0000      -0.248654        -6.7662 
 106   2.0000      -0.233242        -6.3468 
 107   2.0000      -0.227179        -6.1819 
 108   2.0000      -0.212683        -5.7874 
 109   2.0000      -0.180695        -4.9170 
 110   0.0000      -0.056221        -1.5299 
 111   0.0000      -0.012890        -0.3508 
 112   0.0000      -0.005824        -0.1585 
 113   0.0000       0.032523         0.8850 
 114   0.0000       0.039512         1.0752 
 115   0.0000       0.043275         1.1776 
 116   0.0000       0.046829         1.2743 
 117   0.0000       0.048582         1.3220 
 118   0.0000       0.052172         1.4197 
 119   0.0000       0.057453         1.5634 
 120   0.0000       0.059624         1.6225 
 121   0.0000       0.069029         1.8784 
 122   0.0000       0.072531         1.9737 
 123   0.0000       0.073154         1.9906 
 124   0.0000       0.074937         2.0391 
 125   0.0000       0.077843         2.1182 
 126   0.0000       0.083552         2.2736 
 127   0.0000       0.088242         2.4012 
 128   0.0000       0.090181         2.4539 
 129   0.0000       0.093759         2.5513 
 130   0.0000       0.096098         2.6150 
 131   0.0000       0.099504         2.7076 
 132   0.0000       0.104871         2.8537 
 133   0.0000       0.104994         2.8570 
 134   0.0000       0.110151         2.9974 
 135   0.0000       0.110863         3.0167 
 136   0.0000       0.114491         3.1154 
 137   0.0000       0.121809         3.3146 
 138   0.0000       0.123681         3.3655 
 139   0.0000       0.124323         3.3830 
 140   0.0000       0.127527         3.4702 
 141   0.0000       0.128844         3.5060 
 142   0.0000       0.130960         3.5636 
 143   0.0000       0.134267         3.6536 
 144   0.0000       0.135359         3.6833 
 145   0.0000       0.141983         3.8636 
 146   0.0000       0.142305         3.8723 
 147   0.0000       0.144622         3.9354 
 148   0.0000       0.147805         4.0220 
 149   0.0000       0.149465         4.0672 
 150   0.0000       0.155923         4.2429 
 151   0.0000       0.160088         4.3562 
 152   0.0000       0.161749         4.4014 
 153   0.0000       0.165816         4.5121 
 154   0.0000       0.169321         4.6075 
 155   0.0000       0.170856         4.6492 
 156   0.0000       0.174947         4.7606 
 157   0.0000       0.177698         4.8354 
 158   0.0000       0.180791         4.9196 
 159   0.0000       0.182688         4.9712 
 160   0.0000       0.183424         4.9912 
 161   0.0000       0.190717         5.1897 
 162   0.0000       0.196785         5.3548 
 163   0.0000       0.199479         5.4281 
 164   0.0000       0.201726         5.4892 
 165   0.0000       0.205802         5.6001 
 166   0.0000       0.206364         5.6155 
 167   0.0000       0.210027         5.7151 
 168   0.0000       0.215917         5.8754 
 169   0.0000       0.219704         5.9785 
 170   0.0000       0.228070         6.2061 
 171   0.0000       0.228930         6.2295 
 172   0.0000       0.229695         6.2503 
 173   0.0000       0.233049         6.3416 
 174   0.0000       0.239522         6.5177 
 175   0.0000       0.242233         6.5915 
 176   0.0000       0.246877         6.7179 
 177   0.0000       0.256002         6.9662 
 178   0.0000       0.263294         7.1646 
 179   0.0000       0.269580         7.3357 
 180   0.0000       0.271805         7.3962 
 181   0.0000       0.283915         7.7257 
 182   0.0000       0.289989         7.8910 
 183   0.0000       0.294992         8.0272 
 184   0.0000       0.305730         8.3193 
 185   0.0000       0.331811         9.0290 
 186   0.0000       0.338472         9.2103 
 187   0.0000       0.343281         9.3412 
 188   0.0000       0.345881         9.4119 
 189   0.0000       0.350414         9.5353 
 190   0.0000       0.357050         9.7158 
 191   0.0000       0.359548         9.7838 
 192   0.0000       0.367170         9.9912 
 193   0.0000       0.376639        10.2489 
 194   0.0000       0.377713        10.2781 
 195   0.0000       0.380541        10.3550 
 196   0.0000       0.384076        10.4512 
 197   0.0000       0.388962        10.5842 
 198   0.0000       0.393994        10.7211 
 199   0.0000       0.398177        10.8350 
 200   0.0000       0.403356        10.9759 
 201   0.0000       0.410526        11.1710 
 202   0.0000       0.410758        11.1773 
 203   0.0000       0.415479        11.3058 
 204   0.0000       0.423244        11.5171 
 205   0.0000       0.426414        11.6033 
 206   0.0000       0.436494        11.8776 
 207   0.0000       0.440258        11.9800 
 208   0.0000       0.445466        12.1217 
 209   0.0000       0.456629        12.4255 
 210   0.0000       0.464710        12.6454 
 211   0.0000       0.469215        12.7680 
 212   0.0000       0.473349        12.8805 
 213   0.0000       0.477352        12.9894 
 214   0.0000       0.480101        13.0642 
 215   0.0000       0.483098        13.1458 
 216   0.0000       0.490269        13.3409 
 217   0.0000       0.493433        13.4270 
 218   0.0000       0.497820        13.5464 
 219   0.0000       0.507396        13.8069 
 220   0.0000       0.510739        13.8979 
 221   0.0000       0.516797        14.0628 
 222   0.0000       0.521388        14.1877 
 223   0.0000       0.530349        14.4315 
 224   0.0000       0.532388        14.4870 
 225   0.0000       0.536022        14.5859 
 226   0.0000       0.537647        14.6301 
 227   0.0000       0.539601        14.6833 
 228   0.0000       0.544148        14.8070 
 229   0.0000       0.547680        14.9031 
 230   0.0000       0.551613        15.0102 
 231   0.0000       0.553318        15.0565 
 232   0.0000       0.555680        15.1208 
 233   0.0000       0.560849        15.2615 
 234   0.0000       0.565690        15.3932 
 235   0.0000       0.567846        15.4519 
 236   0.0000       0.572529        15.5793 
 237   0.0000       0.574290        15.6272 
 238   0.0000       0.576825        15.6962 
 239   0.0000       0.578756        15.7487 
 240   0.0000       0.580631        15.7998 
 241   0.0000       0.583108        15.8672 
 242   0.0000       0.585231        15.9250 
 243   0.0000       0.589218        16.0334 
 244   0.0000       0.591376        16.0921 
 245   0.0000       0.592690        16.1279 
 246   0.0000       0.598558        16.2876 
 247   0.0000       0.600413        16.3381 
 248   0.0000       0.602557        16.3964 
 249   0.0000       0.604948        16.4615 
 250   0.0000       0.609212        16.5775 
 251   0.0000       0.612128        16.6569 
 252   0.0000       0.613519        16.6947 
 253   0.0000       0.614709        16.7271 
 254   0.0000       0.617803        16.8113 
 255   0.0000       0.621933        16.9237 
 256   0.0000       0.625371        17.0172 
 257   0.0000       0.628608        17.1053 
 258   0.0000       0.629694        17.1348 
 259   0.0000       0.631850        17.1935 
 260   0.0000       0.634197        17.2574 
 261   0.0000       0.639256        17.3950 
 262   0.0000       0.639752        17.4085 
 263   0.0000       0.641168        17.4471 
 264   0.0000       0.643418        17.5083 
 265   0.0000       0.646521        17.5927 
 266   0.0000       0.649804        17.6821 
 267   0.0000       0.651724        17.7343 
 268   0.0000       0.654358        17.8060 
 269   0.0000       0.659350        17.9418 
 270   0.0000       0.661453        17.9991 
 271   0.0000       0.664246        18.0751 
 272   0.0000       0.669050        18.2058 
 273   0.0000       0.672000        18.2860 
 274   0.0000       0.673387        18.3238 
 275   0.0000       0.676064        18.3966 
 276   0.0000       0.678258        18.4563 
 277   0.0000       0.684530        18.6270 
 278   0.0000       0.685361        18.6496 
 279   0.0000       0.690689        18.7946 
 280   0.0000       0.695398        18.9227 
 281   0.0000       0.700063        19.0497 
 282   0.0000       0.704376        19.1670 
 283   0.0000       0.711685        19.3659 
 284   0.0000       0.718560        19.5530 
 285   0.0000       0.719947        19.5908 
 286   0.0000       0.722182        19.6516 
 287   0.0000       0.723477        19.6868 
 288   0.0000       0.729210        19.8428 
 289   0.0000       0.738978        20.1086 
 290   0.0000       0.742254        20.1977 
 291   0.0000       0.744635        20.2626 
 292   0.0000       0.752074        20.4650 
 293   0.0000       0.756307        20.5802 
 294   0.0000       0.762731        20.7550 
 295   0.0000       0.767677        20.8895 
 296   0.0000       0.770247        20.9595 
 297   0.0000       0.777220        21.1492 
 298   0.0000       0.786192        21.3934 
 299   0.0000       0.791240        21.5307 
 300   0.0000       0.804195        21.8833 
 301   0.0000       0.810342        22.0505 
 302   0.0000       0.823433        22.4068 
 303   0.0000       0.834890        22.7185 
 304   0.0000       0.841261        22.8919 
 305   0.0000       0.847767        23.0689 
 306   0.0000       0.855283        23.2734 
 307   0.0000       0.868398        23.6303 
 308   0.0000       0.887611        24.1531 
 309   0.0000       0.903917        24.5968 
 310   0.0000       0.915670        24.9167 
 311   0.0000       0.936747        25.4902 
 312   0.0000       0.940436        25.5906 
 313   0.0000       0.953452        25.9448 
 314   0.0000       0.971276        26.4298 
 315   0.0000       0.996272        27.1099 
 316   0.0000       0.999491        27.1975 
 317   0.0000       1.016387        27.6573 
 318   0.0000       1.033434        28.1212 
 319   0.0000       1.041869        28.3507 
 320   0.0000       1.049015        28.5451 
 321   0.0000       1.061082        28.8735 
 322   0.0000       1.073909        29.2225 
 323   0.0000       1.075943        29.2779 
 324   0.0000       1.093728        29.7619 
 325   0.0000       1.129317        30.7303 
 326   0.0000       1.131528        30.7904 
 327   0.0000       1.146945        31.2100 
 328   0.0000       1.168493        31.7963 
 329   0.0000       1.181919        32.1616 
 330   0.0000       1.186347        32.2822 
 331   0.0000       1.205074        32.7917 
 332   0.0000       1.224787        33.3281 
 333   0.0000       1.232577        33.5401 
 334   0.0000       1.260826        34.3088 
 335   0.0000       1.263947        34.3938 
 336   0.0000       1.279205        34.8089 
 337   0.0000       1.279937        34.8289 
 338   0.0000       1.287077        35.0231 
 339   0.0000       1.291161        35.1343 
 340   0.0000       1.318451        35.8769 
 341   0.0000       1.335650        36.3449 
 342   0.0000       1.354420        36.8556 
 343   0.0000       1.361899        37.0592 
 344   0.0000       1.369377        37.2626 
 345   0.0000       1.378059        37.4989 
 346   0.0000       1.384485        37.6738 
 347   0.0000       1.391301        37.8592 
 348   0.0000       1.412725        38.4422 
 349   0.0000       1.415794        38.5257 
 350   0.0000       1.429154        38.8892 
 351   0.0000       1.434348        39.0306 
 352   0.0000       1.448642        39.4196 
 353   0.0000       1.456043        39.6209 
 354   0.0000       1.462246        39.7897 
 355   0.0000       1.467486        39.9323 
 356   0.0000       1.487498        40.4769 
 357   0.0000       1.495954        40.7070 
 358   0.0000       1.506305        40.9887 
 359   0.0000       1.513173        41.1755 
 360   0.0000       1.518127        41.3103 
 361   0.0000       1.525136        41.5011 
 362   0.0000       1.536159        41.8010 
 363   0.0000       1.549395        42.1612 
 364   0.0000       1.557969        42.3945 
 365   0.0000       1.569879        42.7186 
 366   0.0000       1.572288        42.7841 
 367   0.0000       1.576938        42.9107 
 368   0.0000       1.596653        43.4471 
 369   0.0000       1.602162        43.5971 
 370   0.0000       1.607661        43.7467 
 371   0.0000       1.624635        44.2086 
 372   0.0000       1.626433        44.2575 
 373   0.0000       1.635674        44.5090 
 374   0.0000       1.650734        44.9188 
 375   0.0000       1.651854        44.9492 
 376   0.0000       1.659723        45.1634 
 377   0.0000       1.674926        45.5770 
 378   0.0000       1.677337        45.6427 
 379   0.0000       1.681470        45.7551 
 380   0.0000       1.694001        46.0961 
 381   0.0000       1.696126        46.1539 
 382   0.0000       1.702758        46.3344 
 383   0.0000       1.708469        46.4898 
 384   0.0000       1.719398        46.7872 
 385   0.0000       1.723682        46.9038 
 386   0.0000       1.728190        47.0265 
 387   0.0000       1.729152        47.0526 
 388   0.0000       1.735670        47.2300 
 389   0.0000       1.741099        47.3777 
 390   0.0000       1.742537        47.4168 
 391   0.0000       1.750200        47.6254 
 392   0.0000       1.756522        47.7974 
 393   0.0000       1.765146        48.0321 
 394   0.0000       1.770524        48.1784 
 395   0.0000       1.773351        48.2553 
 396   0.0000       1.780666        48.4544 
 397   0.0000       1.784855        48.5684 
 398   0.0000       1.786977        48.6261 
 399   0.0000       1.791539        48.7502 
 400   0.0000       1.798636        48.9434 
 401   0.0000       1.800882        49.0045 
 402   0.0000       1.808107        49.2011 
 403   0.0000       1.811923        49.3049 
 404   0.0000       1.816113        49.4189 
 405   0.0000       1.823365        49.6163 
 406   0.0000       1.826760        49.7087 
 407   0.0000       1.835867        49.9565 
 408   0.0000       1.845440        50.2170 
 409   0.0000       1.855032        50.4780 
 410   0.0000       1.859909        50.6107 
 411   0.0000       1.860958        50.6392 
 412   0.0000       1.872039        50.9408 
 413   0.0000       1.880101        51.1601 
 414   0.0000       1.883785        51.2604 
 415   0.0000       1.892691        51.5028 
 416   0.0000       1.899200        51.6799 
 417   0.0000       1.904250        51.8173 
 418   0.0000       1.910712        51.9931 
 419   0.0000       1.915942        52.1354 
 420   0.0000       1.919969        52.2450 
 421   0.0000       1.936364        52.6911 
 422   0.0000       1.937690        52.7272 
 423   0.0000       1.947529        52.9950 
 424   0.0000       1.951149        53.0935 
 425   0.0000       1.955690        53.2170 
 426   0.0000       1.964965        53.4694 
 427   0.0000       1.967277        53.5323 
 428   0.0000       1.973065        53.6898 
 429   0.0000       1.974652        53.7330 
 430   0.0000       1.981490        53.9191 
 431   0.0000       1.988374        54.1064 
 432   0.0000       1.991081        54.1801 
 433   0.0000       1.995508        54.3005 
 434   0.0000       2.000975        54.4493 
 435   0.0000       2.004569        54.5471 
 436   0.0000       2.008867        54.6641 
 437   0.0000       2.011842        54.7450 
 438   0.0000       2.014635        54.8210 
 439   0.0000       2.017061        54.8870 
 440   0.0000       2.025205        55.1086 
 441   0.0000       2.032679        55.3120 
 442   0.0000       2.041722        55.5581 
 443   0.0000       2.043678        55.6113 
[...]

 --------------
 Nucleus  47H :
 --------------

Diamagnetic contribution to the shielding tensor (ppm) : 
            31.229          3.152        -0.508
             0.909         49.270        -5.012
             0.736         -4.152        41.520

Paramagnetic contribution to the shielding tensor (ppm): 
            -2.576         -2.724         1.086
            -0.415        -16.265         1.509
            -0.711          0.689        -9.346

Total shielding tensor (ppm): 
            28.652          0.428         0.578
             0.494         33.006        -3.503
             0.026         -3.463        32.174


 Diagonalized sT*s matrix:
 
 sDSO            32.762           38.789           50.467  iso=      40.673
 sPSO            -4.470           -9.350          -14.367  iso=      -9.396
        ---------------  ---------------  ---------------
 Total           28.292           29.440           36.100  iso=      31.277

 --------------
 Nucleus  48H :
 --------------

Diamagnetic contribution to the shielding tensor (ppm) : 
            35.815         -0.040        -1.307
            -4.070         40.257        -7.412
            -0.305         -4.190        43.150

Paramagnetic contribution to the shielding tensor (ppm): 
            -4.072          1.133         1.638
             4.550        -12.944         4.382
             0.166          2.033       -12.905

Total shielding tensor (ppm): 
            31.743          1.092         0.331
             0.479         27.313        -3.031
            -0.140         -2.156        30.245


 Diagonalized sT*s matrix:
 
 sDSO            36.535           42.142           40.545  iso=      39.741
 sPSO           -10.823          -10.662           -8.437  iso=      -9.974
        ---------------  ---------------  ---------------
 Total           25.712           31.481           32.108  iso=      29.767

 --------------
 Nucleus  52H :
 --------------

Diamagnetic contribution to the shielding tensor (ppm) : 
            42.356          4.201        -7.371
             7.869         24.532        -7.972
            -7.783        -11.926        48.508

Paramagnetic contribution to the shielding tensor (ppm): 
           -13.577         -0.684        11.197
            -4.070          0.345        10.213
            10.159         13.947       -23.282

Total shielding tensor (ppm): 
            28.779          3.516         3.826
             3.799         24.876         2.241
             2.375          2.021        25.227


 Diagonalized sT*s matrix:
 
 sDSO            27.417           53.397           34.582  iso=      38.465
 sPSO            -4.794          -29.966           -1.754  iso=     -12.171
        ---------------  ---------------  ---------------
 Total           22.623           23.431           32.828  iso=      26.294

 --------------
 Nucleus  53H :
 --------------

Diamagnetic contribution to the shielding tensor (ppm) : 
            45.441          1.986        -8.246
            -1.551         39.512        -5.059
            -3.542         -0.371        50.180

Paramagnetic contribution to the shielding tensor (ppm): 
           -16.070          0.709        13.421
             4.370        -15.796         8.560
             7.781          1.934       -24.314

Total shielding tensor (ppm): 
            29.370          2.694         5.176
             2.819         23.716         3.501
             4.238          1.563        25.865


 Diagonalized sT*s matrix:
 
 sDSO            47.829           46.936           40.368  iso=      45.044
 sPSO           -25.830          -23.963           -6.388  iso=     -18.727
        ---------------  ---------------  ---------------
 Total           21.999           22.973           33.980  iso=      26.317

 --------------
 Nucleus  57H :
 --------------

Diamagnetic contribution to the shielding tensor (ppm) : 
            34.366         -3.805         2.150
           -15.930         29.345        -7.655
            12.632         -6.889        40.656

Paramagnetic contribution to the shielding tensor (ppm): 
            -4.381          2.911        -0.295
            14.172          2.012         3.574
           -10.852          3.687       -12.682

Total shielding tensor (ppm): 
            29.985         -0.894         1.855
            -1.759         31.357        -4.081
             1.780         -3.202        27.974


 Diagonalized sT*s matrix:
 
 sDSO            31.089           24.848           48.429  iso=      34.789
 sPSO            -5.608            4.347          -13.791  iso=      -5.017
        ---------------  ---------------  ---------------
 Total           25.482           29.196           34.639  iso=      29.772

 --------------
 Nucleus  58H :
 --------------

Diamagnetic contribution to the shielding tensor (ppm) : 
            37.238          0.728        -2.222
            -6.985         22.361         2.643
            -8.322         -0.294        40.878

Paramagnetic contribution to the shielding tensor (ppm): 
            -6.744         -0.006         1.874
             7.478          7.209         2.085
             8.461          5.174       -11.264

Total shielding tensor (ppm): 
            30.495          0.722        -0.348
             0.494         29.570         4.729
             0.139          4.880        29.614


 Diagonalized sT*s matrix:
 
 sDSO            30.147           38.660           31.669  iso=      33.492
 sPSO            -5.404           -8.153            2.759  iso=      -3.600
        ---------------  ---------------  ---------------
 Total           24.743           30.506           34.428  iso=      29.893

 --------------
 Nucleus  61H :
 --------------

Diamagnetic contribution to the shielding tensor (ppm) : 
            27.512         -1.037        -8.865
             6.315         29.277        -1.886
             5.664          3.765        47.588

Paramagnetic contribution to the shielding tensor (ppm): 
             2.965          3.196         5.393
            -4.654         -1.844         1.939
            -9.338         -4.387       -12.973

Total shielding tensor (ppm): 
            30.478          2.158        -3.473
             1.661         27.432         0.053
            -3.674         -0.622        34.615


 Diagonalized sT*s matrix:
 
 sDSO            26.496           34.431           43.451  iso=      34.792
 sPSO            -0.253           -4.981           -6.618  iso=      -3.951
        ---------------  ---------------  ---------------
 Total           26.243           29.449           36.833  iso=      30.842

 --------------
 Nucleus  62H :
 --------------

Diamagnetic contribution to the shielding tensor (ppm) : 
            30.060         -6.690         0.328
             0.172         42.876        -1.961
             7.455         -3.821        37.019

Paramagnetic contribution to the shielding tensor (ppm): 
             0.858          3.535        -0.584
            -2.977         -9.519         2.254
            -7.913          3.884        -7.635

Total shielding tensor (ppm): 
            30.917         -3.155        -0.256
            -2.805         33.357         0.293
            -0.458          0.062        29.384


 Diagonalized sT*s matrix:
 
 sDSO            32.743           35.841           41.371  iso=      36.652
 sPSO            -3.900           -6.403           -5.994  iso=      -5.432
        ---------------  ---------------  ---------------
 Total           28.843           29.439           35.377  iso=      31.219

 --------------
 Nucleus  63H :
 --------------

Diamagnetic contribution to the shielding tensor (ppm) : 
            29.028          5.187         6.414
             7.981         29.857        -2.785
            21.899          1.823        34.076

Paramagnetic contribution to the shielding tensor (ppm): 
             3.056         -2.544        -4.589
            -4.337         -2.118         7.293
           -19.245          2.479        -1.808

Total shielding tensor (ppm): 
            32.083          2.642         1.825
             3.643         27.739         4.508
             2.655          4.302        32.267


 Diagonalized sT*s matrix:
 
 sDSO            31.135           16.289           45.536  iso=      30.987
 sPSO            -6.456           13.715           -8.130  iso=      -0.290
        ---------------  ---------------  ---------------
 Total           24.679           30.004           37.407  iso=      30.696

 --------------
 Nucleus  64H :
 --------------

Diamagnetic contribution to the shielding tensor (ppm) : 
            40.194          6.110        -2.716
             4.557          6.875         2.873
           -12.657          2.224        11.811

Paramagnetic contribution to the shielding tensor (ppm): 
            -3.594         -4.632        -0.900
            -3.148         19.592        -4.490
             9.919         -3.075        17.301

Total shielding tensor (ppm): 
            36.600          1.478        -3.616
             1.408         26.468        -1.617
            -2.739         -0.851        29.112


 Diagonalized sT*s matrix:
 
 sDSO             8.964            7.831           42.085  iso=      19.627
 sPSO            17.013           20.331           -4.045  iso=      11.100
        ---------------  ---------------  ---------------
 Total           25.977           28.162           38.041  iso=      30.726

 --------------
 Nucleus  65H :
 --------------

Diamagnetic contribution to the shielding tensor (ppm) : 
            34.050         -2.194         6.312
           -18.782         16.796        -4.987
            12.044         -3.803        17.285

Paramagnetic contribution to the shielding tensor (ppm): 
            -0.806         -2.181        -3.126
            15.022         14.727         2.303
            -9.344          0.487        10.634

Total shielding tensor (ppm): 
            33.244         -4.376         3.186
            -3.760         31.523        -2.684
             2.700         -3.316        27.920


 Diagonalized sT*s matrix:
 
 sDSO            13.197           13.766           41.168  iso=      22.711
 sPSO            12.938           14.550           -2.933  iso=       8.185
        ---------------  ---------------  ---------------
 Total           26.135           28.316           38.235  iso=      30.896

 --------------
 Nucleus  66H :
 --------------

Diamagnetic contribution to the shielding tensor (ppm) : 
            29.301          4.972         4.835
             6.155         19.703         8.710
            15.241          7.389        22.383

Paramagnetic contribution to the shielding tensor (ppm): 
             2.797         -2.536        -2.578
            -4.374          9.321        -5.150
           -13.454         -3.587         8.713

Total shielding tensor (ppm): 
            32.098          2.436         2.257
             1.781         29.024         3.560
             1.787          3.802        31.096


 Diagonalized sT*s matrix:
 
 sDSO            13.402           17.996           39.990  iso=      23.796
 sPSO            12.791           12.012           -3.971  iso=       6.944
        ---------------  ---------------  ---------------
 Total           26.192           30.008           36.018  iso=      30.739

 --------------
 Nucleus  67H :
 --------------

Diamagnetic contribution to the shielding tensor (ppm) : 
            26.565          4.006         1.444
            14.789         38.722         1.935
            -7.460         -3.647        30.186

Paramagnetic contribution to the shielding tensor (ppm): 
             1.490         -3.414        -1.944
           -13.566         -2.535        -0.100
             7.004          4.724        -0.493

Total shielding tensor (ppm): 
            28.055          0.592        -0.500
             1.223         36.187         1.835
            -0.456          1.077        29.692


 Diagonalized sT*s matrix:
 
 sDSO            22.651           33.254           39.568  iso=      31.824
 sPSO             5.073           -3.615           -2.997  iso=      -0.513
        ---------------  ---------------  ---------------
 Total           27.724           29.639           36.571  iso=      31.311

 --------------
 Nucleus  68H :
 --------------

Diamagnetic contribution to the shielding tensor (ppm) : 
            39.400          0.738         4.738
            16.978         35.414        -6.714
            -3.426        -14.446        35.075

Paramagnetic contribution to the shielding tensor (ppm): 
            -4.988          0.044        -0.996
           -16.419         -5.953         3.138
             7.353         12.040        -6.732

Total shielding tensor (ppm): 
            34.412          0.782         3.742
             0.559         29.461        -3.576
             3.927         -2.406        28.343


 Diagonalized sT*s matrix:
 
 sDSO            23.335           48.234           38.320  iso=      36.630
 sPSO             1.293          -16.995           -1.971  iso=      -5.891
        ---------------  ---------------  ---------------
 Total           24.629           31.238           36.349  iso=      30.739

 --------------
 Nucleus  69H :
 --------------

Diamagnetic contribution to the shielding tensor (ppm) : 
            30.171          3.622        -6.319
            19.174         27.243        -2.960
           -20.919         -7.294        33.094

Paramagnetic contribution to the shielding tensor (ppm): 
            -0.223         -2.266         2.910
           -16.868          1.879        -1.118
            17.356          3.555         0.919

Total shielding tensor (ppm): 
            29.947          1.356        -3.409
             2.306         29.122        -4.077
            -3.562         -3.740        34.013


 Diagonalized sT*s matrix:
 
 sDSO            24.722           17.116           48.670  iso=      30.169
 sPSO             2.229           10.933          -10.587  iso=       0.858
        ---------------  ---------------  ---------------
 Total           26.951           28.048           38.082  iso=      31.027

 --------------
 Nucleus  70H :
 --------------

Diamagnetic contribution to the shielding tensor (ppm) : 
            35.471         -7.003        -8.773
           -14.938         27.884        -0.554
           -10.555          2.641        32.437

Paramagnetic contribution to the shielding tensor (ppm): 
            -1.545          5.676         4.186
            13.222          1.196         4.250
             6.181         -0.011        -3.152

Total shielding tensor (ppm): 
            33.926         -1.327        -4.587
            -1.716         29.080         3.696
            -4.374          2.630        29.285


 Diagonalized sT*s matrix:
 
 sDSO            29.517           18.469           47.805  iso=      31.930
 sPSO            -4.183           10.791          -10.109  iso=      -1.167
        ---------------  ---------------  ---------------
 Total           25.334           29.261           37.696  iso=      30.764

 --------------
 Nucleus  71H :
 --------------

Diamagnetic contribution to the shielding tensor (ppm) : 
            32.451          1.893         4.421
            -7.187         39.825         7.603
             0.081          7.109        36.675

Paramagnetic contribution to the shielding tensor (ppm): 
            -0.155         -1.426        -4.175
             8.959         -9.984        -2.003
             1.090         -2.288        -7.942

Total shielding tensor (ppm): 
            32.296          0.467         0.246
             1.771         29.841         5.601
             1.171          4.821        28.733


 Diagonalized sT*s matrix:
 
 sDSO            30.960           35.074           42.917  iso=      36.317
 sPSO            -6.919           -3.374           -7.788  iso=      -6.027
        ---------------  ---------------  ---------------
 Total           24.041           31.700           35.129  iso=      30.290

 --------------
 Nucleus  72H :
 --------------

Diamagnetic contribution to the shielding tensor (ppm) : 
            28.781         -6.808         0.138
           -13.926         41.291        -6.045
            -1.823         -7.165        34.593

Paramagnetic contribution to the shielding tensor (ppm): 
             2.019          4.330         0.411
            12.147         -7.308         3.517
             1.637          5.071        -5.611

Total shielding tensor (ppm): 
            30.801         -2.478         0.549
            -1.779         33.983        -2.528
            -0.186         -2.093        28.982


 Diagonalized sT*s matrix:
 
 sDSO            27.958           27.624           49.083  iso=      34.888
 sPSO            -0.041            2.481          -13.339  iso=      -3.633
        ---------------  ---------------  ---------------
 Total           27.916           30.105           35.744  iso=      31.255



--------------------------------
CHEMICAL SHIELDING SUMMARY (ppm)
--------------------------------


  Nucleus  Element    Isotropic     Anisotropy
  -------  -------  ------------   ------------
      3       H           29.638          5.433 
      4       H           29.130          5.289 
      8       H           29.568          6.429 
      9       H           29.429          7.743 
     10       H           29.631          8.800 
     11       H           30.531          6.244 
     13       H           28.186          2.751 
     16       H           26.852          5.144 
     17       H           26.521          5.000 
     19       H           25.445         10.750 
     21       H           25.696         15.053 
     24       H           28.877          9.951 
     25       H           29.973          9.420 
     27       H           30.227          7.246 
     28       H           30.147         11.809 
     30       H           29.727          8.018 
     31       H           30.395          6.849 
     33       H           29.771          4.054 
     35       H           31.121         14.858 
     37       H           30.377         10.734 
     38       H           30.302          9.372 
     40       H           29.641         10.569 
     41       H           30.716          7.953 
     42       H           30.160          6.446 
     45       H           31.048          8.311 
     46       H           31.279          9.473 
     47       H           31.277          7.235 
     48       H           29.767          3.511 
     52       H           26.294          9.801 
     53       H           26.317         11.494 
     57       H           29.772          7.300 
     58       H           29.893          6.803 
     61       H           30.842          8.987 
     62       H           31.219          6.237 
     63       H           30.696         10.065 
     64       H           30.726         10.971 
     65       H           30.896         11.009 
     66       H           30.739          7.918 
     67       H           31.311          7.889 
     68       H           30.739          8.415 
     69       H           31.027         10.582 
     70       H           30.764         10.399 
     71       H           30.290          7.258 
     72       H           31.255          6.733 



Maximum memory used throughout the entire EPRNMR-calculation: 140.6 MB

Timings for individual modules:

Sum of individual times         ...      140.048 sec (=   2.334 min)
GTO integral calculation        ...        0.823 sec (=   0.014 min)   0.6 %
SCF iterations                  ...       93.094 sec (=   1.552 min)  66.5 %
EPR/NMR calculation             ...       46.131 sec (=   0.769 min)  32.9 %
                             ****ORCA TERMINATED NORMALLY****
TOTAL RUN TIME: 0 days 0 hours 2 minutes 20 seconds 592 msec
