
                                 *****************
                                 * O   R   C   A *
                                 *****************

                                            #,                                       
                                            ###                                      
                                            ####                                     
                                            #####                                    
                                            ######                                   
                                           ########,                                 
                                     ,,################,,,,,                         
                               ,,#################################,,                 
                          ,,##########################################,,             
                       ,#########################################, ''#####,          
                    ,#############################################,,   '####,        
                  ,##################################################,,,,####,       
                ,###########''''           ''''###############################       
              ,#####''   ,,,,##########,,,,          '''####'''          '####       
            ,##' ,,,,###########################,,,                        '##       
           ' ,,###''''                  '''############,,,                           
         ,,##''                                '''############,,,,        ,,,,,,###''
      ,#''                                            '''#######################'''  
     '                                                          ''''####''''         
             ,#######,   #######,   ,#######,      ##                                
            ,#'     '#,  ##    ##  ,#'     '#,    #''#        ######   ,####,        
            ##       ##  ##   ,#'  ##            #'  '#       #        #'  '#        
            ##       ##  #######   ##           ,######,      #####,   #    #        
            '#,     ,#'  ##    ##  '#,     ,#' ,#      #,         ##   #,  ,#        
             '#######'   ##     ##  '#######'  #'      '#     #####' # '####'        



                  #######################################################
                  #                        -***-                        #
                  #          Department of theory and spectroscopy      #
                  #    Directorship and core code : Frank Neese         #
                  #        Max Planck Institute fuer Kohlenforschung    #
                  #                Kaiser Wilhelm Platz 1               #
                  #                 D-45470 Muelheim/Ruhr               #
                  #                      Germany                        #
                  #                                                     #
                  #                  All rights reserved                #
                  #                        -***-                        #
                  #######################################################


                         Program Version 5.0.2 -  RELEASE  -


 With contributions from (in alphabetic order):
   Daniel Aravena         : Magnetic Suceptibility
   Michael Atanasov       : Ab Initio Ligand Field Theory (pilot matlab implementation)
   Alexander A. Auer      : GIAO ZORA, VPT2 properties, NMR spectrum
   Ute Becker             : Parallelization
   Giovanni Bistoni       : ED, misc. LED, open-shell LED, HFLD
   Martin Brehm           : Molecular dynamics
   Dmytro Bykov           : SCF Hessian
   Vijay G. Chilkuri      : MRCI spin determinant printing, contributions to CSF-ICE
   Dipayan Datta          : RHF DLPNO-CCSD density
   Achintya Kumar Dutta   : EOM-CC, STEOM-CC
   Dmitry Ganyushin       : Spin-Orbit,Spin-Spin,Magnetic field MRCI
   Miquel Garcia          : C-PCM and meta-GGA Hessian, CC/C-PCM, Gaussian charge scheme
   Yang Guo               : DLPNO-NEVPT2, F12-NEVPT2, CIM, IAO-localization
   Andreas Hansen         : Spin unrestricted coupled pair/coupled cluster methods
   Benjamin Helmich-Paris : MC-RPA, TRAH-SCF, COSX integrals
   Lee Huntington         : MR-EOM, pCC
   Robert Izsak           : Overlap fitted RIJCOSX, COSX-SCS-MP3, EOM
   Marcus Kettner         : VPT2
   Christian Kollmar      : KDIIS, OOCD, Brueckner-CCSD(T), CCSD density, CASPT2, CASPT2-K
   Simone Kossmann        : Meta GGA functionals, TD-DFT gradient, OOMP2, MP2 Hessian
   Martin Krupicka        : Initial AUTO-CI
   Lucas Lang             : DCDCAS
   Marvin Lechner         : AUTO-CI (C++ implementation), FIC-MRCC
   Dagmar Lenk            : GEPOL surface, SMD
   Dimitrios Liakos       : Extrapolation schemes; Compound Job, initial MDCI parallelization
   Dimitrios Manganas     : Further ROCIS development; embedding schemes
   Dimitrios Pantazis     : SARC Basis sets
   Anastasios Papadopoulos: AUTO-CI, single reference methods and gradients
   Taras Petrenko         : DFT Hessian,TD-DFT gradient, ASA, ECA, R-Raman, ABS, FL, XAS/XES, NRVS
   Peter Pinski           : DLPNO-MP2, DLPNO-MP2 Gradient
   Christoph Reimann      : Effective Core Potentials
   Marius Retegan         : Local ZFS, SOC
   Christoph Riplinger    : Optimizer, TS searches, QM/MM, DLPNO-CCSD(T), (RO)-DLPNO pert. Triples
   Tobias Risthaus        : Range-separated hybrids, TD-DFT gradient, RPA, STAB
   Michael Roemelt        : Original ROCIS implementation
   Masaaki Saitow         : Open-shell DLPNO-CCSD energy and density
   Barbara Sandhoefer     : DKH picture change effects
   Avijit Sen             : IP-ROCIS
   Kantharuban Sivalingam : CASSCF convergence, NEVPT2, FIC-MRCI
   Bernardo de Souza      : ESD, SOC TD-DFT
   Georgi Stoychev        : AutoAux, RI-MP2 NMR, DLPNO-MP2 response
   Willem Van den Heuvel  : Paramagnetic NMR
   Boris Wezisla          : Elementary symmetry handling
   Frank Wennmohs         : Technical directorship


 We gratefully acknowledge several colleagues who have allowed us to
 interface, adapt or use parts of their codes:
   Stefan Grimme, W. Hujo, H. Kruse, P. Pracht,  : VdW corrections, initial TS optimization,
                  C. Bannwarth, S. Ehlert          DFT functionals, gCP, sTDA/sTD-DF
   Ed Valeev, F. Pavosevic, A. Kumar             : LibInt (2-el integral package), F12 methods
   Garnet Chan, S. Sharma, J. Yang, R. Olivares  : DMRG
   Ulf Ekstrom                                   : XCFun DFT Library
   Mihaly Kallay                                 : mrcc  (arbitrary order and MRCC methods)
   Jiri Pittner, Ondrej Demel                    : Mk-CCSD
   Frank Weinhold                                : gennbo (NPA and NBO analysis)
   Christopher J. Cramer and Donald G. Truhlar   : smd solvation model
   Lars Goerigk                                  : TD-DFT with DH, B97 family of functionals
   V. Asgeirsson, H. Jonsson                     : NEB implementation
   FAccTs GmbH                                   : IRC, NEB, NEB-TS, DLPNO-Multilevel, CI-OPT
                                                   MM, QMMM, 2- and 3-layer-ONIOM, Crystal-QMMM,
                                                   LR-CPCM, SF, NACMEs, symmetry and pop. for TD-DFT,
                                                   nearIR, NL-DFT gradient (VV10), updates on ESD,
                                                   ML-optimized integration grids
   S Lehtola, MJT Oliveira, MAL Marques          : LibXC Library
   Liviu Ungur et al                             : ANISO software


 Your calculation uses the libint2 library for the computation of 2-el integrals
 For citations please refer to: http://libint.valeyev.net

 Your ORCA version has been built with support for libXC version: 5.1.0
 For citations please refer to: https://tddft.org/programs/libxc/

 This ORCA versions uses:
   CBLAS   interface :  Fast vector & matrix operations
   LAPACKE interface :  Fast linear algebra routines
   SCALAPACK package :  Parallel linear algebra routines
   Shared memory     :  Shared parallel matrices
   BLAS/LAPACK       :  OpenBLAS 0.3.15  USE64BITINT DYNAMIC_ARCH NO_AFFINITY Zen SINGLE_THREADED
        Core in use  :  Zen
   Copyright (c) 2011-2014, The OpenBLAS Project


Your calculation utilizes the atom-pairwise dispersion correction
based on tight binding partial charges (D4)
Cite in your paper:
E.Caldeweyher, C.Bannwarth, S.Grimme, J.Chem.Phys., (2017), 147, 034112.
E.Caldeweyher, S.Ehlert, A.Hansen, H.Neugebauer, S.Grimme, J.Chem.Phys., (2018), in progress.
   

================================================================================

----- Orbital basis set information -----
Your calculation utilizes the basis: pcJ-0
   F. Jensen, Theor. Chem. Acc. 126, 371 (2010).

----- AuxJ basis set information -----
Your calculation utilizes the auxiliary basis: def2/J
   F. Weigend, Phys. Chem. Chem. Phys. 8, 1057 (2006).

================================================================================
                                        WARNINGS
                       Please study these warnings very carefully!
================================================================================


INFO   : the flag for use of the SHARK integral package has been found!

================================================================================
                                       INPUT FILE
================================================================================
NAME = inpJ
|  1> ! pbe0
|  2> ! D4
|  3> ! pcJ-0
|  4> ! def2/J RIJCOSX
|  5> ! DEFGRID2
|  6> ! scfconv7
|  7> ! smallprint printgap noloewdin
|  8> ! NOSOSCF
|  9> %MaxCore 4000
| 10> %output
| 11>        print[P_BondOrder_M] 1
| 12>        print[P_Mayer] 1
| 13>        print[P_basis] 2
| 14> end
| 15> %pal
| 16>     nprocs 4
| 17> end
| 18> ! CPCM(chloroform)
| 19> *xyz 0 1
| 20> C   -4.9403425600   0.2388672000  -0.4050174500
| 21> C   -6.3989112800  -0.1354880400  -0.5242872600
| 22> C   -7.2636987600   0.7916007400   0.3393859000
| 23> H   -6.5564905000  -1.1788623100  -0.2284683400
| 24> H   -6.7277657200  -0.0254054000  -1.5683173200
| 25> C   -4.6596652300   1.6620504100  -0.6970938500
| 26> C   -5.5499997200   2.6385181500   0.0393468500
| 27> C   -7.0322244500   2.2503685700  -0.0584011700
| 28> H   -5.3921821700   3.6542025000  -0.3388246900
| 29> H   -5.2557695600   2.6416656800   1.0999565400
| 30> H   -7.3800836600   2.3858575600  -1.0915707300
| 31> H   -7.6354128400   2.9045211700   0.5817466500
| 32> O   -7.0034976000   0.5739074800   1.7359856800
| 33> H   -8.3221032400   0.5383663200   0.2013498700
| 34> C   -4.0157731600  -0.6625612100   0.0035326000
| 35> C   -3.7262264000   2.0595626400  -1.5686568100
| 36> H   -3.1082946300   1.3420269600  -2.1019357500
| 37> H   -3.5670785700   3.1153743400  -1.7750305800
| 38> C   -2.6181378700  -0.3954728300   0.2550606300
| 39> H   -4.3766887000  -1.6738187600   0.1873217700
| 40> C   -1.6699639500  -1.3065427300   0.5604788800
| 41> H   -2.3189542700   0.6488168500   0.1994730400
| 42> C   -1.8790555400  -2.7964620800   0.6529257400
| 43> C   -0.9073808100  -3.5599767100  -0.2677267400
| 44> H   -2.9079631500  -3.0876848700   0.4252405500
| 45> H   -1.6783308800  -3.1027673700   1.6918676100
| 46> C    0.5539422300  -3.1362307600  -0.0672219700
| 47> H   -1.2020121600  -3.3960756300  -1.3120328900
| 48> H   -1.0060834200  -4.6363657800  -0.0811247600
| 49> C    0.7337816200  -1.6180074400  -0.2044771800
| 50> H    1.1810588900  -3.6787404100  -0.7819063800
| 51> H    0.8825077600  -3.4352565700   0.9395788800
| 52> C   -0.2396940000  -0.9392029300   0.8124968000
| 53> H    0.0283983800  -1.3823234100   1.7890606900
| 54> C    0.2066982200   0.5192406400   0.8407346900
| 55> H   -6.0459336700   0.4872896300   1.8460133900
| 56> C    1.7444798300   0.4331353600   0.6797551100
| 57> H   -0.0972629900   1.0244902600   1.7633412300
| 58> H   -0.2330708900   1.0775684100   0.0069184300
| 59> C    2.0850469400  -1.0408217100   0.3026629800
| 60> H    2.2662106400   0.7267662200   1.5962186600
| 61> H    2.0858158300   1.1148737900  -0.1084344100
| 62> H    2.3345752600  -1.5880609100   1.2262950800
| 63> C    3.3285407100  -1.1353642300  -0.6152096000
| 64> C    0.4430601200  -1.1525090000  -1.6376535800
| 65> H    0.6761390300  -0.0914157900  -1.7719926500
| 66> H   -0.6110804000  -1.2896947700  -1.8979492400
| 67> H    1.0439683900  -1.7182167300  -2.3581024300
| 68> H    3.0967998100  -0.5646254500  -1.5295084600
| 69> C    3.6753115100  -2.5676240500  -1.0196722800
| 70> C    4.4781815300  -0.4270745500   0.0619761300
| 71> C    5.5704927200  -0.9900076800   0.5778667700
| 72> H    4.3691667800   0.6543569200   0.1630193800
| 73> H    5.7170861900  -2.0703897300   0.5051970700
| 74> C    6.6735344700  -0.2461627600   1.2784610900
| 75> C    7.9939030200  -0.4702750000   0.5247690900
| 76> C    6.7662954900  -0.6728410100   2.7653859000
| 77> H    6.4352388700   0.8294411500   1.2581688300
| 78> H    6.9363049100  -1.7618354900   2.7817548300
| 79> C    5.4570162500  -0.3780398100   3.5028823500
| 80> C    7.9327497100   0.0060003600   3.4891928000
| 81> H    8.3095655300  -1.5182380100   0.6052100700
| 82> H    8.7989275100   0.1588289300   0.9154477600
| 83> H    7.8698714200  -0.2366981000  -0.5377438200
| 84> H    4.6074182500  -0.8880559000   3.0387617900
| 85> H    5.2476183900   0.6998054300   3.4902909400
| 86> H    5.5203893300  -0.6954382400   4.5495133200
| 87> H    8.9047175500  -0.2962952600   3.0893261200
| 88> H    7.9190969800  -0.2475606600   4.5549647500
| 89> H    7.8538998700   1.0977557900   3.4044506100
| 90> H    2.9174018900  -2.9828121100  -1.6869991600
| 91> H    3.7492729400  -3.2238772800  -0.1444339300
| 92> H    4.6351792700  -2.5965260100  -1.5465689600
| 93> *
| 94> %eprnmr
| 95>  Nuclei = all H { ssfc }
| 96>  SpinSpinRThresh 8.0
| 97> end
| 98> 
| 99>                          ****END OF INPUT****
================================================================================

                       ****************************
                       * Single Point Calculation *
                       ****************************

---------------------------------
CARTESIAN COORDINATES (ANGSTROEM)
---------------------------------
  C     -4.940343    0.238867   -0.405017
  C     -6.398911   -0.135488   -0.524287
  C     -7.263699    0.791601    0.339386
  H     -6.556490   -1.178862   -0.228468
  H     -6.727766   -0.025405   -1.568317
  C     -4.659665    1.662050   -0.697094
  C     -5.550000    2.638518    0.039347
  C     -7.032224    2.250369   -0.058401
  H     -5.392182    3.654202   -0.338825
  H     -5.255770    2.641666    1.099957
  H     -7.380084    2.385858   -1.091571
  H     -7.635413    2.904521    0.581747
  O     -7.003498    0.573907    1.735986
  H     -8.322103    0.538366    0.201350
  C     -4.015773   -0.662561    0.003533
  C     -3.726226    2.059563   -1.568657
  H     -3.108295    1.342027   -2.101936
  H     -3.567079    3.115374   -1.775031
  C     -2.618138   -0.395473    0.255061
  H     -4.376689   -1.673819    0.187322
  C     -1.669964   -1.306543    0.560479
  H     -2.318954    0.648817    0.199473
  C     -1.879056   -2.796462    0.652926
  C     -0.907381   -3.559977   -0.267727
  H     -2.907963   -3.087685    0.425241
  H     -1.678331   -3.102767    1.691868
  C      0.553942   -3.136231   -0.067222
  H     -1.202012   -3.396076   -1.312033
  H     -1.006083   -4.636366   -0.081125
  C      0.733782   -1.618007   -0.204477
  H      1.181059   -3.678740   -0.781906
  H      0.882508   -3.435257    0.939579
  C     -0.239694   -0.939203    0.812497
  H      0.028398   -1.382323    1.789061
  C      0.206698    0.519241    0.840735
  H     -6.045934    0.487290    1.846013
  C      1.744480    0.433135    0.679755
  H     -0.097263    1.024490    1.763341
  H     -0.233071    1.077568    0.006918
  C      2.085047   -1.040822    0.302663
  H      2.266211    0.726766    1.596219
  H      2.085816    1.114874   -0.108434
  H      2.334575   -1.588061    1.226295
  C      3.328541   -1.135364   -0.615210
  C      0.443060   -1.152509   -1.637654
  H      0.676139   -0.091416   -1.771993
  H     -0.611080   -1.289695   -1.897949
  H      1.043968   -1.718217   -2.358102
  H      3.096800   -0.564625   -1.529508
  C      3.675312   -2.567624   -1.019672
  C      4.478182   -0.427075    0.061976
  C      5.570493   -0.990008    0.577867
  H      4.369167    0.654357    0.163019
  H      5.717086   -2.070390    0.505197
  C      6.673534   -0.246163    1.278461
  C      7.993903   -0.470275    0.524769
  C      6.766295   -0.672841    2.765386
  H      6.435239    0.829441    1.258169
  H      6.936305   -1.761835    2.781755
  C      5.457016   -0.378040    3.502882
  C      7.932750    0.006000    3.489193
  H      8.309566   -1.518238    0.605210
  H      8.798928    0.158829    0.915448
  H      7.869871   -0.236698   -0.537744
  H      4.607418   -0.888056    3.038762
  H      5.247618    0.699805    3.490291
  H      5.520389   -0.695438    4.549513
  H      8.904718   -0.296295    3.089326
  H      7.919097   -0.247561    4.554965
  H      7.853900    1.097756    3.404451
  H      2.917402   -2.982812   -1.686999
  H      3.749273   -3.223877   -0.144434
  H      4.635179   -2.596526   -1.546569

----------------------------
CARTESIAN COORDINATES (A.U.)
----------------------------
  NO LB      ZA    FRAG     MASS         X           Y           Z
   0 C     6.0000    0    12.011   -9.335894    0.451394   -0.765372
   1 C     6.0000    0    12.011  -12.092190   -0.256035   -0.990759
   2 C     6.0000    0    12.011  -13.726401    1.495909    0.641346
   3 H     1.0000    0     1.008  -12.389971   -2.227727   -0.431743
   4 H     1.0000    0     1.008  -12.713635   -0.048009   -2.963690
   5 C     6.0000    0    12.011   -8.805491    3.140820   -1.317316
   6 C     6.0000    0    12.011  -10.487980    4.986077    0.074355
   7 C     6.0000    0    12.011  -13.288978    4.252580   -0.110362
   8 H     1.0000    0     1.008  -10.189748    6.905442   -0.640286
   9 H     1.0000    0     1.008   -9.931965    4.992025    2.078617
  10 H     1.0000    0     1.008  -13.946337    4.508617   -2.062770
  11 H     1.0000    0     1.008  -14.428839    5.488750    1.099342
  12 O     8.0000    0    15.999  -13.234692    1.084528    3.280538
  13 H     1.0000    0     1.008  -15.726496    1.017365    0.380496
  14 C     6.0000    0    12.011   -7.588711   -1.252059    0.006676
  15 C     6.0000    0    12.011   -7.041547    3.892009   -2.964332
  16 H     1.0000    0     1.008   -5.873826    2.536063   -3.972083
  17 H     1.0000    0     1.008   -6.740802    5.887204   -3.354322
  18 C     6.0000    0    12.011   -4.947564   -0.747335    0.481995
  19 H     1.0000    0     1.008   -8.270743   -3.163059    0.353987
  20 C     6.0000    0    12.011   -3.155775   -2.469008    1.059152
  21 H     1.0000    0     1.008   -4.382188    1.226086    0.376949
  22 C     6.0000    0    12.011   -3.550900   -5.284547    1.233851
  23 C     6.0000    0    12.011   -1.714701   -6.727381   -0.505930
  24 H     1.0000    0     1.008   -5.495254   -5.834879    0.803588
  25 H     1.0000    0     1.008   -3.171586   -5.863381    3.197166
  26 C     6.0000    0    12.011    1.046799   -5.926617   -0.127031
  27 H     1.0000    0     1.008   -2.271474   -6.417653   -2.479383
  28 H     1.0000    0     1.008   -1.901222   -8.761462   -0.153304
  29 C     6.0000    0    12.011    1.386646   -3.057591   -0.386406
  30 H     1.0000    0     1.008    2.231878   -6.951812   -1.477589
  31 H     1.0000    0     1.008    1.667698   -6.491694    1.775547
  32 C     6.0000    0    12.011   -0.452956   -1.774836    1.535396
  33 H     1.0000    0     1.008    0.053665   -2.612213    3.380835
  34 C     6.0000    0    12.011    0.390603    0.981223    1.588758
  35 H     1.0000    0     1.008  -11.425159    0.920844    3.488460
  36 C     6.0000    0    12.011    3.296589    0.818507    1.284551
  37 H     1.0000    0     1.008   -0.183800    1.936006    3.332232
  38 H     1.0000    0     1.008   -0.440440    2.036309    0.013074
  39 C     6.0000    0    12.011    3.940168   -1.966868    0.571950
  40 H     1.0000    0     1.008    4.282517    1.373389    3.016416
  41 H     1.0000    0     1.008    3.941621    2.106806   -0.204911
  42 H     1.0000    0     1.008    4.411708   -3.001000    2.317362
  43 C     6.0000    0    12.011    6.290030   -2.145527   -1.162578
  44 C     6.0000    0    12.011    0.837262   -2.177926   -3.094717
  45 H     1.0000    0     1.008    1.277718   -0.172751   -3.348581
  46 H     1.0000    0     1.008   -1.154775   -2.437170   -3.586604
  47 H     1.0000    0     1.008    1.972814   -3.246959   -4.456168
  48 H     1.0000    0     1.008    5.852104   -1.066987   -2.890352
  49 C     6.0000    0    12.011    6.945332   -4.852106   -1.926901
  50 C     6.0000    0    12.011    8.462537   -0.807054    0.117118
  51 C     6.0000    0    12.011   10.526706   -1.870843    1.092010
  52 H     1.0000    0     1.008    8.256529    1.236555    0.308062
  53 H     1.0000    0     1.008   10.803727   -3.912470    0.954684
  54 C     6.0000    0    12.011   12.611152   -0.465180    2.415941
  55 C     6.0000    0    12.011   15.106287   -0.888691    0.991670
  56 C     6.0000    0    12.011   12.786445   -1.271485    5.225822
  57 H     1.0000    0     1.008   12.160839    1.567417    2.377595
  58 H     1.0000    0     1.008   13.107717   -3.329387    5.256755
  59 C     6.0000    0    12.011   10.312266   -0.714392    6.619488
  60 C     6.0000    0    12.011   14.990724    0.011339    6.593619
  61 H     1.0000    0     1.008   15.702803   -2.869054    1.143681
  62 H     1.0000    0     1.008   16.627563    0.300143    1.729946
  63 H     1.0000    0     1.008   14.871902   -0.447295   -1.016189
  64 H     1.0000    0     1.008    8.706759   -1.678182    5.742428
  65 H     1.0000    0     1.008    9.916562    1.322441    6.595694
  66 H     1.0000    0     1.008   10.432024   -1.314188    8.597334
  67 H     1.0000    0     1.008   16.827477   -0.559917    5.837980
  68 H     1.0000    0     1.008   14.964925   -0.467822    8.607636
  69 H     1.0000    0     1.008   14.841720    2.074458    6.433479
  70 H     1.0000    0     1.008    5.513091   -5.636698   -3.187966
  71 H     1.0000    0     1.008    7.085099   -6.092245   -0.272941
  72 H     1.0000    0     1.008    8.759219   -4.906723   -2.922592

--------------------------------
INTERNAL COORDINATES (ANGSTROEM)
--------------------------------
 C      0   0   0     0.000000000000     0.00000000     0.00000000
 C      1   0   0     1.510559447442     0.00000000     0.00000000
 C      2   1   0     1.534041172482   110.49365421     0.00000000
 H      2   1   3     1.095887727509   110.70025772   237.86355835
 H      2   1   3     1.100119173781   109.80201297   118.75089635
 C      1   2   3     1.479709037696   113.94934356   306.17654065
 C      6   1   2     1.512788701690   114.39915384    49.76743230
 C      3   2   1     1.529646524885   110.15881714    56.71493084
 H      7   6   1     1.095232756810   110.22440879   188.73692998
 H      7   6   1     1.100669890803   108.27693202    72.06443521
 H      8   3   2     1.098545691405   108.31721349    64.42151328
 H      8   3   2     1.096148297161   109.51055576   181.42970471
 O      3   2   1     1.437214648064   110.70121281   292.67294852
 H      3   2   1     1.096996654660   109.48422625   177.15572733
 C      1   2   3     1.354368818722   121.20043536   122.95675195
 C      6   1   2     1.337514865560   123.15124727   231.71257500
 H     16   6   1     1.086776680048   121.35518415   359.04238815
 H     16   6   1     1.087500119814   120.95282444   178.41911558
 C     15   1   2     1.444986836085   126.14087184   185.15412254
 H     15   1   2     1.089348575276   116.26853915     3.07944129
 C     19  15   1     1.349949055590   126.44120122   185.56995612
 H     19  15   1     1.087723192005   115.76003346     6.27395610
 C     21  19  15     1.507357085908   125.69925548     2.22439831
 C     23  21  19     1.541008552888   111.44612250   124.55697692
 H     23  21  19     1.093298737343   112.39942986     0.94701450
 H     23  21  19     1.101595900979   107.90297648   243.09932020
 C     24  23  21     1.534675151349   112.67772382    51.21467962
 H     24  23  21     1.097381670776   108.98051915   289.07700048
 H     24  23  21     1.096893766131   109.13704323   173.12744283
 C     27  24  23     1.534986400024   111.89933777   306.27764369
 H     27  24  23     1.094698968434   108.86584782   182.72460129
 H     27  24  23     1.100463399714   109.19605123    66.28489910
 C     21  19  15     1.498039949580   122.89978981   180.27553027
 H     33  21  19     1.105398713253   106.37266952   127.25413535
 C     33  21  19     1.525490425857   121.12684490     4.72495470
 H     13   3   2     0.967748639340   107.64863023    42.70546572
 C     35  33  21     1.548580260908   103.62100390   197.08312457
 H     35  33  21     1.094930328078   112.05687734    75.08041788
 H     35  33  21     1.095616869304   110.83395106   315.45064329
 C     30  27  24     1.554429951408   116.09979656   166.09628325
 H     37  35  33     1.094681487249   111.79815841   248.96106869
 H     37  35  33     1.096594852839   110.44134734   130.37255294
 H     40  30  27     1.102193894308   106.60928821   320.62671660
 C     40  30  27     1.548452491113   118.81817703    80.83202849
 C     30  27  24     1.534666863434   111.18126897   294.10969155
 H     45  30  27     1.094665046635   111.61021013   186.34291439
 H     45  30  27     1.094434101265   111.50288592    66.35093162
 H     45  30  27     1.095519297047   110.70783857   306.22539282
 H     44  40  30     1.102446826439   106.92906839    61.38411458
 C     44  40  30     1.528138815433   113.35016132   302.15926079
 C     44  40  30     1.510605441113   108.46978028   176.23016219
 C     51  44  40     1.332734255990   126.81506915   110.39968577
 H     51  44  40     1.091598817512   115.46774070   292.79589986
 H     52  51  44     1.092701196443   120.12177210     2.04304519
 C     52  51  44     1.503608582201   124.93594105   181.81253586
 C     55  52  51     1.536766421683   109.24658476   239.98389450
 C     55  52  51     1.549711046114   110.77928201   115.80085918
 H     55  52  51     1.101871290125   108.40196327   358.17446050
 H     57  55  52     1.102306727834   107.18646721    57.98709985
 C     57  55  52     1.531346103785   110.97175438   299.85194564
 C     57  55  52     1.531449470752   112.14968387   176.68006824
 H     56  55  52     1.097424276117   110.51469195   292.80771245
 H     56  55  52     1.093830886122   111.91870856   172.21802431
 H     56  55  52     1.094931819763   110.33339750    52.06374216
 H     60  57  55     1.094230811062   111.70572989    58.17496412
 H     60  57  55     1.098069382493   110.27251871   298.40570300
 H     60  57  55     1.095533795918   110.78545972   179.09535809
 H     61  57  55     1.093616699598   112.43312657   295.26507669
 H     61  57  55     1.095604598980   110.34550307   175.10234601
 H     61  57  55     1.097874516950   110.46360803    56.10155247
 H     50  44  40     1.091848561855   111.14019103    68.42542358
 H     50  44  40     1.096440041372   111.40792998   308.07610936
 H     50  44  40     1.095354532274   110.54251849   187.98065405

---------------------------
INTERNAL COORDINATES (A.U.)
---------------------------
 C      0   0   0     0.000000000000     0.00000000     0.00000000
 C      1   0   0     2.854543664672     0.00000000     0.00000000
 C      2   1   0     2.898917694151   110.49365421     0.00000000
 H      2   1   3     2.070927678516   110.70025772   237.86355835
 H      2   1   3     2.078923953122   109.80201297   118.75089635
 C      1   2   3     2.796244839133   113.94934356   306.17654065
 C      6   1   2     2.858756344684   114.39915384    49.76743230
 C      3   2   1     2.890613013737   110.15881714    56.71493084
 H      7   6   1     2.069689963270   110.22440879   188.73692998
 H      7   6   1     2.079964657471   108.27693202    72.06443521
 H      8   3   2     2.075950502354   108.31721349    64.42151328
 H      8   3   2     2.071420083798   109.51055576   181.42970471
 O      3   2   1     2.715942080502   110.70121281   292.67294852
 H      3   2   1     2.073023247135   109.48422625   177.15572733
 C      1   2   3     2.559386151707   121.20043536   122.95675195
 C      6   1   2     2.527536795958   123.15124727   231.71257500
 H     16   6   1     2.053710294023   121.35518415   359.04238815
 H     16   6   1     2.055077397054   120.95282444   178.41911558
 C     15   1   2     2.730629387323   126.14087184   185.15412254
 H     15   1   2     2.058570471648   116.26853915     3.07944129
 C     19  15   1     2.551034009810   126.44120122   185.56995612
 H     19  15   1     2.055498942404   115.76003346     6.27395610
 C     21  19  15     2.848492078392   125.69925548     2.22439831
 C     23  21  19     2.912084134989   111.44612250   124.55697692
 H     23  21  19     2.066035196141   112.39942986     0.94701450
 H     23  21  19     2.081714563100   107.90297648   243.09932020
 C     24  23  21     2.900115740584   112.67772382    51.21467962
 H     24  23  21     2.073750822152   108.98051915   289.07700048
 H     24  23  21     2.072828815992   109.13704323   173.12744283
 C     27  24  23     2.900703915340   111.89933777   306.27764369
 H     27  24  23     2.068681249426   108.86584782   182.72460129
 H     27  24  23     2.079574445864   109.19605123    66.28489910
 C     21  19  15     2.830885242380   122.89978981   180.27553027
 H     33  21  19     2.088900836837   106.37266952   127.25413535
 C     33  21  19     2.882759124789   121.12684490     4.72495470
 H     13   3   2     1.828779894827   107.64863023    42.70546572
 C     35  33  21     2.926392589513   103.62100390   197.08312457
 H     35  33  21     2.069118455792   112.05687734    75.08041788
 H     35  33  21     2.070415830689   110.83395106   315.45064329
 C     30  27  24     2.937446902526   116.09979656   166.09628325
 H     37  35  33     2.068648214775   111.79815841   248.96106869
 H     37  35  33     2.072263951733   110.44134734   130.37255294
 H     40  30  27     2.082844606722   106.60928821   320.62671660
 C     40  30  27     2.926151139591   118.81817703    80.83202849
 C     30  27  24     2.900100078694   111.18126897   294.10969155
 H     45  30  27     2.068617146515   111.61021013   186.34291439
 H     45  30  27     2.068180723015   111.50288592    66.35093162
 H     45  30  27     2.070231445845   110.70783857   306.22539282
 H     44  40  30     2.083322579181   106.92906839    61.38411458
 C     44  40  30     2.887763855783   113.35016132   302.15926079
 C     44  40  30     2.854630580115   108.46978028   176.23016219
 C     51  44  40     2.518502753117   126.81506915   110.39968577
 H     51  44  40     2.062822813211   115.46774070   292.79589986
 H     52  51  44     2.064906007484   120.12177210     2.04304519
 C     52  51  44     2.841408432974   124.93594105   181.81253586
 C     55  52  51     2.904067668786   109.24658476   239.98389450
 C     55  52  51     2.928529463868   110.77928201   115.80085918
 H     55  52  51     2.082234973167   108.40196327   358.17446050
 H     57  55  52     2.083057831186   107.18646721    57.98709985
 C     57  55  52     2.893824752402   110.97175438   299.85194564
 C     57  55  52     2.894020087660   112.14968387   176.68006824
 H     56  55  52     2.073831334578   110.51469195   292.80771245
 H     56  55  52     2.067040811595   111.91870856   172.21802431
 H     56  55  52     2.069121274668   110.33339750    52.06374216
 H     60  57  55     2.067796560206   111.70572989    58.17496412
 H     60  57  55     2.075050408956   110.27251871   298.40570300
 H     60  57  55     2.070258844740   110.78545972   179.09535809
 H     61  57  55     2.066636057723   112.43312657   295.26507669
 H     61  57  55     2.070392643137   110.34550307   175.10234601
 H     61  57  55     2.074682166447   110.46360803    56.10155247
 H     50  44  40     2.063294761622   111.14019103    68.42542358
 H     50  44  40     2.071971400458   111.40792998   308.07610936
 H     50  44  40     2.069920085548   110.54251849   187.98065405

---------------------
BASIS SET INFORMATION
---------------------
There are 3 groups of distinct atoms

 Group   1 Type C   : 7s4p contracted to 4s3p pattern {4111/211}
 Group   2 Type H   : 5s contracted to 3s pattern {311}
 Group   3 Type O   : 7s4p contracted to 4s3p pattern {4111/211}

Atom   0C    basis set group =>   1
Atom   1C    basis set group =>   1
Atom   2C    basis set group =>   1
Atom   3H    basis set group =>   2
Atom   4H    basis set group =>   2
Atom   5C    basis set group =>   1
Atom   6C    basis set group =>   1
Atom   7C    basis set group =>   1
Atom   8H    basis set group =>   2
Atom   9H    basis set group =>   2
Atom  10H    basis set group =>   2
Atom  11H    basis set group =>   2
Atom  12O    basis set group =>   3
Atom  13H    basis set group =>   2
Atom  14C    basis set group =>   1
Atom  15C    basis set group =>   1
Atom  16H    basis set group =>   2
Atom  17H    basis set group =>   2
Atom  18C    basis set group =>   1
Atom  19H    basis set group =>   2
Atom  20C    basis set group =>   1
Atom  21H    basis set group =>   2
Atom  22C    basis set group =>   1
Atom  23C    basis set group =>   1
Atom  24H    basis set group =>   2
Atom  25H    basis set group =>   2
Atom  26C    basis set group =>   1
Atom  27H    basis set group =>   2
Atom  28H    basis set group =>   2
Atom  29C    basis set group =>   1
Atom  30H    basis set group =>   2
Atom  31H    basis set group =>   2
Atom  32C    basis set group =>   1
Atom  33H    basis set group =>   2
Atom  34C    basis set group =>   1
Atom  35H    basis set group =>   2
Atom  36C    basis set group =>   1
Atom  37H    basis set group =>   2
Atom  38H    basis set group =>   2
Atom  39C    basis set group =>   1
Atom  40H    basis set group =>   2
Atom  41H    basis set group =>   2
Atom  42H    basis set group =>   2
Atom  43C    basis set group =>   1
Atom  44C    basis set group =>   1
Atom  45H    basis set group =>   2
Atom  46H    basis set group =>   2
Atom  47H    basis set group =>   2
Atom  48H    basis set group =>   2
Atom  49C    basis set group =>   1
Atom  50C    basis set group =>   1
Atom  51C    basis set group =>   1
Atom  52H    basis set group =>   2
Atom  53H    basis set group =>   2
Atom  54C    basis set group =>   1
Atom  55C    basis set group =>   1
Atom  56C    basis set group =>   1
Atom  57H    basis set group =>   2
Atom  58H    basis set group =>   2
Atom  59C    basis set group =>   1
Atom  60C    basis set group =>   1
Atom  61H    basis set group =>   2
Atom  62H    basis set group =>   2
Atom  63H    basis set group =>   2
Atom  64H    basis set group =>   2
Atom  65H    basis set group =>   2
Atom  66H    basis set group =>   2
Atom  67H    basis set group =>   2
Atom  68H    basis set group =>   2
Atom  69H    basis set group =>   2
Atom  70H    basis set group =>   2
Atom  71H    basis set group =>   2
Atom  72H    basis set group =>   2

-------------------------
BASIS SET IN INPUT FORMAT
-------------------------

 # Basis set for element : H 
 NewGTO H 
 S 3 
   1    1357.7500000000      0.0012928364
   2      54.3100000000      0.0588280685
   3       4.3448000000      0.9761499708
 S 1 
   1       0.6604910000      1.0000000000
 S 1 
   1       0.1366870000      1.0000000000
  end;

 # Basis set for element : C 
 NewGTO C 
 S 4 
   1  139534.0000000000      0.0001655246
   2    5581.3600000000      0.0074486101
   3     446.5090000000      0.1285821065
   4      67.4620000000      0.9218029311
 S 1 
   1      15.0674000000      1.0000000000
 S 1 
   1       3.9387600000      1.0000000000
 S 1 
   1       0.2999150000      1.0000000000
 P 2 
   1      28.3900000000      0.0816325586
   2       4.3676900000      0.9660360576
 P 1 
   1       0.8698170000      1.0000000000
 P 1 
   1       0.1889340000      1.0000000000
  end;

 # Basis set for element : O 
 NewGTO O 
 S 4 
   1  253789.0000000000      0.0001641076
   2   10151.6000000000      0.0074010921
   3     812.1250000000      0.1277711901
   4     122.6930000000      0.9223372164
 S 1 
   1      27.5608000000      1.0000000000
 S 1 
   1       7.3172600000      1.0000000000
 S 1 
   1       0.5792400000      1.0000000000
 P 2 
   1      53.4157000000      0.0793786106
   2       8.2177900000      0.9670506337
 P 1 
   1       1.6754400000      1.0000000000
 P 1 
   1       0.3506720000      1.0000000000
  end;

---------------------------------
AUXILIARY/J BASIS SET INFORMATION
---------------------------------
There are 3 groups of distinct atoms

 Group   1 Type C   : 12s5p4d2f1g contracted to 6s4p3d1f1g pattern {711111/2111/211/2/1}
 Group   2 Type H   : 5s2p1d contracted to 3s1p1d pattern {311/2/1}
 Group   3 Type O   : 12s5p4d2f1g contracted to 6s4p3d1f1g pattern {711111/2111/211/2/1}

Atom   0C    basis set group =>   1
Atom   1C    basis set group =>   1
Atom   2C    basis set group =>   1
Atom   3H    basis set group =>   2
Atom   4H    basis set group =>   2
Atom   5C    basis set group =>   1
Atom   6C    basis set group =>   1
Atom   7C    basis set group =>   1
Atom   8H    basis set group =>   2
Atom   9H    basis set group =>   2
Atom  10H    basis set group =>   2
Atom  11H    basis set group =>   2
Atom  12O    basis set group =>   3
Atom  13H    basis set group =>   2
Atom  14C    basis set group =>   1
Atom  15C    basis set group =>   1
Atom  16H    basis set group =>   2
Atom  17H    basis set group =>   2
Atom  18C    basis set group =>   1
Atom  19H    basis set group =>   2
Atom  20C    basis set group =>   1
Atom  21H    basis set group =>   2
Atom  22C    basis set group =>   1
Atom  23C    basis set group =>   1
Atom  24H    basis set group =>   2
Atom  25H    basis set group =>   2
Atom  26C    basis set group =>   1
Atom  27H    basis set group =>   2
Atom  28H    basis set group =>   2
Atom  29C    basis set group =>   1
Atom  30H    basis set group =>   2
Atom  31H    basis set group =>   2
Atom  32C    basis set group =>   1
Atom  33H    basis set group =>   2
Atom  34C    basis set group =>   1
Atom  35H    basis set group =>   2
Atom  36C    basis set group =>   1
Atom  37H    basis set group =>   2
Atom  38H    basis set group =>   2
Atom  39C    basis set group =>   1
Atom  40H    basis set group =>   2
Atom  41H    basis set group =>   2
Atom  42H    basis set group =>   2
Atom  43C    basis set group =>   1
Atom  44C    basis set group =>   1
Atom  45H    basis set group =>   2
Atom  46H    basis set group =>   2
Atom  47H    basis set group =>   2
Atom  48H    basis set group =>   2
Atom  49C    basis set group =>   1
Atom  50C    basis set group =>   1
Atom  51C    basis set group =>   1
Atom  52H    basis set group =>   2
Atom  53H    basis set group =>   2
Atom  54C    basis set group =>   1
Atom  55C    basis set group =>   1
Atom  56C    basis set group =>   1
Atom  57H    basis set group =>   2
Atom  58H    basis set group =>   2
Atom  59C    basis set group =>   1
Atom  60C    basis set group =>   1
Atom  61H    basis set group =>   2
Atom  62H    basis set group =>   2
Atom  63H    basis set group =>   2
Atom  64H    basis set group =>   2
Atom  65H    basis set group =>   2
Atom  66H    basis set group =>   2
Atom  67H    basis set group =>   2
Atom  68H    basis set group =>   2
Atom  69H    basis set group =>   2
Atom  70H    basis set group =>   2
Atom  71H    basis set group =>   2
Atom  72H    basis set group =>   2

-------------------------------------
AUXILIARY/J BASIS SET IN INPUT FORMAT
-------------------------------------

 # Auxiliary/J basis set for element : H 
 NewAuxJGTO H 
 S 3 
   1      15.6752927000      0.1007184237
   2       3.6063578000      0.3404257499
   3       1.2080016000      0.6491996172
 S 1 
   1       0.4726794000      1.0000000000
 S 1 
   1       0.2018100000      1.0000000000
 P 2 
   1       2.0281365000      0.5596620919
   2       0.5358730000      0.5596620919
 D 1 
   1       2.2165124000      1.0000000000
  end;

 # Auxiliary/J basis set for element : C 
 NewAuxJGTO C 
 S 7 
   1    1861.0916331000      0.0134602335
   2     642.9939764000      0.0299160374
   3     235.1105725000      0.1008649584
   4      90.7028894000      0.2370970548
   5      36.7794552000      0.3924037254
   6      15.6046273000      0.3195862154
   7       6.8907294000      0.0530104441
 S 1 
   1       3.1478850000     -1.0000000000
 S 1 
   1       1.4777287000      1.0000000000
 S 1 
   1       0.7076466000      1.0000000000
 S 1 
   1       0.3430122000      1.0000000000
 S 1 
   1       0.1669453000      1.0000000000
 P 2 
   1      13.5472892000     -0.6769313712
   2       5.4669419000     -0.3779500978
 P 1 
   1       2.1751721000      1.0000000000
 P 1 
   1       0.8582194000      1.0000000000
 P 1 
   1       0.3376720000      1.0000000000
 D 2 
   1       5.9287253000     -0.3533329857
   2       1.9809209000     -0.7456525731
 D 1 
   1       0.8055417000     -1.0000000000
 D 1 
   1       0.3531244000     -1.0000000000
 F 2 
   1       1.6755626000      0.6311076882
   2       0.5997536000      0.4968166032
 G 1 
   1       1.0024600000     -1.0000000000
  end;

 # Auxiliary/J basis set for element : O 
 NewAuxJGTO O 
 S 7 
   1    2876.8216605000      0.0168151159
   2    1004.7443032000      0.0340137548
   3     369.7579954000      0.1194951309
   4     142.9442404000      0.2664627624
   5      57.8366425000      0.4202764046
   6      24.3864983000      0.2765077335
   7      10.6622662000      0.0057008815
 S 1 
   1       4.8070437000     -1.0000000000
 S 1 
   1       2.2210770000      1.0000000000
 S 1 
   1       1.0447795000      1.0000000000
 S 1 
   1       0.4968425000      1.0000000000
 S 1 
   1       0.2371384000      1.0000000000
 P 2 
   1      64.2613382000     -0.2731534179
   2      16.3006076000     -0.8168011598
 P 1 
   1       4.3550542000      1.0000000000
 P 1 
   1       1.2019554000      1.0000000000
 P 1 
   1       0.3354196000      1.0000000000
 D 2 
   1       9.2146611000     -0.4661230638
   2       2.8435251000     -0.6600908911
 D 1 
   1       0.9955759000     -1.0000000000
 D 1 
   1       0.3649441000     -1.0000000000
 F 2 
   1       2.6420115000      0.5931563945
   2       0.7345613000      0.5931563945
 G 1 
   1       1.3931000000     -1.0000000000
  end;



           ************************************************************
           *        Program running with 4 parallel MPI-processes     *
           *              working on a common directory               *
           ************************************************************
------------------------------------------------------------------------------
                           ORCA GTO INTEGRAL CALCULATION
                           -- RI-GTO INTEGRALS CHOSEN --
------------------------------------------------------------------------------
------------------------------------------------------------------------------
                   ___                                                        
                  /   \      - P O W E R E D   B Y -                         
                 /     \                                                     
                 |  |  |   _    _      __       _____    __    __             
                 |  |  |  | |  | |    /  \     |  _  \  |  |  /  |          
                  \  \/   | |  | |   /    \    | | | |  |  | /  /          
                 / \  \   | |__| |  /  /\  \   | |_| |  |  |/  /          
                |  |  |   |  __  | /  /__\  \  |    /   |      \           
                |  |  |   | |  | | |   __   |  |    \   |  |\   \          
                \     /   | |  | | |  |  |  |  | |\  \  |  | \   \       
                 \___/    |_|  |_| |__|  |__|  |_| \__\ |__|  \__/        
                                                                              
                      - O R C A' S   B I G   F R I E N D -                    
                                      &                                       
                       - I N T E G R A L  F E E D E R -                       
                                                                              
 v1 FN, 2020, v2 2021                                                         
------------------------------------------------------------------------------


Reading SHARK input file inpJ.SHARKINP.tmp ... ok
----------------------
SHARK INTEGRAL PACKAGE
----------------------

Number of atoms                             ...     73
Number of basis functions                   ...    509
Number of shells                            ...    335
Maximum angular momentum                    ...      1
Integral batch strategy                     ... SHARK/LIBINT Hybrid
RI-J (if used) integral strategy            ... SPLIT-RIJ (Revised 2003 algorithm where possible)
Printlevel                                  ...      1
Contraction scheme used                     ... SEGMENTED contraction
Coulomb Range Separation                    ... NOT USED
Exchange Range Separation                   ... NOT USED
Finite Nucleus Model                        ... NOT USED
Auxiliary Coulomb fitting basis             ... AVAILABLE
   # of basis functions in Aux-J            ...   1905
   # of shells in Aux-J                     ...    655
   Maximum angular momentum in Aux-J        ...      4
Auxiliary J/K fitting basis                 ... NOT available
Auxiliary Correlation fitting basis         ... NOT available
Auxiliary 'external' fitting basis          ... NOT available
Integral threshold                          ...     3.000000e-11
Primitive cut-off                           ...     1.000000e-12
Primitive pair pre-selection threshold      ...     1.000000e-12

Calculating pre-screening integrals         ... done (  0.0 sec) Dimension = 335
Organizing shell pair data                  ... done (  0.1 sec)
Shell pair information
Total number of shell pairs                 ...     56280
Shell pairs after pre-screening             ...     21868
Total number of primitive shell pairs       ...    145865
Primitive shell pairs kept                  ...     37636
          la=0 lb=0:  11009 shell pairs
          la=1 lb=0:   8993 shell pairs
          la=1 lb=1:   1866 shell pairs

Calculating one electron integrals          ... done (  0.0 sec)
Calculating RI/J V-Matrix + Cholesky decomp.... done (  0.2 sec)
Calculating Nuclear repulsion               ... done (  0.0 sec) ENN=   2784.401789644583 Eh

SHARK setup successfully completed in   0.5 seconds

Maximum memory used throughout the entire GTOINT-calculation: 46.3 MB


           ************************************************************
           *        Program running with 4 parallel MPI-processes     *
           *              working on a common directory               *
           ************************************************************
-------------------------------------------------------------------------------
                                 ORCA SCF
-------------------------------------------------------------------------------

------------
SCF SETTINGS
------------
Hamiltonian:
 Density Functional     Method          .... DFT(GTOs)
 Exchange Functional    Exchange        .... PBE
   PBE kappa parameter   XKappa         ....  0.804000
   PBE mue parameter    XMuePBE         ....  0.219520
 Correlation Functional Correlation     .... PBE
   PBE beta parameter  CBetaPBE         ....  0.066725
 LDA part of GGA corr.  LDAOpt          .... PW91-LDA
 Gradients option       PostSCFGGA      .... off
 Hybrid DFT is turned on
   Fraction HF Exchange ScalHFX         ....  0.250000
   Scaling of DF-GGA-X  ScalDFX         ....  0.750000
   Scaling of DF-GGA-C  ScalDFC         ....  1.000000
   Scaling of DF-LDA-C  ScalLDAC        ....  1.000000
   Perturbative correction              ....  0.000000
   Density functional embedding theory  .... OFF
   NL short-range parameter             ....  6.900000
 RI-approximation to the Coulomb term is turned on
   Number of AuxJ basis functions       .... 1905
   RIJ-COSX (HFX calculated with COS-X)).... on


General Settings:
 Integral files         IntName         .... inpJ
 Hartree-Fock type      HFTyp           .... RHF
 Total Charge           Charge          ....    0
 Multiplicity           Mult            ....    1
 Number of Electrons    NEL             ....  220
 Basis Dimension        Dim             ....  509
 Nuclear Repulsion      ENuc            ....   2784.4017896446 Eh

Convergence Acceleration:
 DIIS                   CNVDIIS         .... on
   Start iteration      DIISMaxIt       ....    12
   Startup error        DIISStart       ....  0.200000
   # of expansion vecs  DIISMaxEq       ....     5
   Bias factor          DIISBfac        ....   1.050
   Max. coefficient     DIISMaxC        ....  10.000
 Trust-Rad. Augm. Hess. CNVTRAH         .... auto
   Auto Start mean grad. ratio tolernc. ....  1.125000
   Auto Start start iteration           ....    20
   Auto Start num. interpolation iter.  ....    10
   Max. Number of Micro iterations      ....    16
   Max. Number of Macro iterations      .... Maxiter - #DIIS iter
   Number of Davidson start vectors     ....     2
   Converg. threshold I  (grad. norm)   ....   1.000e-04
   Converg. threshold II (energy diff.) ....   1.000e-07
   Grad. Scal. Fac. for Micro threshold ....   0.100
   Minimum threshold for Micro iter.    ....   0.010
   NR start threshold (gradient norm)   ....   0.001
   Initial trust radius                 ....   0.400
   Minimum AH scaling param. (alpha)    ....   1.000
   Maximum AH scaling param. (alpha)    .... 1000.000
   Orbital update algorithm             .... Taylor
   White noise on init. David. guess    .... on
   Maximum white noise                  ....   0.010
   Quad. conv. algorithm                .... NR
 SOSCF                  CNVSOSCF        .... off
 Level Shifting         CNVShift        .... on
   Level shift para.    LevelShift      ....    0.2500
   Turn off err/grad.   ShiftErr        ....    0.0010
 Zerner damping         CNVZerner       .... off
 Static damping         CNVDamp         .... on
   Fraction old density DampFac         ....    0.7000
   Max. Damping (<1)    DampMax         ....    0.9800
   Min. Damping (>=0)   DampMin         ....    0.0000
   Turn off err/grad.   DampErr         ....    0.1000
 Fernandez-Rico         CNVRico         .... off

SCF Procedure:
 Maximum # iterations   MaxIter         ....   125
 SCF integral mode      SCFMode         .... Direct
   Integral package                     .... SHARK and LIBINT hybrid scheme
 Reset frequency        DirectResetFreq ....    20
 Integral Threshold     Thresh          ....  3.000e-11 Eh
 Primitive CutOff       TCut            ....  1.000e-12 Eh

Convergence Tolerance:
 Convergence Check Mode ConvCheckMode   .... Total+1el-Energy
 Convergence forced     ConvForced      .... 0
 Energy Change          TolE            ....  1.000e-07 Eh
 1-El. energy change                    ....  1.000e-04 Eh
 DIIS Error             TolErr          ....  1.000e-07


Diagonalization of the overlap matrix:
Smallest eigenvalue                        ... 7.570e-03
Time for diagonalization                   ...    0.036 sec
Threshold for overlap eigenvalues          ... 1.000e-08
Number of eigenvalues below threshold      ... 0
Time for construction of square roots      ...    0.034 sec
Total time needed                          ...    0.072 sec

Time for model grid setup =    0.954 sec

------------------------------
INITIAL GUESS: MODEL POTENTIAL
------------------------------
Loading Hartree-Fock densities                     ... done
Calculating cut-offs                               ... done
Initializing the effective Hamiltonian             ... done
Setting up the integral package (SHARK)            ... done
Starting the Coulomb interaction                   ... done (   0.5 sec)
Reading the grid                                   ... done
Mapping shells                                     ... done
Starting the XC term evaluation                    ... done (   0.2 sec)
  promolecular density results
     # of electrons  =    219.978515785
     EX              =   -164.430764849
     EC              =     -7.326850062
     EX+EC           =   -171.757614911
Transforming the Hamiltonian                       ... done (   0.0 sec)
Diagonalizing the Hamiltonian                      ... done (   0.0 sec)
Back transforming the eigenvectors                 ... done (   0.0 sec)
Now organizing SCF variables                       ... done
                      ------------------
                      INITIAL GUESS DONE (   1.7 sec)
                      ------------------
-------------------
DFT GRID GENERATION
-------------------

General Integration Accuracy     IntAcc      ... 4.388
Radial Grid Type                 RadialGrid  ... OptM3 with GC (2021)
Angular Grid (max. ang.)         AngularGrid ... 4 (Lebedev-302)
Angular grid pruning method      GridPruning ... 4 (adaptive)
Weight generation scheme         WeightScheme... Becke
Basis function cutoff            BFCut       ... 1.0000e-11
Integration weight cutoff        WCut        ... 1.0000e-14
Angular grids for H and He will be reduced by one unit
Partially contracted basis set               ... off
Rotationally invariant grid construction     ... off

Total number of grid points                  ...   309819
Total number of batches                      ...     4877
Average number of points per batch           ...       63
Average number of grid points per atom       ...     4244
Time for grid setup =    2.981 sec

--------------------
COSX GRID GENERATION
--------------------

GRIDX 1
-------
General Integration Accuracy     IntAcc      ... 3.816
Radial Grid Type                 RadialGrid  ... OptM3 with GC (2021)
Angular Grid (max. ang.)         AngularGrid ... 1 (Lebedev-50)
Angular grid pruning method      GridPruning ... 4 (adaptive)
Weight generation scheme         WeightScheme... Becke
Basis function cutoff            BFCut       ... 1.0000e-11
Integration weight cutoff        WCut        ... 1.0000e-14
Angular grids for H and He will be reduced by one unit
Partially contracted basis set               ... on
Rotationally invariant grid construction     ... off

Total number of grid points                  ...    39391
Total number of batches                      ...      656
Average number of points per batch           ...       60
Average number of grid points per atom       ...      540
UseSFitting                                  ... on

GRIDX 2
-------
General Integration Accuracy     IntAcc      ... 4.020
Radial Grid Type                 RadialGrid  ... OptM3 with GC (2021)
Angular Grid (max. ang.)         AngularGrid ... 2 (Lebedev-110)
Angular grid pruning method      GridPruning ... 4 (adaptive)
Weight generation scheme         WeightScheme... Becke
Basis function cutoff            BFCut       ... 1.0000e-11
Integration weight cutoff        WCut        ... 1.0000e-14
Angular grids for H and He will be reduced by one unit
Partially contracted basis set               ... on
Rotationally invariant grid construction     ... off

Total number of grid points                  ...    81360
Total number of batches                      ...     1308
Average number of points per batch           ...       62
Average number of grid points per atom       ...     1115
UseSFitting                                  ... on

GRIDX 3
-------
General Integration Accuracy     IntAcc      ... 4.338
Radial Grid Type                 RadialGrid  ... OptM3 with GC (2021)
Angular Grid (max. ang.)         AngularGrid ... 3 (Lebedev-194)
Angular grid pruning method      GridPruning ... 4 (adaptive)
Weight generation scheme         WeightScheme... Becke
Basis function cutoff            BFCut       ... 1.0000e-11
Integration weight cutoff        WCut        ... 1.0000e-14
Angular grids for H and He will be reduced by one unit
Partially contracted basis set               ... on
Rotationally invariant grid construction     ... off

Total number of grid points                  ...   176218
Total number of batches                      ...     2789
Average number of points per batch           ...       63
Average number of grid points per atom       ...     2414
UseSFitting                                  ... on

Time for X-Grid setup             =    3.073 sec


--------------------
CPCM SOLVATION MODEL
--------------------
CPCM parameters:
  Epsilon                                         ...       4.9000
  Refrac                                          ...       1.4500
  Rsolv                                           ...       1.3000
  Surface type                                    ... GAUSSIAN VDW
  Epsilon function type                           ...         CPCM
Radii:
 Radius for C  used is    3.8550 Bohr (=   2.0400 Ang.)
 Radius for H  used is    2.4944 Bohr (=   1.3200 Ang.)
 Radius for O  used is    3.4469 Bohr (=   1.8240 Ang.)
Calculating surface                               ...        done! (  0.0s)
GEPOL surface points                              ...         3609
GEPOL Volume                                      ...    3591.6239
GEPOL Surface-area                                ...    1781.2680
Calculating surface distance matrix               ...        done! (  0.1s)
Performing Cholesky decomposition & store         ...        done! (  0.7s)
Overall time for CPCM initialization              ...                 0.8s
--------------
SCF ITERATIONS
--------------
ITER       Energy         Delta-E        Max-DP      RMS-DP      [F,P]     Damp
               ***  Starting incremental Fock matrix formation  ***

  HOMO= 109 E= -3.984 eV LUMO=  7.697 eV gap=  11.681 eV
  0  -1165.0112720530   0.000000000000 0.09738076  0.00106327  0.1962811 0.7000

  HOMO= 109 E= -4.850 eV LUMO=  7.014 eV gap=  11.864 eV
  1  -1165.2300985196  -0.218826466626 0.06534262  0.00078295  0.0951498 0.7000
                               ***Turning on DIIS***

  HOMO= 109 E= -5.448 eV LUMO=  6.466 eV gap=  11.914 eV
  2  -1165.3310219709  -0.100923451315 0.10335308  0.00138706  0.0375575 0.0000

  HOMO= 109 E= -6.005 eV LUMO=  5.937 eV gap=  11.942 eV
  3  -1165.4754478351  -0.144425864209 0.05145735  0.00057144  0.0460733 0.0000

  HOMO= 109 E= -6.073 eV LUMO=  5.868 eV gap=  11.940 eV
  4  -1165.5109612993  -0.035513464204 0.01183143  0.00013509  0.0063360 0.0000

  HOMO= 109 E= -6.023 eV LUMO=  5.924 eV gap=  11.948 eV
  5  -1165.5118257281  -0.000864428787 0.00248357  0.00003821  0.0051751 0.0000

  HOMO= 109 E= -6.010 eV LUMO=  5.939 eV gap=  11.948 eV
  6  -1165.5119071133  -0.000081385221 0.00116542  0.00001177  0.0010236 0.0000

  HOMO= 109 E= -6.011 eV LUMO= -0.866 eV gap=   5.145 eV
  7  -1165.5119122362  -0.000005122867 0.00051110  0.00000604  0.0002354 0.0000
               *** Restarting incremental Fock matrix formation ***
                                   *** Resetting DIIS ***

  HOMO= 109 E= -6.011 eV LUMO= -0.864 eV gap=   5.146 eV
  8  -1165.5119629588  -0.000050722619 0.00035576  0.00000291  0.0001241 0.0000

  HOMO= 109 E= -6.011 eV LUMO= -0.865 eV gap=   5.146 eV
  9  -1165.5119629983  -0.000000039481 0.00014490  0.00000132  0.0001673 0.0000

  HOMO= 109 E= -6.011 eV LUMO= -0.865 eV gap=   5.146 eV
 10  -1165.5119631310  -0.000000132672 0.00006672  0.00000041  0.0000347 0.0000

  HOMO= 109 E= -6.011 eV LUMO= -0.865 eV gap=   5.146 eV
 11  -1165.5119631636  -0.000000032602 0.00002664  0.00000018  0.0000201 0.0000

  HOMO= 109 E= -6.011 eV LUMO= -0.865 eV gap=   5.146 eV
 12  -1165.5119631431   0.000000020513 0.00000761  0.00000005  0.0000038 0.0000
                 **** Energy Check signals convergence ****

               *****************************************************
               *                     SUCCESS                       *
               *           SCF CONVERGED AFTER  13 CYCLES          *
               *****************************************************

Old exchange energy                            =    -42.067475634 Eh
New exchange energy                            =    -42.067458702 Eh
Exchange energy change after final integration =      0.000016931 Eh
Total energy after final integration           =  -1165.511946214 Eh
Final COS-X integration done in                =    13.483 sec

----------------
TOTAL SCF ENERGY
----------------

Total Energy       :        -1165.51194621 Eh          -31715.19243 eV

Components:
Nuclear Repulsion  :         2784.40178964 Eh           75767.42464 eV
Electronic Energy  :        -3949.91373586 Eh         -107482.61706 eV
One Electron Energy:        -7110.46903875 Eh         -193485.69917 eV
Two Electron Energy:         3160.55530289 Eh           86003.08210 eV
Max COSX asymmetry :            0.00000215 Eh               0.00006 eV
CPCM Dielectric    :           -0.01334943 Eh              -0.36326 eV

Virial components:
Potential Energy   :        -2322.40607054 Eh          -63195.88200 eV
Kinetic Energy     :         1156.89412432 Eh           31480.68957 eV
Virial Ratio       :            2.00744910


DFT components:
N(Alpha)           :      110.000164293092 electrons
N(Beta)            :      110.000164293092 electrons
N(Total)           :      220.000328586183 electrons
E(X)               :     -125.744875802806 Eh       
E(C)               :       -7.328010215931 Eh       
E(XC)              :     -133.072886018737 Eh       
DFET-embed. en.    :        0.000000000000 Eh       
CPCM Solvation Model Properties:
Surface-charge          :           -0.03449396
Charge-correction       :           -0.00007586 Eh              -0.00206 eV
Free-energy (cav+disp)  :  This term is not implemented in the current solvation scheme

---------------
SCF CONVERGENCE
---------------

  Last Energy change         ...   -2.4618e-09  Tolerance :   1.0000e-07
  Last MAX-Density change    ...    0.0000e+00  Tolerance :   1.0000e-05
  Last RMS-Density change    ...    0.0000e+00  Tolerance :   1.0000e-06
  Last DIIS Error            ...    2.4015e-06  Tolerance :   1.0000e-07

             **** THE GBW FILE WAS UPDATED (inpJ.gbw) ****
             **** DENSITY inpJ.scfp WAS UPDATED ****
             **** ENERGY FILE WAS UPDATED (inpJ.en.tmp) ****
             **** THE GBW FILE WAS UPDATED (inpJ.gbw) ****
             **** DENSITY inpJ.scfp WAS UPDATED ****
----------------
ORBITAL ENERGIES
----------------

  NO   OCC          E(Eh)            E(eV) 
   0   2.0000     -19.212513      -522.7990 
   1   2.0000     -10.300501      -280.2909 
   2   2.0000     -10.270506      -279.4747 
   3   2.0000     -10.268349      -279.4160 
   4   2.0000     -10.263906      -279.2951 
   5   2.0000     -10.257565      -279.1225 
   6   2.0000     -10.257498      -279.1207 
   7   2.0000     -10.252236      -278.9775 
   8   2.0000     -10.249476      -278.9024 
   9   2.0000     -10.248657      -278.8801 
  10   2.0000     -10.248197      -278.8676 
  11   2.0000     -10.247632      -278.8522 
  12   2.0000     -10.247214      -278.8409 
  13   2.0000     -10.246725      -278.8276 
  14   2.0000     -10.244771      -278.7744 
  15   2.0000     -10.243426      -278.7378 
  16   2.0000     -10.242926      -278.7242 
  17   2.0000     -10.242101      -278.7017 
  18   2.0000     -10.241821      -278.6941 
  19   2.0000     -10.241490      -278.6851 
  20   2.0000     -10.240210      -278.6503 
  21   2.0000     -10.235766      -278.5294 
  22   2.0000     -10.235400      -278.5194 
  23   2.0000     -10.234288      -278.4891 
  24   2.0000     -10.226115      -278.2667 
  25   2.0000     -10.224480      -278.2223 
  26   2.0000     -10.224433      -278.2210 
  27   2.0000     -10.221896      -278.1519 
  28   2.0000     -10.221403      -278.1385 
  29   2.0000      -1.043275       -28.3890 
  30   2.0000      -0.902096       -24.5473 
  31   2.0000      -0.882225       -24.0065 
  32   2.0000      -0.860273       -23.4092 
  33   2.0000      -0.846570       -23.0363 
  34   2.0000      -0.822712       -22.3871 
  35   2.0000      -0.814873       -22.1738 
  36   2.0000      -0.796036       -21.6612 
  37   2.0000      -0.795151       -21.6372 
  38   2.0000      -0.776533       -21.1305 
  39   2.0000      -0.759009       -20.6537 
  40   2.0000      -0.742125       -20.1942 
  41   2.0000      -0.734435       -19.9850 
  42   2.0000      -0.715791       -19.4777 
  43   2.0000      -0.703052       -19.1310 
  44   2.0000      -0.700421       -19.0594 
  45   2.0000      -0.696339       -18.9483 
  46   2.0000      -0.671078       -18.2610 
  47   2.0000      -0.659588       -17.9483 
  48   2.0000      -0.633387       -17.2353 
  49   2.0000      -0.622483       -16.9386 
  50   2.0000      -0.613460       -16.6931 
  51   2.0000      -0.606715       -16.5096 
  52   2.0000      -0.597718       -16.2647 
  53   2.0000      -0.575917       -15.6715 
  54   2.0000      -0.566109       -15.4046 
  55   2.0000      -0.547332       -14.8937 
  56   2.0000      -0.540680       -14.7127 
  57   2.0000      -0.529607       -14.4113 
  58   2.0000      -0.515341       -14.0231 
  59   2.0000      -0.509940       -13.8762 
  60   2.0000      -0.500497       -13.6192 
  61   2.0000      -0.492046       -13.3893 
  62   2.0000      -0.481457       -13.1011 
  63   2.0000      -0.479354       -13.0439 
  64   2.0000      -0.473723       -12.8907 
  65   2.0000      -0.467316       -12.7163 
  66   2.0000      -0.464864       -12.6496 
  67   2.0000      -0.460792       -12.5388 
  68   2.0000      -0.459384       -12.5005 
  69   2.0000      -0.451542       -12.2871 
  70   2.0000      -0.448658       -12.2086 
  71   2.0000      -0.444581       -12.0977 
  72   2.0000      -0.436428       -11.8758 
  73   2.0000      -0.435252       -11.8438 
  74   2.0000      -0.431134       -11.7317 
  75   2.0000      -0.424914       -11.5625 
  76   2.0000      -0.420798       -11.4505 
  77   2.0000      -0.413178       -11.2431 
  78   2.0000      -0.412926       -11.2363 
  79   2.0000      -0.402161       -10.9434 
  80   2.0000      -0.399072       -10.8593 
  81   2.0000      -0.396754       -10.7962 
  82   2.0000      -0.395474       -10.7614 
  83   2.0000      -0.390509       -10.6263 
  84   2.0000      -0.381672       -10.3858 
  85   2.0000      -0.380408       -10.3514 
  86   2.0000      -0.376820       -10.2538 
  87   2.0000      -0.374188       -10.1822 
  88   2.0000      -0.366402        -9.9703 
  89   2.0000      -0.362863        -9.8740 
  90   2.0000      -0.361699        -9.8423 
  91   2.0000      -0.358064        -9.7434 
  92   2.0000      -0.350738        -9.5441 
  93   2.0000      -0.346234        -9.4215 
  94   2.0000      -0.343543        -9.3483 
  95   2.0000      -0.340567        -9.2673 
  96   2.0000      -0.339089        -9.2271 
  97   2.0000      -0.334988        -9.1155 
  98   2.0000      -0.332520        -9.0483 
  99   2.0000      -0.329023        -8.9532 
 100   2.0000      -0.325737        -8.8638 
 101   2.0000      -0.323405        -8.8003 
 102   2.0000      -0.320859        -8.7310 
 103   2.0000      -0.319306        -8.6888 
 104   2.0000      -0.311387        -8.4733 
 105   2.0000      -0.301849        -8.2137 
 106   2.0000      -0.276770        -7.5313 
 107   2.0000      -0.275192        -7.4884 
 108   2.0000      -0.255734        -6.9589 
 109   2.0000      -0.220903        -6.0111 
 110   0.0000      -0.031773        -0.8646 
 111   0.0000       0.019291         0.5249 
 112   0.0000       0.029717         0.8086 
 113   0.0000       0.080590         2.1930 
 114   0.0000       0.089108         2.4248 
 115   0.0000       0.093435         2.5425 
 116   0.0000       0.101219         2.7543 
 117   0.0000       0.104699         2.8490 
 118   0.0000       0.108757         2.9594 
 119   0.0000       0.117001         3.1838 
 120   0.0000       0.118034         3.2119 
 121   0.0000       0.122363         3.3297 
 122   0.0000       0.127784         3.4772 
 123   0.0000       0.129968         3.5366 
 124   0.0000       0.134827         3.6688 
 125   0.0000       0.137971         3.7544 
 126   0.0000       0.140392         3.8203 
 127   0.0000       0.141661         3.8548 
 128   0.0000       0.147954         4.0260 
 129   0.0000       0.150767         4.1026 
 130   0.0000       0.154740         4.2107 
 131   0.0000       0.160770         4.3748 
 132   0.0000       0.162631         4.4254 
 133   0.0000       0.163547         4.4503 
 134   0.0000       0.168034         4.5725 
 135   0.0000       0.170638         4.6433 
 136   0.0000       0.171865         4.6767 
 137   0.0000       0.174584         4.7507 
 138   0.0000       0.177533         4.8309 
 139   0.0000       0.177871         4.8401 
 140   0.0000       0.182390         4.9631 
 141   0.0000       0.184772         5.0279 
 142   0.0000       0.186663         5.0794 
 143   0.0000       0.189308         5.1513 
 144   0.0000       0.191652         5.2151 
 145   0.0000       0.196023         5.3341 
 146   0.0000       0.199313         5.4236 
 147   0.0000       0.202557         5.5119 
 148   0.0000       0.204785         5.5725 
 149   0.0000       0.208021         5.6605 
 150   0.0000       0.210035         5.7153 
 151   0.0000       0.215699         5.8695 
 152   0.0000       0.218013         5.9324 
 153   0.0000       0.226735         6.1698 
 154   0.0000       0.229240         6.2379 
 155   0.0000       0.233606         6.3568 
 156   0.0000       0.239911         6.5283 
 157   0.0000       0.246485         6.7072 
 158   0.0000       0.248402         6.7594 
 159   0.0000       0.251028         6.8308 
 160   0.0000       0.251964         6.8563 
 161   0.0000       0.260380         7.0853 
 162   0.0000       0.261553         7.1172 
 163   0.0000       0.269285         7.3276 
 164   0.0000       0.271462         7.3868 
 165   0.0000       0.274730         7.4758 
 166   0.0000       0.275341         7.4924 
 167   0.0000       0.278683         7.5834 
 168   0.0000       0.284419         7.7394 
 169   0.0000       0.286551         7.7974 
 170   0.0000       0.296188         8.0597 
 171   0.0000       0.298008         8.1092 
 172   0.0000       0.301494         8.2041 
 173   0.0000       0.306895         8.3510 
 174   0.0000       0.308067         8.3829 
 175   0.0000       0.318975         8.6798 
 176   0.0000       0.320686         8.7263 
 177   0.0000       0.335719         9.1354 
 178   0.0000       0.348656         9.4874 
 179   0.0000       0.355558         9.6752 
 180   0.0000       0.362908         9.8752 
 181   0.0000       0.378762        10.3066 
 182   0.0000       0.381282        10.3752 
 183   0.0000       0.408737        11.1223 
 184   0.0000       0.421333        11.4651 
 185   0.0000       0.462981        12.5984 
 186   0.0000       0.471152        12.8207 
 187   0.0000       0.486888        13.2489 
 188   0.0000       0.503460        13.6998 
 189   0.0000       0.516749        14.0614 
 190   0.0000       0.521323        14.1859 
 191   0.0000       0.533502        14.5173 
 192   0.0000       0.548113        14.9149 
 193   0.0000       0.556415        15.1408 
 194   0.0000       0.561288        15.2734 
 195   0.0000       0.570322        15.5192 
 196   0.0000       0.574183        15.6243 
 197   0.0000       0.574554        15.6344 
 198   0.0000       0.582087        15.8394 
 199   0.0000       0.594178        16.1684 
 200   0.0000       0.616172        16.7669 
 201   0.0000       0.618685        16.8353 
 202   0.0000       0.628250        17.0956 
 203   0.0000       0.629956        17.1420 
 204   0.0000       0.645874        17.5751 
 205   0.0000       0.654589        17.8123 
 206   0.0000       0.658643        17.9226 
 207   0.0000       0.660217        17.9654 
 208   0.0000       0.668291        18.1851 
 209   0.0000       0.669977        18.2310 
 210   0.0000       0.678410        18.4605 
 211   0.0000       0.684298        18.6207 
 212   0.0000       0.687806        18.7162 
 213   0.0000       0.696600        18.9554 
 214   0.0000       0.704544        19.1716 
 215   0.0000       0.708947        19.2914 
 216   0.0000       0.710125        19.3235 
 217   0.0000       0.714830        19.4515 
 218   0.0000       0.720545        19.6070 
 219   0.0000       0.726608        19.7720 
 220   0.0000       0.730242        19.8709 
 221   0.0000       0.733594        19.9621 
 222   0.0000       0.738434        20.0938 
 223   0.0000       0.742190        20.1960 
 224   0.0000       0.747886        20.3510 
 225   0.0000       0.751709        20.4550 
 226   0.0000       0.757393        20.6097 
 227   0.0000       0.758545        20.6410 
 228   0.0000       0.762804        20.7569 
 229   0.0000       0.769052        20.9270 
 230   0.0000       0.772925        21.0324 
 231   0.0000       0.776416        21.1274 
 232   0.0000       0.779806        21.2196 
 233   0.0000       0.781487        21.2653 
 234   0.0000       0.788602        21.4589 
 235   0.0000       0.791961        21.5504 
 236   0.0000       0.797334        21.6965 
 237   0.0000       0.810255        22.0482 
 238   0.0000       0.813494        22.1363 
 239   0.0000       0.819922        22.3112 
 240   0.0000       0.827856        22.5271 
 241   0.0000       0.832295        22.6479 
 242   0.0000       0.840231        22.8639 
 243   0.0000       0.848853        23.0985 
 244   0.0000       0.851946        23.1826 
 245   0.0000       0.854647        23.2561 
 246   0.0000       0.855804        23.2876 
 247   0.0000       0.861702        23.4481 
 248   0.0000       0.866512        23.5790 
 249   0.0000       0.867834        23.6150 
 250   0.0000       0.871723        23.7208 
 251   0.0000       0.872577        23.7440 
 252   0.0000       0.875705        23.8292 
 253   0.0000       0.877324        23.8732 
 254   0.0000       0.879546        23.9337 
 255   0.0000       0.884425        24.0664 
 256   0.0000       0.887297        24.1446 
 257   0.0000       0.888766        24.1846 
 258   0.0000       0.890754        24.2387 
 259   0.0000       0.896043        24.3826 
 260   0.0000       0.901063        24.5192 
 261   0.0000       0.903278        24.5794 
 262   0.0000       0.909837        24.7579 
 263   0.0000       0.912930        24.8421 
 264   0.0000       0.918075        24.9821 
 265   0.0000       0.923997        25.1432 
 266   0.0000       0.924818        25.1656 
 267   0.0000       0.927107        25.2279 
 268   0.0000       0.933211        25.3940 
 269   0.0000       0.935317        25.4513 
 270   0.0000       0.939433        25.5633 
 271   0.0000       0.940560        25.5939 
 272   0.0000       0.946993        25.7690 
 273   0.0000       0.956151        26.0182 
 274   0.0000       0.957551        26.0563 
 275   0.0000       0.962157        26.1816 
 276   0.0000       0.964981        26.2585 
 277   0.0000       0.969514        26.3818 
 278   0.0000       0.974221        26.5099 
 279   0.0000       0.981054        26.6958 
 280   0.0000       0.983996        26.7759 
 281   0.0000       1.001787        27.2600 
 282   0.0000       1.004067        27.3220 
 283   0.0000       1.008348        27.4386 
 284   0.0000       1.014658        27.6102 
 285   0.0000       1.023024        27.8379 
 286   0.0000       1.032373        28.0923 
 287   0.0000       1.040762        28.3206 
 288   0.0000       1.053082        28.6558 
 289   0.0000       1.069615        29.1057 
 290   0.0000       1.071970        29.1698 
 291   0.0000       1.081554        29.4306 
 292   0.0000       1.087832        29.6014 
 293   0.0000       1.097631        29.8680 
 294   0.0000       1.112270        30.2664 
 295   0.0000       1.119322        30.4583 
 296   0.0000       1.125608        30.6294 
 297   0.0000       1.129563        30.7370 
 298   0.0000       1.137730        30.9592 
 299   0.0000       1.144682        31.1484 
 300   0.0000       1.158800        31.5326 
 301   0.0000       1.170860        31.8607 
 302   0.0000       1.177568        32.0433 
 303   0.0000       1.205998        32.8169 
 304   0.0000       1.233387        33.5622 
 305   0.0000       1.240425        33.7537 
 306   0.0000       1.251463        34.0541 
 307   0.0000       1.259041        34.2602 
 308   0.0000       1.291256        35.1369 
 309   0.0000       1.308835        35.6152 
 310   0.0000       1.331843        36.2413 
 311   0.0000       1.339855        36.4593 
 312   0.0000       1.355237        36.8779 
 313   0.0000       1.369440        37.2643 
 314   0.0000       1.410755        38.3886 
 315   0.0000       1.525601        41.5137 
 316   0.0000       1.528450        41.5912 
 317   0.0000       1.561661        42.4950 
 318   0.0000       1.591481        43.3064 
 319   0.0000       1.675093        45.5816 
 320   0.0000       6.202062       168.7667 
 321   0.0000       6.232109       169.5843 
 322   0.0000       6.259509       170.3299 
 323   0.0000       6.275721       170.7710 
 324   0.0000       6.282603       170.9583 
 325   0.0000       6.293092       171.2437 
 326   0.0000       6.303465       171.5260 
 327   0.0000       6.316554       171.8822 
 328   0.0000       6.317141       171.8981 
 329   0.0000       6.334632       172.3741 
 330   0.0000       6.346172       172.6881 
 331   0.0000       6.350298       172.8004 
 332   0.0000       6.364049       173.1746 
 333   0.0000       6.366656       173.2455 
 334   0.0000       6.387036       173.8001 
 335   0.0000       6.389570       173.8691 
 336   0.0000       6.406504       174.3298 
 337   0.0000       6.408359       174.3803 
 338   0.0000       6.415568       174.5765 
 339   0.0000       6.420993       174.7241 
 340   0.0000       6.423696       174.7976 
 341   0.0000       6.443132       175.3265 
 342   0.0000       6.449984       175.5130 
 343   0.0000       6.453613       175.6117 
 344   0.0000       6.469798       176.0521 
 345   0.0000       6.481226       176.3631 
 346   0.0000       6.485592       176.4819 
 347   0.0000       6.496261       176.7723 
 348   0.0000       6.509630       177.1360 
 349   0.0000       6.515035       177.2831 
 350   0.0000       6.526126       177.5849 
 351   0.0000       6.526459       177.5940 
 352   0.0000       6.539903       177.9598 
 353   0.0000       6.546937       178.1512 
 354   0.0000       6.549133       178.2110 
 355   0.0000       6.552230       178.2953 
 356   0.0000       6.559755       178.5000 
 357   0.0000       6.567282       178.7048 
 358   0.0000       6.572404       178.8442 
 359   0.0000       6.575349       178.9243 
 360   0.0000       6.579471       179.0365 
 361   0.0000       6.583034       179.1335 
 362   0.0000       6.585815       179.2091 
 363   0.0000       6.593994       179.4317 
 364   0.0000       6.598517       179.5548 
 365   0.0000       6.608707       179.8321 
 366   0.0000       6.611461       179.9070 
 367   0.0000       6.615103       180.0061 
 368   0.0000       6.617760       180.0784 
 369   0.0000       6.620482       180.1525 
 370   0.0000       6.626533       180.3171 
 371   0.0000       6.629768       180.4051 
 372   0.0000       6.632405       180.4769 
 373   0.0000       6.634911       180.5451 
 374   0.0000       6.638183       180.6342 
[...]
     69 H        0.000      0.000      0.000      0.000      0.000      0.000
     70 H        0.000      0.000      0.000     -0.000      0.001      0.019
     71 H        0.000      0.000      0.000      0.000      0.001      0.011
     72 H        0.000      0.000      0.000      0.000      0.002      0.034
                 25 H       27 H       28 H       30 H       31 H       33 H  
      3 H        0.074     -0.003      0.002      0.000      0.000      0.089
      4 H        2.286     -0.110      0.068      0.000      0.000      2.554
      8 H        0.119      0.000      0.000      0.000      0.000      0.110
      9 H       -0.257      0.014      0.000      0.000      0.000     -0.305
     10 H        0.000      0.000      0.000      0.000      0.000      0.000
     11 H        0.000      0.000      0.000      0.000      0.000      0.000
     13 H       -0.038      0.000      0.000      0.000      0.000      0.000
     16 H       -0.259      0.014     -0.005     -0.031     -0.002     -0.302
     17 H       -0.240      0.013      0.000      0.000      0.000     -0.298
     19 H        0.918     -0.046      0.076      0.064      0.005      0.970
     21 H       -2.818      0.191      0.668     -0.229     -0.027     -2.385
     24 H      -13.393      4.316      2.360      0.648     -0.498     -0.128
     25 H        0.000     12.985      5.191     -0.632     -0.356     -2.133
     27 H       12.985      0.000    -13.576      4.006     13.001      0.063
     28 H        5.191    -13.576      0.000      2.628      4.132      0.288
     30 H       -0.632      4.006      2.628      0.000    -13.011      0.035
     31 H       -0.356     13.001      4.132    -13.011      0.000     -0.324
     33 H       -2.133      0.063      0.288      0.035     -0.324      0.000
     35 H       -0.025      0.001     -0.001      0.000      0.000     -0.033
     37 H        0.277      0.004     -0.036      0.511     -0.036      6.540
     38 H        0.166      0.001     -0.028     -0.013      0.127     12.215
     40 H       -0.013      0.018      0.149     -0.002     -0.032     -0.248
     41 H        0.009      0.022     -0.025      0.014      0.078     -0.440
     42 H       -0.018      0.015     -0.017     -0.255     -0.368     -0.212
     45 H       -0.059     -0.124     -0.146     -0.154      1.828     -0.472
     46 H       -0.017     -0.223      0.003     -0.207     -0.481     -0.208
     47 H        0.013      0.048      0.066     -0.337      0.018      0.888
     48 H       -0.016      0.029      0.024      0.038      0.006     -0.018
     52 H        0.001      0.000      0.002     -0.014     -0.002      0.003
     53 H       -0.001      0.000     -0.000     -0.002     -0.003     -0.007
     57 H        0.000      0.000      0.000      0.001     -0.000      0.000
     58 H        0.000      0.000      0.000     -0.000     -0.000     -0.000
     61 H        0.000      0.000      0.000     -0.000     -0.000      0.000
     62 H        0.000      0.000      0.000      0.000      0.000      0.000
     63 H        0.000      0.000      0.000     -0.000     -0.000      0.000
     64 H        0.000     -0.000      0.000      0.000      0.000      0.000
     65 H        0.000      0.000      0.000      0.000      0.000      0.000
     66 H        0.000      0.000      0.000      0.000      0.000     -0.000
     67 H        0.000      0.000      0.000      0.000      0.000      0.000
     68 H        0.000      0.000      0.000      0.000      0.000      0.000
     69 H        0.000      0.000      0.000      0.000      0.000      0.000
     70 H        0.004     -0.008     -0.008     -0.462     -0.091      0.004
     71 H        0.000     -0.003     -0.004      0.065      0.007     -0.001
     72 H        0.000     -0.010     -0.011      0.081     -0.047      0.004
                 35 H       37 H       38 H       40 H       41 H       42 H  
      3 H       -0.268     -0.001     -0.001      0.000      0.000      0.000
      4 H       -0.647     -0.045     -0.015      0.000      0.000      0.000
      8 H       -0.032     -0.002     -0.002      0.000     -0.000      0.000
      9 H       -0.153      0.005      0.002      0.000      0.001      0.000
     10 H       -0.401     -0.000     -0.000      0.000      0.000      0.000
     11 H       -0.143     -0.002     -0.000      0.000      0.000      0.000
     13 H       12.500      0.000      0.000      0.000      0.000      0.000
     16 H       -0.003      0.004      0.003      0.001      0.001     -0.001
     17 H       -0.001      0.005      0.004     -0.000      0.001      0.000
     19 H        0.043     -0.020      0.079      0.013     -0.004      0.003
     21 H       -0.014      0.062     -0.576     -0.010      0.060     -0.023
     24 H       -0.001     -0.057     -0.080     -0.019      0.065     -0.024
     25 H       -0.025      0.277      0.166     -0.013      0.009     -0.018
     27 H        0.001      0.004      0.001      0.018      0.022      0.015
     28 H       -0.001     -0.036     -0.028      0.149     -0.025     -0.017
     30 H        0.000      0.511     -0.013     -0.002      0.014     -0.255
     31 H        0.000     -0.036      0.127     -0.032      0.078     -0.368
     33 H       -0.033      6.540     12.215     -0.248     -0.440     -0.212
     35 H        0.000      0.000     -0.000      0.000      0.000      0.000
     37 H        0.000      0.000    -12.272      9.553      2.648     -0.262
     38 H       -0.000    -12.272      0.000      6.581     11.586     -0.482
     40 H        0.000      9.553      6.581      0.000    -13.342      9.316
     41 H        0.000      2.648     11.586    -13.342      0.000      8.857
     42 H        0.000     -0.262     -0.482      9.316      8.857      0.000
     45 H       -0.000      0.066     -0.062     -0.111     -0.066     -0.081
     46 H        0.000      0.059      0.034     -0.084      0.006      1.129
     47 H        0.000     -0.174      0.012      0.055      0.040     -0.412
     48 H        0.000      0.108     -0.005     -0.197     -0.414     10.433
     52 H        0.000     -0.018     -0.016      0.244     -0.169     -0.174
     53 H        0.000     -0.003     -0.005     -0.031      0.097      0.111
     57 H        0.000      0.000      0.000      0.002     -0.002     -0.005
     58 H        0.000      0.000      0.000     -0.002     -0.000      0.004
     61 H        0.000      0.000      0.000     -0.002      0.000      0.003
     62 H        0.000      0.000      0.000      0.010     -0.001     -0.019
     63 H        0.000      0.000      0.000      0.000     -0.000      0.002
     64 H        0.000      0.001      0.003     -0.013     -0.006     -0.045
     65 H        0.000      0.001      0.002     -0.004     -0.002     -0.005
     66 H        0.000      0.001      0.002     -0.004     -0.003     -0.005
     67 H        0.000      0.000      0.000     -0.001     -0.000     -0.002
     68 H        0.000      0.000      0.000      0.002      0.001     -0.009
     69 H        0.000      0.000      0.000     -0.000      0.000      0.000
     70 H        0.000     -0.007      0.000      0.083      0.029     -0.204
     71 H        0.000     -0.021      0.037      0.020     -0.047     -0.365
     72 H        0.000      0.066      0.015     -0.050      0.004     -0.440
                 45 H       46 H       47 H       48 H       52 H       53 H  
      3 H        0.001     -0.000     -0.001      0.000      0.000      0.000
      4 H        0.026     -0.018     -0.018      0.000      0.000      0.000
      8 H        0.001     -0.001      0.000      0.000      0.000      0.000
      9 H       -0.003      0.002      0.000      0.000      0.000      0.000
     10 H        0.000     -0.000      0.000      0.000      0.000      0.000
     11 H        0.000      0.000      0.000      0.000      0.000      0.000
     13 H        0.000      0.000      0.000      0.000      0.000      0.000
     16 H       -0.003      0.000      0.002     -0.002      0.000      0.000
     17 H       -0.004      0.000      0.001     -0.002      0.000      0.000
     19 H        0.010     -0.010     -0.008      0.006      0.000      0.000
     21 H       -0.018      0.042      0.012     -0.017      0.001      0.000
     24 H       -0.023     -0.023     -0.016      0.005      0.000      0.000
     25 H       -0.059     -0.017      0.013     -0.016      0.001     -0.001
     27 H       -0.124     -0.223      0.048      0.029      0.000      0.000
     28 H       -0.146      0.003      0.066      0.024      0.002     -0.000
     30 H       -0.154     -0.207     -0.337      0.038     -0.014     -0.002
     31 H        1.828     -0.481      0.018      0.006     -0.002     -0.003
     33 H       -0.472     -0.208      0.888     -0.018      0.003     -0.007
     35 H       -0.000      0.000      0.000      0.000      0.000      0.000
     37 H        0.066      0.059     -0.174      0.108     -0.018     -0.003
     38 H       -0.062      0.034      0.012     -0.005     -0.016     -0.005
     40 H       -0.111     -0.084      0.055     -0.197      0.244     -0.031
     41 H       -0.066      0.006      0.040     -0.414     -0.169      0.097
     42 H       -0.081      1.129     -0.412     10.433     -0.174      0.111
     45 H        0.000    -13.651    -13.047     -0.205      0.006     -0.015
     46 H      -13.651      0.000    -13.039     -0.176      0.024     -0.039
     47 H      -13.047    -13.039      0.000     -0.116      0.005     -0.010
     48 H       -0.205     -0.176     -0.116      0.000      5.126     -2.230
     52 H        0.006      0.024      0.005      5.126      0.000     16.632
     53 H       -0.015     -0.039     -0.010     -2.230     16.632      0.000
     57 H        0.001      0.000     -0.000      0.096     -0.680      9.876
     58 H       -0.001      0.000     -0.000     -0.070      0.074     -0.318
     61 H        0.000      0.000     -0.001     -0.082      0.092     -0.305
     62 H        0.000      0.000      0.000      0.690     -0.391     -0.042
     63 H       -0.000      0.000      0.000     -0.011      0.098     -0.145
     64 H        0.000      0.000      0.000      0.001      0.027      0.021
     65 H        0.000      0.000      0.000      0.012      0.023      0.000
     66 H       -0.000      0.000      0.000     -0.036      0.067     -0.045
     67 H        0.000      0.000      0.000      0.010     -0.011      0.037
     68 H        0.000      0.000      0.000      0.087     -0.092      0.044
     69 H        0.000      0.000      0.000      0.000      0.039      0.127
     70 H       -0.016     -0.058     -0.228      5.241      0.837     -0.186
     71 H        0.033     -0.031     -0.040     12.609     -0.522     -0.176
     72 H       -0.011     -0.030     -0.021      1.906     -0.353     -0.199
                 57 H       58 H       61 H       62 H       63 H       64 H  
      3 H        0.000      0.000      0.000      0.000      0.000      0.000
      4 H        0.000      0.000      0.000      0.000      0.000      0.000
      8 H        0.000      0.000      0.000      0.000      0.000      0.000
      9 H        0.000      0.000      0.000      0.000      0.000      0.000
     10 H        0.000      0.000      0.000      0.000      0.000      0.000
     11 H        0.000      0.000      0.000      0.000      0.000      0.000
     13 H        0.000      0.000      0.000      0.000      0.000      0.000
     16 H        0.000      0.000      0.000      0.000      0.000      0.000
     17 H        0.000      0.000      0.000      0.000      0.000      0.000
     19 H        0.000      0.000      0.000      0.000      0.000      0.000
     21 H        0.000      0.000      0.000      0.000      0.000      0.000
     24 H        0.000      0.000      0.000      0.000      0.000      0.000
     25 H        0.000      0.000      0.000      0.000      0.000      0.000
     27 H        0.000      0.000      0.000      0.000      0.000     -0.000
     28 H        0.000      0.000      0.000      0.000      0.000      0.000
     30 H        0.001     -0.000     -0.000      0.000     -0.000      0.000
     31 H       -0.000     -0.000     -0.000      0.000     -0.000      0.000
     33 H        0.000     -0.000      0.000      0.000      0.000      0.000
     35 H        0.000      0.000      0.000      0.000      0.000      0.000
     37 H        0.000      0.000      0.000      0.000      0.000      0.001
     38 H        0.000      0.000      0.000      0.000      0.000      0.003
     40 H        0.002     -0.002     -0.002      0.010      0.000     -0.013
     41 H       -0.002     -0.000      0.000     -0.001     -0.000     -0.006
     42 H       -0.005      0.004      0.003     -0.019      0.002     -0.045
     45 H        0.001     -0.001      0.000      0.000     -0.000      0.000
     46 H        0.000      0.000      0.000      0.000      0.000      0.000
     47 H       -0.000     -0.000     -0.001      0.000      0.000      0.000
     48 H        0.096     -0.070     -0.082      0.690     -0.011      0.001
     52 H       -0.680      0.074      0.092     -0.391      0.098      0.027
     53 H        9.876     -0.318     -0.305     -0.042     -0.145      0.021
     57 H        0.000      9.962     12.728      4.056      2.621     -0.215
     58 H        9.962      0.000     -0.335     -0.195     -0.505      3.474
     61 H       12.728     -0.335      0.000    -12.252    -12.642      0.033
     62 H        4.056     -0.195    -12.252      0.000    -12.968      0.018
     63 H        2.621     -0.505    -12.642    -12.968      0.000      0.033
     64 H       -0.215      3.474      0.033      0.018      0.033      0.000
     65 H       -0.380     12.797      0.071      0.060     -0.047    -12.558
     66 H       -0.295      3.123     -0.078      0.030      0.702    -12.455
     67 H       -0.194      4.247     -0.022     -0.253      0.014      2.883
     68 H       -0.463      2.481      0.008     -0.071     -0.085      0.205
     69 H       -0.312     12.675      0.099     -0.032      0.006     -0.385
     70 H        0.266      0.005      0.001     -0.015     -0.003      0.003
     71 H        0.089     -0.001     -0.002     -0.010     -0.001     -0.000
     72 H        0.089      0.000      0.003     -0.011     -0.000      0.001
                 65 H       66 H       67 H       68 H       69 H       70 H  
      3 H        0.000      0.000      0.000      0.000      0.000      0.000
      4 H        0.000      0.000      0.000      0.000      0.000      0.000
      8 H        0.000      0.000      0.000      0.000      0.000      0.000
      9 H        0.000      0.000      0.000      0.000      0.000      0.000
     10 H        0.000      0.000      0.000      0.000      0.000      0.000
     11 H        0.000      0.000      0.000      0.000      0.000      0.000
     13 H        0.000      0.000      0.000      0.000      0.000      0.000
     16 H        0.000      0.000      0.000      0.000      0.000      0.000
     17 H        0.000      0.000      0.000      0.000      0.000      0.000
     19 H        0.000      0.000      0.000      0.000      0.000     -0.000
     21 H        0.000      0.000      0.000      0.000      0.000      0.001
     24 H        0.000      0.000      0.000      0.000      0.000      0.019
     25 H        0.000      0.000      0.000      0.000      0.000      0.004
     27 H        0.000      0.000      0.000      0.000      0.000     -0.008
     28 H        0.000      0.000      0.000      0.000      0.000     -0.008
     30 H        0.000      0.000      0.000      0.000      0.000     -0.462
     31 H        0.000      0.000      0.000      0.000      0.000     -0.091
     33 H        0.000     -0.000      0.000      0.000      0.000      0.004
     35 H        0.000      0.000      0.000      0.000      0.000      0.000
     37 H        0.001      0.001      0.000      0.000      0.000     -0.007
     38 H        0.002      0.002      0.000      0.000      0.000      0.000
     40 H       -0.004     -0.004     -0.001      0.002     -0.000      0.083
     41 H       -0.002     -0.003     -0.000      0.001      0.000      0.029
     42 H       -0.005     -0.005     -0.002     -0.009      0.000     -0.204
     45 H        0.000     -0.000      0.000      0.000      0.000     -0.016
     46 H        0.000      0.000      0.000      0.000      0.000     -0.058
     47 H        0.000      0.000      0.000      0.000      0.000     -0.228
     48 H        0.012     -0.036      0.010      0.087      0.000      5.241
     52 H        0.023      0.067     -0.011     -0.092      0.039      0.837
     53 H        0.000     -0.045      0.037      0.044      0.127     -0.186
     57 H       -0.380     -0.295     -0.194     -0.463     -0.312      0.266
     58 H       12.797      3.123      4.247      2.481     12.675      0.005
     61 H        0.071     -0.078     -0.022      0.008      0.099      0.001
     62 H        0.060      0.030     -0.253     -0.071     -0.032     -0.015
     63 H       -0.047      0.702      0.014     -0.085      0.006     -0.003
     64 H      -12.558    -12.455      2.883      0.205     -0.385      0.003
     65 H        0.000    -12.529     -0.294     -0.219     -0.303      0.000
     66 H      -12.529      0.000      0.024     -0.254     -0.216      0.003
     67 H       -0.294      0.024      0.000    -12.975    -11.998      0.000
     68 H       -0.219     -0.254    -12.975      0.000    -12.864      0.000
     69 H       -0.303     -0.216    -11.998    -12.864      0.000      0.000
     70 H        0.000      0.003      0.000      0.000      0.000      0.000
     71 H       -0.000     -0.000     -0.000     -0.001      0.000    -12.740
     72 H        0.001      0.003      0.000     -0.005      0.000    -13.611
                 71 H       72 H  
      3 H        0.000      0.000
      4 H        0.000      0.000
      8 H        0.000      0.000
      9 H        0.000      0.000
     10 H        0.000      0.000
     11 H        0.000      0.000
     13 H        0.000      0.000
     16 H        0.000      0.000
     17 H        0.000      0.000
     19 H        0.000      0.000
     21 H        0.001      0.002
     24 H        0.011      0.034
     25 H        0.000      0.000
     27 H       -0.003     -0.010
     28 H       -0.004     -0.011
     30 H        0.065      0.081
     31 H        0.007     -0.047
     33 H       -0.001      0.004
     35 H        0.000      0.000
     37 H       -0.021      0.066
     38 H        0.037      0.015
     40 H        0.020     -0.050
     41 H       -0.047      0.004
     42 H       -0.365     -0.440
     45 H        0.033     -0.011
     46 H       -0.031     -0.030
     47 H       -0.040     -0.021
     48 H       12.609      1.906
     52 H       -0.522     -0.353
     53 H       -0.176     -0.199
     57 H        0.089      0.089
     58 H       -0.001      0.000
     61 H       -0.002      0.003
     62 H       -0.010     -0.011
     63 H       -0.001     -0.000
     64 H       -0.000      0.001
     65 H       -0.000      0.001
     66 H       -0.000      0.003
     67 H       -0.000      0.000
     68 H       -0.001     -0.005
     69 H        0.000      0.000
     70 H      -12.740    -13.611
     71 H        0.000    -12.427
     72 H      -12.427      0.000

Maximum memory used throughout the entire EPRNMR-calculation: 986.9 MB

Timings for individual modules:

Sum of individual times         ...      389.447 sec (=   6.491 min)
GTO integral calculation        ...        0.745 sec (=   0.012 min)   0.2 %
SCF iterations                  ...      104.490 sec (=   1.741 min)  26.8 %
EPR/NMR calculation             ...      284.212 sec (=   4.737 min)  73.0 %
                             ****ORCA TERMINATED NORMALLY****
TOTAL RUN TIME: 0 days 0 hours 6 minutes 29 seconds 825 msec
