
                                 *****************
                                 * O   R   C   A *
                                 *****************

                                            #,                                       
                                            ###                                      
                                            ####                                     
                                            #####                                    
                                            ######                                   
                                           ########,                                 
                                     ,,################,,,,,                         
                               ,,#################################,,                 
                          ,,##########################################,,             
                       ,#########################################, ''#####,          
                    ,#############################################,,   '####,        
                  ,##################################################,,,,####,       
                ,###########''''           ''''###############################       
              ,#####''   ,,,,##########,,,,          '''####'''          '####       
            ,##' ,,,,###########################,,,                        '##       
           ' ,,###''''                  '''############,,,                           
         ,,##''                                '''############,,,,        ,,,,,,###''
      ,#''                                            '''#######################'''  
     '                                                          ''''####''''         
             ,#######,   #######,   ,#######,      ##                                
            ,#'     '#,  ##    ##  ,#'     '#,    #''#        ######   ,####,        
            ##       ##  ##   ,#'  ##            #'  '#       #        #'  '#        
            ##       ##  #######   ##           ,######,      #####,   #    #        
            '#,     ,#'  ##    ##  '#,     ,#' ,#      #,         ##   #,  ,#        
             '#######'   ##     ##  '#######'  #'      '#     #####' # '####'        



                  #######################################################
                  #                        -***-                        #
                  #          Department of theory and spectroscopy      #
                  #    Directorship and core code : Frank Neese         #
                  #        Max Planck Institute fuer Kohlenforschung    #
                  #                Kaiser Wilhelm Platz 1               #
                  #                 D-45470 Muelheim/Ruhr               #
                  #                      Germany                        #
                  #                                                     #
                  #                  All rights reserved                #
                  #                        -***-                        #
                  #######################################################


                         Program Version 5.0.2 -  RELEASE  -


 With contributions from (in alphabetic order):
   Daniel Aravena         : Magnetic Suceptibility
   Michael Atanasov       : Ab Initio Ligand Field Theory (pilot matlab implementation)
   Alexander A. Auer      : GIAO ZORA, VPT2 properties, NMR spectrum
   Ute Becker             : Parallelization
   Giovanni Bistoni       : ED, misc. LED, open-shell LED, HFLD
   Martin Brehm           : Molecular dynamics
   Dmytro Bykov           : SCF Hessian
   Vijay G. Chilkuri      : MRCI spin determinant printing, contributions to CSF-ICE
   Dipayan Datta          : RHF DLPNO-CCSD density
   Achintya Kumar Dutta   : EOM-CC, STEOM-CC
   Dmitry Ganyushin       : Spin-Orbit,Spin-Spin,Magnetic field MRCI
   Miquel Garcia          : C-PCM and meta-GGA Hessian, CC/C-PCM, Gaussian charge scheme
   Yang Guo               : DLPNO-NEVPT2, F12-NEVPT2, CIM, IAO-localization
   Andreas Hansen         : Spin unrestricted coupled pair/coupled cluster methods
   Benjamin Helmich-Paris : MC-RPA, TRAH-SCF, COSX integrals
   Lee Huntington         : MR-EOM, pCC
   Robert Izsak           : Overlap fitted RIJCOSX, COSX-SCS-MP3, EOM
   Marcus Kettner         : VPT2
   Christian Kollmar      : KDIIS, OOCD, Brueckner-CCSD(T), CCSD density, CASPT2, CASPT2-K
   Simone Kossmann        : Meta GGA functionals, TD-DFT gradient, OOMP2, MP2 Hessian
   Martin Krupicka        : Initial AUTO-CI
   Lucas Lang             : DCDCAS
   Marvin Lechner         : AUTO-CI (C++ implementation), FIC-MRCC
   Dagmar Lenk            : GEPOL surface, SMD
   Dimitrios Liakos       : Extrapolation schemes; Compound Job, initial MDCI parallelization
   Dimitrios Manganas     : Further ROCIS development; embedding schemes
   Dimitrios Pantazis     : SARC Basis sets
   Anastasios Papadopoulos: AUTO-CI, single reference methods and gradients
   Taras Petrenko         : DFT Hessian,TD-DFT gradient, ASA, ECA, R-Raman, ABS, FL, XAS/XES, NRVS
   Peter Pinski           : DLPNO-MP2, DLPNO-MP2 Gradient
   Christoph Reimann      : Effective Core Potentials
   Marius Retegan         : Local ZFS, SOC
   Christoph Riplinger    : Optimizer, TS searches, QM/MM, DLPNO-CCSD(T), (RO)-DLPNO pert. Triples
   Tobias Risthaus        : Range-separated hybrids, TD-DFT gradient, RPA, STAB
   Michael Roemelt        : Original ROCIS implementation
   Masaaki Saitow         : Open-shell DLPNO-CCSD energy and density
   Barbara Sandhoefer     : DKH picture change effects
   Avijit Sen             : IP-ROCIS
   Kantharuban Sivalingam : CASSCF convergence, NEVPT2, FIC-MRCI
   Bernardo de Souza      : ESD, SOC TD-DFT
   Georgi Stoychev        : AutoAux, RI-MP2 NMR, DLPNO-MP2 response
   Willem Van den Heuvel  : Paramagnetic NMR
   Boris Wezisla          : Elementary symmetry handling
   Frank Wennmohs         : Technical directorship


 We gratefully acknowledge several colleagues who have allowed us to
 interface, adapt or use parts of their codes:
   Stefan Grimme, W. Hujo, H. Kruse, P. Pracht,  : VdW corrections, initial TS optimization,
                  C. Bannwarth, S. Ehlert          DFT functionals, gCP, sTDA/sTD-DF
   Ed Valeev, F. Pavosevic, A. Kumar             : LibInt (2-el integral package), F12 methods
   Garnet Chan, S. Sharma, J. Yang, R. Olivares  : DMRG
   Ulf Ekstrom                                   : XCFun DFT Library
   Mihaly Kallay                                 : mrcc  (arbitrary order and MRCC methods)
   Jiri Pittner, Ondrej Demel                    : Mk-CCSD
   Frank Weinhold                                : gennbo (NPA and NBO analysis)
   Christopher J. Cramer and Donald G. Truhlar   : smd solvation model
   Lars Goerigk                                  : TD-DFT with DH, B97 family of functionals
   V. Asgeirsson, H. Jonsson                     : NEB implementation
   FAccTs GmbH                                   : IRC, NEB, NEB-TS, DLPNO-Multilevel, CI-OPT
                                                   MM, QMMM, 2- and 3-layer-ONIOM, Crystal-QMMM,
                                                   LR-CPCM, SF, NACMEs, symmetry and pop. for TD-DFT,
                                                   nearIR, NL-DFT gradient (VV10), updates on ESD,
                                                   ML-optimized integration grids
   S Lehtola, MJT Oliveira, MAL Marques          : LibXC Library
   Liviu Ungur et al                             : ANISO software


 Your calculation uses the libint2 library for the computation of 2-el integrals
 For citations please refer to: http://libint.valeyev.net

 Your ORCA version has been built with support for libXC version: 5.1.0
 For citations please refer to: https://tddft.org/programs/libxc/

 This ORCA versions uses:
   CBLAS   interface :  Fast vector & matrix operations
   LAPACKE interface :  Fast linear algebra routines
   SCALAPACK package :  Parallel linear algebra routines
   Shared memory     :  Shared parallel matrices
   BLAS/LAPACK       :  OpenBLAS 0.3.15  USE64BITINT DYNAMIC_ARCH NO_AFFINITY Zen SINGLE_THREADED
        Core in use  :  Zen
   Copyright (c) 2011-2014, The OpenBLAS Project


Your calculation utilizes the atom-pairwise dispersion correction
based on tight binding partial charges (D4)
Cite in your paper:
E.Caldeweyher, C.Bannwarth, S.Grimme, J.Chem.Phys., (2017), 147, 034112.
E.Caldeweyher, S.Ehlert, A.Hansen, H.Neugebauer, S.Grimme, J.Chem.Phys., (2018), in progress.
   

================================================================================

----- Orbital basis set information -----
Your calculation utilizes the basis: pcSseg-1
   F. Jensen, J. Chem. Theory Comput. 11, 132 (2015).

----- AuxJ basis set information -----
Your calculation utilizes the auxiliary basis: def2/J
   F. Weigend, Phys. Chem. Chem. Phys. 8, 1057 (2006).

================================================================================
                                        WARNINGS
                       Please study these warnings very carefully!
================================================================================



WARNING: Found flag for RIJCOSX approximation but no HF exchange needed!
  ===> : RIJCOSX  will be disabled and Split-RI-J is turned on

INFO   : the flag for use of the SHARK integral package has been found!

================================================================================
                                       INPUT FILE
================================================================================
NAME = inpS
|  1> ! revTPSS
|  2> ! D4
|  3> ! pcSseg-1
|  4> ! def2/J RIJCOSX
|  5> ! DEFGRID2
|  6> ! scfconv7
|  7> ! smallprint printgap noloewdin
|  8> ! NOSOSCF
|  9> %MaxCore 4000
| 10> %output
| 11>        print[P_BondOrder_M] 1
| 12>        print[P_Mayer] 1
| 13>        print[P_basis] 2
| 14> end
| 15> %pal
| 16>     nprocs 4
| 17> end
| 18> ! CPCM(chloroform)
| 19> *xyz 0 1
| 20> C   -5.0083890700   0.2300521400  -0.4854652800
| 21> C   -6.4606163900  -0.1486244900  -0.6578090600
| 22> C   -7.3586375900   0.7708321700   0.1796493600
| 23> H   -6.6242064100  -1.1941060500  -0.3729950200
| 24> H   -6.7533979000  -0.0342979600  -1.7120956700
| 25> C   -4.7219533500   1.6560902500  -0.7567307400
| 26> C   -5.6430323000   2.6253505000  -0.0491268000
| 27> C   -7.1190283800   2.2323486100  -0.2031757600
| 28> H   -5.4751749900   3.6435338100  -0.4160670400
| 29> H   -5.3882204000   2.6241483500   1.0216633700
| 30> H   -7.4297174300   2.3707813300  -1.2477369200
| 31> H   -7.7478687600   2.8812850400   0.4172779500
| 32> O   -7.1459595400   0.5478361300   1.5834777600
| 33> H   -8.4105916800   0.5141477800   0.0039331800
| 34> C   -4.0951437500  -0.6722825200  -0.0541535100
| 35> C   -3.7562971300   2.0622598100  -1.5883851400
| 36> H   -3.1157261200   1.3501046500  -2.1017893600
| 37> H   -3.5924823900   3.1199161100  -1.7812350300
| 38> C   -2.7080008800  -0.4036969200   0.2493115400
| 39> H   -4.4585761700  -1.6864173000   0.1073698600
| 40> C   -1.7663419100  -1.3173292600   0.5669859100
| 41> H   -2.4128809300   0.6429640100   0.2256873800
| 42> C   -1.9706932000  -2.8099843100   0.6142553200
| 43> C   -0.9682544800  -3.5423066400  -0.2986660900
| 44> H   -2.9907694500  -3.0993795500   0.3481475000
| 45> H   -1.7979220200  -3.1433692300   1.6497864900
| 46> C    0.4842238300  -3.1200553500  -0.0411048900
| 47> H   -1.2321048900  -3.3484354700  -1.3460976000
| 48> H   -1.0679238000  -4.6241393100  -0.1472248800
| 49> C    0.6620850800  -1.5978097700  -0.1285442100
| 50> H    1.1349111600  -3.6396522400  -0.7517577600
| 51> H    0.7827503100  -3.4477086600   0.9661178200
| 52> C   -0.3468345200  -0.9516333800   0.8753307900
| 53> H   -0.1083554000  -1.4217895300   1.8469137600
| 54> C    0.0918943700   0.5071370900   0.9593982800
| 55> H   -6.1923562700   0.4649678700   1.7258850000
| 56> C    1.6342348400   0.4318517800   0.8426073000
| 57> H   -0.2415886600   0.9833912300   1.8872458100
| 58> H   -0.3254479600   1.0887805600   0.1300505500
| 59> C    1.9937981100  -1.0302319500   0.4373414100
| 60> H    2.1258757000   0.7052280700   1.7814064900
| 61> H    1.9955082500   1.1345790500   0.0820510900
| 62> H    2.2165181500  -1.6014008300   1.3532401400
| 63> C    3.2660042000  -1.0929059800  -0.4428030100
| 64> C    0.4137793400  -1.0920090000  -1.5566671500
| 65> H    0.6461553200  -0.0266907100  -1.6542093000
| 66> H   -0.6312891700  -1.2255303200  -1.8527237500
| 67> H    1.0384124300  -1.6350230100  -2.2742919300
| 68> H    3.0624578200  -0.4847257900  -1.3399500800
| 69> C    3.6230888700  -2.5071151400  -0.8969721600
| 70> C    4.3956025900  -0.4085910600   0.2926708800
| 71> C    5.4997656300  -0.9888705600   0.7649398800
| 72> H    4.2549095000   0.6589618900   0.4558803100
| 73> H    5.6500762700  -2.0579835900   0.6035497100
| 74> C    6.6215446700  -0.3193085800   1.5168451500
| 75> C    6.3937267200   1.1703953100   1.7678536400
| 76> C    7.9783024000  -0.6329748600   0.8252282700
| 77> H    6.6756136400  -0.8165384100   2.5008616100
| 78> H    7.9961657800  -1.7243600200   0.6803906600
| 79> C    9.1744517600  -0.2686889500   1.7076097700
| 80> C    8.1026348100   0.0213827800  -0.5520371700
| 81> H    6.2978600600   1.7295018700   0.8308434400
| 82> H    7.2208349800   1.6034179000   2.3377954400
| 83> H    5.4757796500   1.3287195900   2.3438933300
| 84> H    9.0824716600  -0.7089818200   2.7073078400
| 85> H    9.2712761900   0.8168798000   1.8219651800
| 86> H    10.1056935300  -0.6340213600   1.2603969200
| 87> H    7.2392338800  -0.2119873500  -1.1846520000
| 88> H    9.0058843000  -0.3297709500  -1.0630500100
| 89> H    8.1753772500   1.1117308000  -0.4657485900
| 90> H    2.8823903500  -2.8931219200  -1.6001151400
| 91> H    3.6750810700  -3.1996347100  -0.0484941400
| 92> H    4.5952056000  -2.5155110600  -1.4018029300
| 93> *
| 94> %eprnmr
| 95>  Nuclei = all H { shift }
| 96>  origin giao
| 97>  giao_2el giao_2el_same_as_scf
| 98>  giao_1el giao_1el_analytic
| 99> end
|100> 
|101>                          ****END OF INPUT****
================================================================================

                       ****************************
                       * Single Point Calculation *
                       ****************************

---------------------------------
CARTESIAN COORDINATES (ANGSTROEM)
---------------------------------
  C     -5.008389    0.230052   -0.485465
  C     -6.460616   -0.148624   -0.657809
  C     -7.358638    0.770832    0.179649
  H     -6.624206   -1.194106   -0.372995
  H     -6.753398   -0.034298   -1.712096
  C     -4.721953    1.656090   -0.756731
  C     -5.643032    2.625351   -0.049127
  C     -7.119028    2.232349   -0.203176
  H     -5.475175    3.643534   -0.416067
  H     -5.388220    2.624148    1.021663
  H     -7.429717    2.370781   -1.247737
  H     -7.747869    2.881285    0.417278
  O     -7.145960    0.547836    1.583478
  H     -8.410592    0.514148    0.003933
  C     -4.095144   -0.672283   -0.054154
  C     -3.756297    2.062260   -1.588385
  H     -3.115726    1.350105   -2.101789
  H     -3.592482    3.119916   -1.781235
  C     -2.708001   -0.403697    0.249312
  H     -4.458576   -1.686417    0.107370
  C     -1.766342   -1.317329    0.566986
  H     -2.412881    0.642964    0.225687
  C     -1.970693   -2.809984    0.614255
  C     -0.968254   -3.542307   -0.298666
  H     -2.990769   -3.099380    0.348147
  H     -1.797922   -3.143369    1.649786
  C      0.484224   -3.120055   -0.041105
  H     -1.232105   -3.348435   -1.346098
  H     -1.067924   -4.624139   -0.147225
  C      0.662085   -1.597810   -0.128544
  H      1.134911   -3.639652   -0.751758
  H      0.782750   -3.447709    0.966118
  C     -0.346835   -0.951633    0.875331
  H     -0.108355   -1.421790    1.846914
  C      0.091894    0.507137    0.959398
  H     -6.192356    0.464968    1.725885
  C      1.634235    0.431852    0.842607
  H     -0.241589    0.983391    1.887246
  H     -0.325448    1.088781    0.130051
  C      1.993798   -1.030232    0.437341
  H      2.125876    0.705228    1.781406
  H      1.995508    1.134579    0.082051
  H      2.216518   -1.601401    1.353240
  C      3.266004   -1.092906   -0.442803
  C      0.413779   -1.092009   -1.556667
  H      0.646155   -0.026691   -1.654209
  H     -0.631289   -1.225530   -1.852724
  H      1.038412   -1.635023   -2.274292
  H      3.062458   -0.484726   -1.339950
  C      3.623089   -2.507115   -0.896972
  C      4.395603   -0.408591    0.292671
  C      5.499766   -0.988871    0.764940
  H      4.254910    0.658962    0.455880
  H      5.650076   -2.057984    0.603550
  C      6.621545   -0.319309    1.516845
  C      6.393727    1.170395    1.767854
  C      7.978302   -0.632975    0.825228
  H      6.675614   -0.816538    2.500862
  H      7.996166   -1.724360    0.680391
  C      9.174452   -0.268689    1.707610
  C      8.102635    0.021383   -0.552037
  H      6.297860    1.729502    0.830843
  H      7.220835    1.603418    2.337795
  H      5.475780    1.328720    2.343893
  H      9.082472   -0.708982    2.707308
  H      9.271276    0.816880    1.821965
  H     10.105694   -0.634021    1.260397
  H      7.239234   -0.211987   -1.184652
  H      9.005884   -0.329771   -1.063050
  H      8.175377    1.111731   -0.465749
  H      2.882390   -2.893122   -1.600115
  H      3.675081   -3.199635   -0.048494
  H      4.595206   -2.515511   -1.401803

----------------------------
CARTESIAN COORDINATES (A.U.)
----------------------------
  NO LB      ZA    FRAG     MASS         X           Y           Z
   0 C     6.0000    0    12.011   -9.464484    0.434736   -0.917396
   1 C     6.0000    0    12.011  -12.208796   -0.280860   -1.243079
   2 C     6.0000    0    12.011  -13.905810    1.456662    0.339488
   3 H     1.0000    0     1.008  -12.517936   -2.256533   -0.704858
   4 H     1.0000    0     1.008  -12.762073   -0.064814   -3.235392
   5 C     6.0000    0    12.011   -8.923199    3.129557   -1.430014
   6 C     6.0000    0    12.011  -10.663786    4.961193   -0.092836
   7 C     6.0000    0    12.011  -13.453014    4.218528   -0.383947
   8 H     1.0000    0     1.008  -10.346581    6.885281   -0.786253
   9 H     1.0000    0     1.008  -10.182261    4.958922    1.930664
  10 H     1.0000    0     1.008  -14.040131    4.480127   -2.357881
  11 H     1.0000    0     1.008  -14.641350    5.444840    0.788541
  12 O     8.0000    0    15.999  -13.503906    1.035260    2.992339
  13 H     1.0000    0     1.008  -15.893715    0.971598    0.007433
  14 C     6.0000    0    12.011   -7.738700   -1.270430   -0.102335
  15 C     6.0000    0    12.011   -7.098373    3.897106   -3.001613
  16 H     1.0000    0     1.008   -5.887869    2.551328   -3.971806
  17 H     1.0000    0     1.008   -6.788808    5.895787   -3.366046
  18 C     6.0000    0    12.011   -5.117380   -0.762877    0.471131
  19 H     1.0000    0     1.008   -8.425488   -3.186867    0.202900
  20 C     6.0000    0    12.011   -3.337902   -2.489392    1.071448
  21 H     1.0000    0     1.008   -4.559684    1.215026    0.426487
  22 C     6.0000    0    12.011   -3.724070   -5.310101    1.160774
  23 C     6.0000    0    12.011   -1.829736   -6.693989   -0.564397
  24 H     1.0000    0     1.008   -5.651735   -5.856979    0.657903
  25 H     1.0000    0     1.008   -3.397580   -5.940107    3.117645
  26 C     6.0000    0    12.011    0.915050   -5.896050   -0.077677
  27 H     1.0000    0     1.008   -2.328341   -6.327626   -2.543756
  28 H     1.0000    0     1.008   -2.018084   -8.738357   -0.278215
  29 C     6.0000    0    12.011    1.251159   -3.019423   -0.242913
  30 H     1.0000    0     1.008    2.144671   -6.877946   -1.420616
  31 H     1.0000    0     1.008    1.479184   -6.515225    1.825698
  32 C     6.0000    0    12.011   -0.655422   -1.798326    1.654135
  33 H     1.0000    0     1.008   -0.204762   -2.686793    3.490161
  34 C     6.0000    0    12.011    0.173655    0.958350    1.813000
  35 H     1.0000    0     1.008  -11.701857    0.878662    3.261450
  36 C     6.0000    0    12.011    3.088256    0.816082    1.592297
  37 H     1.0000    0     1.008   -0.456536    1.858340    3.566378
  38 H     1.0000    0     1.008   -0.615008    2.057497    0.245760
  39 C     6.0000    0    12.011    3.767732   -1.946856    0.826455
  40 H     1.0000    0     1.008    4.017323    1.332688    3.366370
  41 H     1.0000    0     1.008    3.770964    2.144044    0.155054
  42 H     1.0000    0     1.008    4.188612   -3.026209    2.557253
  43 C     6.0000    0    12.011    6.171853   -2.065293   -0.836776
  44 C     6.0000    0    12.011    0.781930   -2.063598   -2.941675
  45 H     1.0000    0     1.008    1.221057   -0.050438   -3.126003
  46 H     1.0000    0     1.008   -1.192964   -2.315917   -3.501140
  47 H     1.0000    0     1.008    1.962315   -3.089746   -4.297789
  48 H     1.0000    0     1.008    5.787207   -0.915999   -2.532139
  49 C     6.0000    0    12.011    6.846646   -4.737761   -1.695032
  50 C     6.0000    0    12.011    8.306485   -0.772125    0.553068
  51 C     6.0000    0    12.011   10.393051   -1.868695    1.445527
  52 H     1.0000    0     1.008    8.040614    1.245258    0.861489
  53 H     1.0000    0     1.008   10.677097   -3.889025    1.140544
  54 C     6.0000    0    12.011   12.512906   -0.603406    2.866422
  55 C     6.0000    0    12.011   12.082392    2.211727    3.340759
  56 C     6.0000    0    12.011   15.076807   -1.196149    1.559455
  57 H     1.0000    0     1.008   12.615082   -1.543034    4.725944
  58 H     1.0000    0     1.008   15.110563   -3.258568    1.285752
  59 C     6.0000    0    12.011   17.337201   -0.507749    3.226915
  60 C     6.0000    0    12.011   15.311761    0.040408   -1.043199
  61 H     1.0000    0     1.008   11.901231    3.268285    1.570067
  62 H     1.0000    0     1.008   13.645401    3.030021    4.417793
  63 H     1.0000    0     1.008   10.347724    2.510916    4.429316
  64 H     1.0000    0     1.008   17.163384   -1.339781    5.116070
  65 H     1.0000    0     1.008   17.520173    1.543679    3.443015
  66 H     1.0000    0     1.008   19.096993   -1.198127    2.381805
  67 H     1.0000    0     1.008   13.680169   -0.400598   -2.238668
  68 H     1.0000    0     1.008   17.018655   -0.623177   -2.008873
  69 H     1.0000    0     1.008   15.449224    2.100867   -0.880137
  70 H     1.0000    0     1.008    5.446928   -5.467208   -3.023779
  71 H     1.0000    0     1.008    6.944897   -6.046433   -0.091641
  72 H     1.0000    0     1.008    8.683680   -4.753627   -2.649024

--------------------------------
INTERNAL COORDINATES (ANGSTROEM)
--------------------------------
 C      0   0   0     0.000000000000     0.00000000     0.00000000
 C      1   0   0     1.510649713722     0.00000000     0.00000000
 C      2   1   0     1.534007571851   110.50187447     0.00000000
 H      2   1   3     1.095861498696   110.67110412   237.86227110
 H      2   1   3     1.100141729090   109.82323110   118.75270003
 C      1   2   3     1.479599629174   114.00297474   306.31446745
 C      6   1   2     1.512797144454   114.44942089    49.53439901
 C      3   2   1     1.529705184148   110.14165844    56.75230230
 H      7   6   1     1.095225305138   110.21908121   188.85343092
 H      7   6   1     1.100691663326   108.26347690    72.19748071
 H      8   3   2     1.098544182424   108.30408557    64.32770494
 H      8   3   2     1.096139370679   109.51858603   181.33118145
 O      3   2   1     1.437252018073   110.70827122   292.73759960
 H      3   2   1     1.096982433520   109.49236494   177.20670326
 C      1   2   3     1.354346593779   121.16814187   123.20948825
 C      6   1   2     1.337577918379   123.12182548   231.43723402
 H     16   6   1     1.086775084312   121.35045299   359.07035444
 H     16   6   1     1.087503194498   120.95296369   178.45060747
 C     15   1   2     1.445127884615   126.17823284   185.23408701
 H     15   1   2     1.089331113560   116.26430462     3.09070650
 C     19  15   1     1.349949137497   126.38392391   186.17924527
 H     19  15   1     1.087728361408   115.76680045     6.89460982
 C     21  19  15     1.507319788611   125.66299027     2.54056868
 C     23  21  19     1.540975302595   111.33608109   124.06264280
 H     23  21  19     1.093214769665   112.39644212     0.53973645
 H     23  21  19     1.101508143213   107.93480741   242.58154629
 C     24  23  21     1.534381688066   112.67925014    51.42673999
 H     24  23  21     1.097413248305   108.97092801   289.25995482
 H     24  23  21     1.096918565489   109.13513974   173.32652457
 C     27  24  23     1.535093438447   111.90121081   306.22906324
 H     27  24  23     1.094715685080   108.84896539   182.67486119
 H     27  24  23     1.100441883225   109.17779791    66.25348032
 C     21  19  15     1.497935670159   122.97293662   180.31138766
 H     33  21  19     1.105392493033   106.35197529   127.67183776
 C     33  21  19     1.525634840301   121.15072474     5.12011577
 H     13   3   2     0.967732487351   107.62793078    42.72066073
 C     35  33  21     1.548587141982   103.63706285   197.20565981
 H     35  33  21     1.094956609228   112.02430052    75.25049728
 H     35  33  21     1.095582677784   110.87761967   315.62491824
 C     30  27  24     1.554294280679   116.14501778   166.04255127
 H     37  35  33     1.094435585268   111.75078815   248.69713522
 H     37  35  33     1.096717758288   110.44052629   130.12454775
 H     40  30  27     1.102138189754   106.64581996   320.54190565
 C     40  30  27     1.548254039080   118.83444378    80.84856979
 C     30  27  24     1.535260659043   111.15822445   294.09262761
 H     45  30  27     1.094721940091   111.66380597   186.33693239
 H     45  30  27     1.094369975781   111.46305986    66.34078529
 H     45  30  27     1.095452434864   110.72271831   306.25951665
 H     44  40  30     1.102808749298   106.76663009    62.13280775
 C     44  40  30     1.527667053578   113.48747902   303.05474759
 C     44  40  30     1.511688220268   108.60911507   176.62008851
 C     51  44  40     1.333768467682   126.43645293   113.74724037
 H     51  44  40     1.089082717092   114.84162537   295.11927421
 H     52  51  44     1.091623903359   119.19195327     1.57905200
 C     52  51  44     1.507336390690   126.83188798   180.97089114
 C     55  52  51     1.527784003148   113.83546690     1.85597678
 C     55  52  51     1.554835033637   109.74925424   233.31061196
 H     55  52  51     1.103833932668   106.32250998   119.96858938
 H     57  55  52     1.101098815313   105.82045209   310.32152195
 C     57  55  52     1.530383816954   112.18129499   193.49781851
 C     57  55  52     1.529870112598   112.64847033    67.76284709
 H     56  55  52     1.095344090612   111.72924090   299.21466816
 H     56  55  52     1.093823702704   111.03039059   178.51257905
 H     56  55  52     1.095223778693   110.63100629    59.10409877
 H     60  57  55     1.096227340167   111.38406780    51.60727888
 H     60  57  55     1.095861141303   111.40911663   290.85930654
 H     60  57  55     1.095754688420   110.46115142   171.67152335
 H     61  57  55     1.095501851499   111.38890168   307.93840618
 H     61  57  55     1.095583272017   110.47594268   187.66691468
 H     61  57  55     1.096173337722   111.09867637    68.44083714
 H     50  44  40     1.091808399885   111.11113161    67.99463272
 H     50  44  40     1.096449494558   111.45175329   307.62600153
 H     50  44  40     1.095415690301   110.58162464   187.42735726

---------------------------
INTERNAL COORDINATES (A.U.)
---------------------------
 C      0   0   0     0.000000000000     0.00000000     0.00000000
 C      1   0   0     2.854714243220     0.00000000     0.00000000
 C      2   1   0     2.898854198160   110.50187447     0.00000000
 H      2   1   3     2.070878113244   110.67110412   237.86227110
 H      2   1   3     2.078966576479   109.82323110   118.75270003
 C      1   2   3     2.796038086991   114.00297474   306.31446745
 C      6   1   2     2.858772299195   114.44942089    49.53439901
 C      3   2   1     2.890723863680   110.14165844    56.75230230
 H      7   6   1     2.069675881651   110.21908121   188.85343092
 H      7   6   1     2.080005801576   108.26347690    72.19748071
 H      8   3   2     2.075947650793   108.30408557    64.32770494
 H      8   3   2     2.071403215192   109.51858603   181.33118145
 O      3   2   1     2.716012699583   110.70827122   292.73759960
 H      3   2   1     2.072996373075   109.49236494   177.20670326
 C      1   2   3     2.559344152651   121.16814187   123.20948825
 C      6   1   2     2.527655948516   123.12182548   231.43723402
 H     16   6   1     2.053707278518   121.35045299   359.07035444
 H     16   6   1     2.055083207366   120.95296369   178.45060747
 C     15   1   2     2.730895930415   126.17823284   185.23408701
 H     15   1   2     2.058537473787   116.26430462     3.09070650
 C     19  15   1     2.551034164593   126.38392391   186.17924527
 H     19  15   1     2.055508711161   115.76680045     6.89460982
 C     21  19  15     2.848421596714   125.66299027     2.54056868
 C     23  21  19     2.912021301041   111.33608109   124.06264280
 H     23  21  19     2.065876520225   112.39644212     0.53973645
 H     23  21  19     2.081548724956   107.93480741   242.58154629
 C     24  23  21     2.899561175349   112.67925014    51.42673999
 H     24  23  21     2.073810495033   108.97092801   289.25995482
 H     24  23  21     2.072875679988   109.13513974   173.32652457
 C     27  24  23     2.900906188644   111.90121081   306.22906324
 H     27  24  23     2.068712839309   108.84896539   182.67486119
 H     27  24  23     2.079533785591   109.17779791    66.25348032
 C     21  19  15     2.830688182833   122.97293662   180.31138766
 H     33  21  19     2.088889082324   106.35197529   127.67183776
 C     33  21  19     2.883032028537   121.15072474     5.12011577
 H     13   3   2     1.828749371992   107.62793078    42.72066073
 C     35  33  21     2.926405592857   103.63706285   197.20565981
 H     35  33  21     2.069168119968   112.02430052    75.25049728
 H     35  33  21     2.070351218079   110.87761967   315.62491824
 C     30  27  24     2.937190522003   116.14501778   166.04255127
 H     37  35  33     2.068183527374   111.75078815   248.69713522
 H     37  35  33     2.072496209372   110.44052629   130.12454775
 H     40  30  27     2.082739340370   106.64581996   320.54190565
 C     40  30  27     2.925776119598   118.83444378    80.84856979
 C     30  27  24     2.901222189774   111.15822445   294.09262761
 H     45  30  27     2.068724659567   111.66380597   186.33693239
 H     45  30  27     2.068059543413   111.46305986    66.34078529
 H     45  30  27     2.070105094630   110.72271831   306.25951665
 H     44  40  30     2.084006514266   106.76663009    62.13280775
 C     44  40  30     2.886872355077   113.48747902   303.05474759
 C     44  40  30     2.856676736181   108.60911507   176.62008851
 C     51  44  40     2.520457129979   126.43645293   113.74724037
 H     51  44  40     2.058068072491   114.84162537   295.11927421
 H     52  51  44     2.062870218591   119.19195327     1.57905200
 C     52  51  44     2.848452970098   126.83188798   180.97089114
 C     55  52  51     2.887093357736   113.83546690     1.85597678
 C     55  52  51     2.938212397000   109.74925424   233.31061196
 H     55  52  51     2.085943830072   106.32250998   119.96858938
 H     57  55  52     2.080775207327   105.82045209   310.32152195
 C     57  55  52     2.892006293828   112.18129499   193.49781851
 C     57  55  52     2.891035533282   112.64847033    67.76284709
 H     56  55  52     2.069900353666   111.72924090   299.21466816
 H     56  55  52     2.067027236903   111.03039059   178.51257905
 H     56  55  52     2.069672997088   110.63100629    59.10409877
 H     60  57  55     2.071569453433   111.38406780    51.60727888
 H     60  57  55     2.070877437869   111.40911663   290.85930654
 H     60  57  55     2.070676271074   110.46115142   171.67152335
 H     61  57  55     2.070198478536   111.38890168   307.93840618
 H     61  57  55     2.070352341017   110.47594268   187.66691468
 H     61  57  55     2.071467403602   111.09867637    68.44083714
 H     50  44  40     2.063218866497   111.11113161    67.99463272
 H     50  44  40     2.071989264391   111.45175329   307.62600153
 H     50  44  40     2.070035657469   110.58162464   187.42735726

---------------------
BASIS SET INFORMATION
---------------------
There are 3 groups of distinct atoms

 Group   1 Type C   : 8s5p1d contracted to 3s3p1d pattern {521/311/1}
 Group   2 Type H   : 4s2p contracted to 2s1p pattern {31/2}
 Group   3 Type O   : 8s5p1d contracted to 3s3p1d pattern {521/311/1}

Atom   0C    basis set group =>   1
Atom   1C    basis set group =>   1
Atom   2C    basis set group =>   1
Atom   3H    basis set group =>   2
Atom   4H    basis set group =>   2
Atom   5C    basis set group =>   1
Atom   6C    basis set group =>   1
Atom   7C    basis set group =>   1
Atom   8H    basis set group =>   2
Atom   9H    basis set group =>   2
Atom  10H    basis set group =>   2
Atom  11H    basis set group =>   2
Atom  12O    basis set group =>   3
Atom  13H    basis set group =>   2
Atom  14C    basis set group =>   1
Atom  15C    basis set group =>   1
Atom  16H    basis set group =>   2
Atom  17H    basis set group =>   2
Atom  18C    basis set group =>   1
Atom  19H    basis set group =>   2
Atom  20C    basis set group =>   1
Atom  21H    basis set group =>   2
Atom  22C    basis set group =>   1
Atom  23C    basis set group =>   1
Atom  24H    basis set group =>   2
Atom  25H    basis set group =>   2
Atom  26C    basis set group =>   1
Atom  27H    basis set group =>   2
Atom  28H    basis set group =>   2
Atom  29C    basis set group =>   1
Atom  30H    basis set group =>   2
Atom  31H    basis set group =>   2
Atom  32C    basis set group =>   1
Atom  33H    basis set group =>   2
Atom  34C    basis set group =>   1
Atom  35H    basis set group =>   2
Atom  36C    basis set group =>   1
Atom  37H    basis set group =>   2
Atom  38H    basis set group =>   2
Atom  39C    basis set group =>   1
Atom  40H    basis set group =>   2
Atom  41H    basis set group =>   2
Atom  42H    basis set group =>   2
Atom  43C    basis set group =>   1
Atom  44C    basis set group =>   1
Atom  45H    basis set group =>   2
Atom  46H    basis set group =>   2
Atom  47H    basis set group =>   2
Atom  48H    basis set group =>   2
Atom  49C    basis set group =>   1
Atom  50C    basis set group =>   1
Atom  51C    basis set group =>   1
Atom  52H    basis set group =>   2
Atom  53H    basis set group =>   2
Atom  54C    basis set group =>   1
Atom  55C    basis set group =>   1
Atom  56C    basis set group =>   1
Atom  57H    basis set group =>   2
Atom  58H    basis set group =>   2
Atom  59C    basis set group =>   1
Atom  60C    basis set group =>   1
Atom  61H    basis set group =>   2
Atom  62H    basis set group =>   2
Atom  63H    basis set group =>   2
Atom  64H    basis set group =>   2
Atom  65H    basis set group =>   2
Atom  66H    basis set group =>   2
Atom  67H    basis set group =>   2
Atom  68H    basis set group =>   2
Atom  69H    basis set group =>   2
Atom  70H    basis set group =>   2
Atom  71H    basis set group =>   2
Atom  72H    basis set group =>   2

-------------------------
BASIS SET IN INPUT FORMAT
-------------------------

 # Basis set for element : H 
 NewGTO H 
 S 3 
   1      12.2518000000      0.0372173893
   2       1.8687100000      0.2538082070
   3       0.4182080000      0.7973867639
 S 1 
   1       0.1061000000      1.0000000000
 P 2 
   1       9.0000000000      0.0402678705
   2       1.0000000000      0.9880231245
  end;

 # Basis set for element : C 
 NewGTO C 
 S 5 
   1    1243.2000000000      0.0056300977
   2     187.1450000000      0.0419506039
   3      42.5126000000      0.1846643605
   4      11.7393000000      0.4665574214
   5       3.5054800000      0.4482347783
 S 2 
   1       5.3908900000     -0.1481148174
   2       0.4933410000      1.0519817143
 S 1 
   1       0.1497410000      1.0000000000
 P 3 
   1      59.6736000000      0.0113906672
   2       9.1805600000      0.1672414929
   3       1.9365800000      0.9041087436
 P 1 
   1       0.5262960000      1.0000000000
 P 1 
   1       0.1363190000      1.0000000000
 D 1 
   1       0.8000000000      1.0000000000
  end;

 # Basis set for element : O 
 NewGTO O 
 S 5 
   1    2288.6400000000      0.0054511382
   2     344.4160000000      0.0407189228
   3      78.2538000000      0.1813694209
   4      21.7195000000      0.4655368202
   5       6.5590700000      0.4512113212
 S 2 
   1      10.4656000000     -0.1502112012
   2       0.9643510000      1.0528679834
 S 1 
   1       0.2851270000      1.0000000000
 P 3 
   1     110.8840000000      0.0113058003
   2      17.0590000000      0.1699226452
   3       3.6899900000      0.9008060328
 P 1 
   1       0.9929960000      1.0000000000
 P 1 
   1       0.2449240000      1.0000000000
 D 1 
   1       1.0000000000      1.0000000000
  end;

---------------------------------
AUXILIARY/J BASIS SET INFORMATION
---------------------------------
There are 3 groups of distinct atoms

 Group   1 Type C   : 12s5p4d2f1g contracted to 6s4p3d1f1g pattern {711111/2111/211/2/1}
 Group   2 Type H   : 5s2p1d contracted to 3s1p1d pattern {311/2/1}
 Group   3 Type O   : 12s5p4d2f1g contracted to 6s4p3d1f1g pattern {711111/2111/211/2/1}

Atom   0C    basis set group =>   1
Atom   1C    basis set group =>   1
Atom   2C    basis set group =>   1
Atom   3H    basis set group =>   2
Atom   4H    basis set group =>   2
Atom   5C    basis set group =>   1
Atom   6C    basis set group =>   1
Atom   7C    basis set group =>   1
Atom   8H    basis set group =>   2
Atom   9H    basis set group =>   2
Atom  10H    basis set group =>   2
Atom  11H    basis set group =>   2
Atom  12O    basis set group =>   3
Atom  13H    basis set group =>   2
Atom  14C    basis set group =>   1
Atom  15C    basis set group =>   1
Atom  16H    basis set group =>   2
Atom  17H    basis set group =>   2
Atom  18C    basis set group =>   1
Atom  19H    basis set group =>   2
Atom  20C    basis set group =>   1
Atom  21H    basis set group =>   2
Atom  22C    basis set group =>   1
Atom  23C    basis set group =>   1
Atom  24H    basis set group =>   2
Atom  25H    basis set group =>   2
Atom  26C    basis set group =>   1
Atom  27H    basis set group =>   2
Atom  28H    basis set group =>   2
Atom  29C    basis set group =>   1
Atom  30H    basis set group =>   2
Atom  31H    basis set group =>   2
Atom  32C    basis set group =>   1
Atom  33H    basis set group =>   2
Atom  34C    basis set group =>   1
Atom  35H    basis set group =>   2
Atom  36C    basis set group =>   1
Atom  37H    basis set group =>   2
Atom  38H    basis set group =>   2
Atom  39C    basis set group =>   1
Atom  40H    basis set group =>   2
Atom  41H    basis set group =>   2
Atom  42H    basis set group =>   2
Atom  43C    basis set group =>   1
Atom  44C    basis set group =>   1
Atom  45H    basis set group =>   2
Atom  46H    basis set group =>   2
Atom  47H    basis set group =>   2
Atom  48H    basis set group =>   2
Atom  49C    basis set group =>   1
Atom  50C    basis set group =>   1
Atom  51C    basis set group =>   1
Atom  52H    basis set group =>   2
Atom  53H    basis set group =>   2
Atom  54C    basis set group =>   1
Atom  55C    basis set group =>   1
Atom  56C    basis set group =>   1
Atom  57H    basis set group =>   2
Atom  58H    basis set group =>   2
Atom  59C    basis set group =>   1
Atom  60C    basis set group =>   1
Atom  61H    basis set group =>   2
Atom  62H    basis set group =>   2
Atom  63H    basis set group =>   2
Atom  64H    basis set group =>   2
Atom  65H    basis set group =>   2
Atom  66H    basis set group =>   2
Atom  67H    basis set group =>   2
Atom  68H    basis set group =>   2
Atom  69H    basis set group =>   2
Atom  70H    basis set group =>   2
Atom  71H    basis set group =>   2
Atom  72H    basis set group =>   2

-------------------------------------
AUXILIARY/J BASIS SET IN INPUT FORMAT
-------------------------------------

 # Auxiliary/J basis set for element : H 
 NewAuxJGTO H 
 S 3 
   1      15.6752927000      0.1007184237
   2       3.6063578000      0.3404257499
   3       1.2080016000      0.6491996172
 S 1 
   1       0.4726794000      1.0000000000
 S 1 
   1       0.2018100000      1.0000000000
 P 2 
   1       2.0281365000      0.5596620919
   2       0.5358730000      0.5596620919
 D 1 
   1       2.2165124000      1.0000000000
  end;

 # Auxiliary/J basis set for element : C 
 NewAuxJGTO C 
 S 7 
   1    1861.0916331000      0.0134602335
   2     642.9939764000      0.0299160374
   3     235.1105725000      0.1008649584
   4      90.7028894000      0.2370970548
   5      36.7794552000      0.3924037254
   6      15.6046273000      0.3195862154
   7       6.8907294000      0.0530104441
 S 1 
   1       3.1478850000     -1.0000000000
 S 1 
   1       1.4777287000      1.0000000000
 S 1 
   1       0.7076466000      1.0000000000
 S 1 
   1       0.3430122000      1.0000000000
 S 1 
   1       0.1669453000      1.0000000000
 P 2 
   1      13.5472892000     -0.6769313712
   2       5.4669419000     -0.3779500978
 P 1 
   1       2.1751721000      1.0000000000
 P 1 
   1       0.8582194000      1.0000000000
 P 1 
   1       0.3376720000      1.0000000000
 D 2 
   1       5.9287253000     -0.3533329857
   2       1.9809209000     -0.7456525731
 D 1 
   1       0.8055417000     -1.0000000000
 D 1 
   1       0.3531244000     -1.0000000000
 F 2 
   1       1.6755626000      0.6311076882
   2       0.5997536000      0.4968166032
 G 1 
   1       1.0024600000     -1.0000000000
  end;

 # Auxiliary/J basis set for element : O 
 NewAuxJGTO O 
 S 7 
   1    2876.8216605000      0.0168151159
   2    1004.7443032000      0.0340137548
   3     369.7579954000      0.1194951309
   4     142.9442404000      0.2664627624
   5      57.8366425000      0.4202764046
   6      24.3864983000      0.2765077335
   7      10.6622662000      0.0057008815
 S 1 
   1       4.8070437000     -1.0000000000
 S 1 
   1       2.2210770000      1.0000000000
 S 1 
   1       1.0447795000      1.0000000000
 S 1 
   1       0.4968425000      1.0000000000
 S 1 
   1       0.2371384000      1.0000000000
 P 2 
   1      64.2613382000     -0.2731534179
   2      16.3006076000     -0.8168011598
 P 1 
   1       4.3550542000      1.0000000000
 P 1 
   1       1.2019554000      1.0000000000
 P 1 
   1       0.3354196000      1.0000000000
 D 2 
   1       9.2146611000     -0.4661230638
   2       2.8435251000     -0.6600908911
 D 1 
   1       0.9955759000     -1.0000000000
 D 1 
   1       0.3649441000     -1.0000000000
 F 2 
   1       2.6420115000      0.5931563945
   2       0.7345613000      0.5931563945
 G 1 
   1       1.3931000000     -1.0000000000
  end;



           ************************************************************
           *        Program running with 4 parallel MPI-processes     *
           *              working on a common directory               *
           ************************************************************
------------------------------------------------------------------------------
                           ORCA GTO INTEGRAL CALCULATION
                           -- RI-GTO INTEGRALS CHOSEN --
------------------------------------------------------------------------------
------------------------------------------------------------------------------
                   ___                                                        
                  /   \      - P O W E R E D   B Y -                         
                 /     \                                                     
                 |  |  |   _    _      __       _____    __    __             
                 |  |  |  | |  | |    /  \     |  _  \  |  |  /  |          
                  \  \/   | |  | |   /    \    | | | |  |  | /  /          
                 / \  \   | |__| |  /  /\  \   | |_| |  |  |/  /          
                |  |  |   |  __  | /  /__\  \  |    /   |      \           
                |  |  |   | |  | | |   __   |  |    \   |  |\   \          
                \     /   | |  | | |  |  |  |  | |\  \  |  | \   \       
                 \___/    |_|  |_| |__|  |__|  |_| \__\ |__|  \__/        
                                                                              
                      - O R C A' S   B I G   F R I E N D -                    
                                      &                                       
                       - I N T E G R A L  F E E D E R -                       
                                                                              
 v1 FN, 2020, v2 2021                                                         
------------------------------------------------------------------------------


Reading SHARK input file inpS.SHARKINP.tmp ... ok
----------------------
SHARK INTEGRAL PACKAGE
----------------------

Number of atoms                             ...     73
Number of basis functions                   ...    713
Number of shells                            ...    335
Maximum angular momentum                    ...      2
Integral batch strategy                     ... SHARK/LIBINT Hybrid
RI-J (if used) integral strategy            ... SPLIT-RIJ (Revised 2003 algorithm where possible)
Printlevel                                  ...      1
Contraction scheme used                     ... SEGMENTED contraction
Coulomb Range Separation                    ... NOT USED
Exchange Range Separation                   ... NOT USED
Finite Nucleus Model                        ... NOT USED
Auxiliary Coulomb fitting basis             ... AVAILABLE
   # of basis functions in Aux-J            ...   1905
   # of shells in Aux-J                     ...    655
   Maximum angular momentum in Aux-J        ...      4
Auxiliary J/K fitting basis                 ... NOT available
Auxiliary Correlation fitting basis         ... NOT available
Auxiliary 'external' fitting basis          ... NOT available
Integral threshold                          ...     3.000000e-11
Primitive cut-off                           ...     1.000000e-12
Primitive pair pre-selection threshold      ...     1.000000e-12

Calculating pre-screening integrals         ... done (  0.1 sec) Dimension = 335
Organizing shell pair data                  ... done (  0.2 sec)
Shell pair information
Total number of shell pairs                 ...     56280
Shell pairs after pre-screening             ...     31239
Total number of primitive shell pairs       ...    225367
Primitive shell pairs kept                  ...     73784
          la=0 lb=0:   9525 shell pairs
          la=1 lb=0:  12836 shell pairs
          la=1 lb=1:   4201 shell pairs
          la=2 lb=0:   2732 shell pairs
          la=2 lb=1:   1752 shell pairs
          la=2 lb=2:    193 shell pairs

Calculating one electron integrals          ... done (  0.1 sec)
Calculating RI/J V-Matrix + Cholesky decomp.... done (  0.2 sec)
Calculating Nuclear repulsion               ... done (  0.0 sec) ENN=   2768.200775201832 Eh

SHARK setup successfully completed in   0.8 seconds

Maximum memory used throughout the entire GTOINT-calculation: 60.9 MB


           ************************************************************
           *        Program running with 4 parallel MPI-processes     *
           *              working on a common directory               *
           ************************************************************
-------------------------------------------------------------------------------
                                 ORCA SCF
-------------------------------------------------------------------------------

------------
SCF SETTINGS
------------
Hamiltonian:
 Density Functional     Method          .... DFT(GTOs)
 Exchange Functional    Exchange        .... revTPSS
 Correlation Functional Correlation     .... revTPSS
 LDA part of GGA corr.  LDAOpt          .... PW91-LDA
 Gradients option       PostSCFGGA      .... off
   Density functional embedding theory  .... OFF
 RI-approximation to the Coulomb term is turned on
   Number of AuxJ basis functions       .... 1905


General Settings:
 Integral files         IntName         .... inpS
 Hartree-Fock type      HFTyp           .... RHF
 Total Charge           Charge          ....    0
 Multiplicity           Mult            ....    1
 Number of Electrons    NEL             ....  220
 Basis Dimension        Dim             ....  713
 Nuclear Repulsion      ENuc            ....   2768.2007752018 Eh

Convergence Acceleration:
 DIIS                   CNVDIIS         .... on
   Start iteration      DIISMaxIt       ....    12
   Startup error        DIISStart       ....  0.200000
   # of expansion vecs  DIISMaxEq       ....     5
   Bias factor          DIISBfac        ....   1.050
   Max. coefficient     DIISMaxC        ....  10.000
 Trust-Rad. Augm. Hess. CNVTRAH         .... auto
   Auto Start mean grad. ratio tolernc. ....  1.125000
   Auto Start start iteration           ....    20
   Auto Start num. interpolation iter.  ....    10
   Max. Number of Micro iterations      ....    16
   Max. Number of Macro iterations      .... Maxiter - #DIIS iter
   Number of Davidson start vectors     ....     2
   Converg. threshold I  (grad. norm)   ....   1.000e-04
   Converg. threshold II (energy diff.) ....   1.000e-07
   Grad. Scal. Fac. for Micro threshold ....   0.100
   Minimum threshold for Micro iter.    ....   0.010
   NR start threshold (gradient norm)   ....   0.001
   Initial trust radius                 ....   0.400
   Minimum AH scaling param. (alpha)    ....   1.000
   Maximum AH scaling param. (alpha)    .... 1000.000
   Orbital update algorithm             .... Taylor
   White noise on init. David. guess    .... on
   Maximum white noise                  ....   0.010
   Quad. conv. algorithm                .... NR
 SOSCF                  CNVSOSCF        .... off
 Level Shifting         CNVShift        .... on
   Level shift para.    LevelShift      ....    0.2500
   Turn off err/grad.   ShiftErr        ....    0.0010
 Zerner damping         CNVZerner       .... off
 Static damping         CNVDamp         .... on
   Fraction old density DampFac         ....    0.7000
   Max. Damping (<1)    DampMax         ....    0.9800
   Min. Damping (>=0)   DampMin         ....    0.0000
   Turn off err/grad.   DampErr         ....    0.1000
 Fernandez-Rico         CNVRico         .... off

SCF Procedure:
 Maximum # iterations   MaxIter         ....   125
 SCF integral mode      SCFMode         .... Direct
   Integral package                     .... SHARK and LIBINT hybrid scheme
 Reset frequency        DirectResetFreq ....    20
 Integral Threshold     Thresh          ....  3.000e-11 Eh
 Primitive CutOff       TCut            ....  1.000e-12 Eh

Convergence Tolerance:
 Convergence Check Mode ConvCheckMode   .... Total+1el-Energy
 Convergence forced     ConvForced      .... 0
 Energy Change          TolE            ....  1.000e-07 Eh
 1-El. energy change                    ....  1.000e-04 Eh
 DIIS Error             TolErr          ....  1.000e-07


Diagonalization of the overlap matrix:
Smallest eigenvalue                        ... 5.207e-04
Time for diagonalization                   ...    0.082 sec
Threshold for overlap eigenvalues          ... 1.000e-08
Number of eigenvalues below threshold      ... 0
Time for construction of square roots      ...    0.063 sec
Total time needed                          ...    0.147 sec

Time for model grid setup =    0.767 sec

------------------------------
INITIAL GUESS: MODEL POTENTIAL
------------------------------
Loading Hartree-Fock densities                     ... done
Calculating cut-offs                               ... done
Initializing the effective Hamiltonian             ... done
Setting up the integral package (SHARK)            ... done
Starting the Coulomb interaction                   ... done (   0.8 sec)
Reading the grid                                   ... done
Mapping shells                                     ... done
Starting the XC term evaluation                    ... done (   0.4 sec)
  promolecular density results
     # of electrons  =    219.972049324
     EX              =   -164.433338893
     EC              =     -7.328586290
     EX+EC           =   -171.761925184
Transforming the Hamiltonian                       ... done (   0.1 sec)
Diagonalizing the Hamiltonian                      ... done (   0.1 sec)
Back transforming the eigenvectors                 ... done (   0.0 sec)
Now organizing SCF variables                       ... done
                      ------------------
                      INITIAL GUESS DONE (   2.1 sec)
                      ------------------
-------------------
DFT GRID GENERATION
-------------------

General Integration Accuracy     IntAcc      ... 4.388
Radial Grid Type                 RadialGrid  ... OptM3 with GC (2021)
Angular Grid (max. ang.)         AngularGrid ... 4 (Lebedev-302)
Angular grid pruning method      GridPruning ... 4 (adaptive)
Weight generation scheme         WeightScheme... Becke
Basis function cutoff            BFCut       ... 1.0000e-11
Integration weight cutoff        WCut        ... 1.0000e-14
Angular grids for H and He will be reduced by one unit
Partially contracted basis set               ... off
Rotationally invariant grid construction     ... off

Total number of grid points                  ...   309853
Total number of batches                      ...     4878
Average number of points per batch           ...       63
Average number of grid points per atom       ...     4245
Time for grid setup =    2.955 sec


--------------------
CPCM SOLVATION MODEL
--------------------
CPCM parameters:
  Epsilon                                         ...       4.9000
  Refrac                                          ...       1.4500
  Rsolv                                           ...       1.3000
  Surface type                                    ... GAUSSIAN VDW
  Epsilon function type                           ...         CPCM
Radii:
 Radius for C  used is    3.8550 Bohr (=   2.0400 Ang.)
 Radius for H  used is    2.4944 Bohr (=   1.3200 Ang.)
 Radius for O  used is    3.4469 Bohr (=   1.8240 Ang.)
Calculating surface                               ...        done! (  0.0s)
GEPOL surface points                              ...         3613
GEPOL Volume                                      ...    3595.8488
GEPOL Surface-area                                ...    1776.3356
Calculating surface distance matrix               ...        done! (  0.1s)
Performing Cholesky decomposition & store         ...        done! (  0.5s)
Overall time for CPCM initialization              ...                 0.6s
--------------
SCF ITERATIONS
--------------
ITER       Energy         Delta-E        Max-DP      RMS-DP      [F,P]     Damp
               ***  Starting incremental Fock matrix formation  ***

  HOMO= 109 E= -1.921 eV LUMO=  7.769 eV gap=   9.691 eV
  0  -1167.5220378833   0.000000000000 0.05502874  0.00083092  0.2632468 0.7000

  HOMO= 109 E= -3.437 eV LUMO=  6.666 eV gap=  10.103 eV
  1  -1167.8965099193  -0.374472035972 0.02897176  0.00061268  0.1016125 0.7000
                               ***Turning on DIIS***

  HOMO= 109 E= -4.413 eV LUMO=  5.782 eV gap=  10.195 eV
  2  -1168.0427995901  -0.146289670827 0.04856144  0.00100955  0.0318014 0.0000

  HOMO= 109 E= -5.033 eV LUMO=  5.199 eV gap=  10.232 eV
  3  -1168.2409859764  -0.198186386270 0.02318916  0.00047294  0.0538994 0.0000

  HOMO= 109 E= -5.057 eV LUMO=  5.174 eV gap=  10.232 eV
  4  -1168.3078364655  -0.066850489169 0.00759627  0.00015109  0.0103805 0.0000

  HOMO= 109 E= -5.011 eV LUMO=  5.228 eV gap=  10.239 eV
  5  -1168.3108703784  -0.003033912893 0.00341651  0.00005681  0.0101402 0.0000

  HOMO= 109 E= -4.992 eV LUMO=  5.244 eV gap=  10.236 eV
  6  -1168.3111339951  -0.000263616660 0.00127446  0.00001902  0.0031055 0.0000

  HOMO= 109 E= -4.994 eV LUMO= -1.561 eV gap=   3.433 eV
  7  -1168.3111542902  -0.000020295153 0.00071239  0.00001151  0.0004555 0.0000

  HOMO= 109 E= -4.992 eV LUMO= -1.559 eV gap=   3.433 eV
  8  -1168.3111570886  -0.000002798325 0.00026731  0.00000296  0.0003768 0.0000

  HOMO= 109 E= -4.990 eV LUMO= -1.557 eV gap=   3.433 eV
  9  -1168.3111577768  -0.000000688264 0.00016225  0.00000150  0.0002539 0.0000

  HOMO= 109 E= -4.990 eV LUMO= -1.557 eV gap=   3.433 eV
 10  -1168.3111580348  -0.000000257979 0.00006281  0.00000068  0.0001024 0.0000

  HOMO= 109 E= -4.991 eV LUMO= -1.557 eV gap=   3.433 eV
 11  -1168.3111580576  -0.000000022789 0.00002387  0.00000025  0.0000269 0.0000

  HOMO= 109 E= -4.990 eV LUMO= -1.557 eV gap=   3.433 eV
 12  -1168.3111580468   0.000000010846 0.00001160  0.00000012  0.0000183 0.0000

  HOMO= 109 E= -4.990 eV LUMO= -1.557 eV gap=   3.433 eV
 13  -1168.3111580756  -0.000000028884 0.00000575  0.00000005  0.0000078 0.0000
                 **** Energy Check signals convergence ****

               *****************************************************
               *                     SUCCESS                       *
               *           SCF CONVERGED AFTER  14 CYCLES          *
               *****************************************************


----------------
TOTAL SCF ENERGY
----------------

Total Energy       :        -1168.31115806 Eh          -31791.36285 eV

Components:
Nuclear Repulsion  :         2768.20077520 Eh           75326.57262 eV
Electronic Energy  :        -3936.51193326 Eh         -107117.93547 eV
One Electron Energy:        -7082.53077613 Eh         -192725.46039 eV
Two Electron Energy:         3146.01884286 Eh           85607.52492 eV
CPCM Dielectric    :           -0.00906393 Eh              -0.24664 eV

Virial components:
Potential Energy   :        -2330.40817678 Eh          -63413.63038 eV
Kinetic Energy     :         1162.09701872 Eh           31622.26752 eV
Virial Ratio       :            2.00534735


DFT components:
N(Alpha)           :      110.000150515295 electrons
N(Beta)            :      110.000150515295 electrons
N(Total)           :      220.000301030589 electrons
E(X)               :     -169.584792069614 Eh       
E(C)               :       -7.444925829937 Eh       
E(XC)              :     -177.029717899551 Eh       
DFET-embed. en.    :        0.000000000000 Eh       
CPCM Solvation Model Properties:
Surface-charge          :           -0.04558847
Charge-correction       :           -0.00006864 Eh              -0.00187 eV
Free-energy (cav+disp)  :  This term is not implemented in the current solvation scheme

---------------
SCF CONVERGENCE
---------------

  Last Energy change         ...    1.3413e-08  Tolerance :   1.0000e-07
  Last MAX-Density change    ...    2.7843e-06  Tolerance :   1.0000e-05
  Last RMS-Density change    ...    2.5960e-08  Tolerance :   1.0000e-06
  Last DIIS Error            ...    3.6054e-06  Tolerance :   1.0000e-07

             **** THE GBW FILE WAS UPDATED (inpS.gbw) ****
             **** DENSITY inpS.scfp WAS UPDATED ****
             **** ENERGY FILE WAS UPDATED (inpS.en.tmp) ****
             **** THE GBW FILE WAS UPDATED (inpS.gbw) ****
             **** DENSITY inpS.scfp WAS UPDATED ****
----------------
ORBITAL ENERGIES
----------------

  NO   OCC          E(Eh)            E(eV) 
   0   2.0000     -18.903780      -514.3980 
   1   2.0000     -10.057239      -273.6714 
   2   2.0000     -10.016548      -272.5641 
   3   2.0000     -10.014732      -272.5147 
   4   2.0000     -10.012591      -272.4564 
   5   2.0000     -10.012297      -272.4484 
   6   2.0000     -10.011998      -272.4403 
   7   2.0000     -10.011967      -272.4395 
   8   2.0000     -10.010079      -272.3881 
   9   2.0000     -10.009983      -272.3855 
  10   2.0000     -10.009738      -272.3788 
  11   2.0000     -10.007729      -272.3242 
  12   2.0000     -10.007548      -272.3192 
  13   2.0000     -10.007391      -272.3149 
  14   2.0000     -10.006834      -272.2998 
  15   2.0000     -10.006346      -272.2865 
  16   2.0000     -10.005110      -272.2529 
  17   2.0000     -10.001115      -272.1442 
  18   2.0000     -10.000816      -272.1360 
  19   2.0000     -10.000806      -272.1358 
  20   2.0000     -10.000381      -272.1242 
  21   2.0000      -9.999761      -272.1073 
  22   2.0000      -9.996982      -272.0317 
  23   2.0000      -9.996268      -272.0123 
  24   2.0000      -9.996064      -272.0067 
  25   2.0000      -9.996017      -272.0054 
  26   2.0000      -9.995811      -271.9999 
  27   2.0000      -9.995798      -271.9995 
  28   2.0000      -9.993831      -271.9460 
  29   2.0000      -0.954465       -25.9723 
  30   2.0000      -0.808260       -21.9939 
  31   2.0000      -0.789550       -21.4847 
  32   2.0000      -0.770472       -20.9656 
  33   2.0000      -0.757272       -20.6064 
  34   2.0000      -0.734704       -19.9923 
  35   2.0000      -0.728473       -19.8227 
  36   2.0000      -0.709060       -19.2945 
  37   2.0000      -0.708941       -19.2913 
  38   2.0000      -0.693006       -18.8577 
  39   2.0000      -0.676550       -18.4099 
  40   2.0000      -0.658689       -17.9238 
  41   2.0000      -0.649634       -17.6774 
  42   2.0000      -0.636902       -17.3310 
  43   2.0000      -0.628572       -17.1043 
  44   2.0000      -0.625517       -17.0212 
  45   2.0000      -0.620052       -16.8725 
  46   2.0000      -0.599328       -16.3085 
  47   2.0000      -0.591174       -16.0867 
  48   2.0000      -0.561866       -15.2891 
  49   2.0000      -0.548029       -14.9126 
  50   2.0000      -0.541921       -14.7464 
  51   2.0000      -0.535792       -14.5796 
  52   2.0000      -0.527109       -14.3434 
  53   2.0000      -0.502721       -13.6797 
  54   2.0000      -0.487580       -13.2677 
  55   2.0000      -0.474890       -12.9224 
  56   2.0000      -0.469646       -12.7797 
  57   2.0000      -0.463600       -12.6152 
  58   2.0000      -0.451334       -12.2814 
  59   2.0000      -0.446274       -12.1437 
  60   2.0000      -0.437644       -11.9089 
  61   2.0000      -0.431245       -11.7348 
  62   2.0000      -0.426248       -11.5988 
  63   2.0000      -0.417109       -11.3501 
  64   2.0000      -0.413993       -11.2653 
  65   2.0000      -0.405435       -11.0325 
  66   2.0000      -0.402566       -10.9544 
  67   2.0000      -0.401580       -10.9275 
  68   2.0000      -0.397882       -10.8269 
  69   2.0000      -0.395036       -10.7495 
  70   2.0000      -0.389644       -10.6027 
  71   2.0000      -0.381657       -10.3854 
  72   2.0000      -0.380279       -10.3479 
  73   2.0000      -0.375604       -10.2207 
  74   2.0000      -0.371270       -10.1028 
  75   2.0000      -0.366217        -9.9653 
  76   2.0000      -0.359378        -9.7792 
  77   2.0000      -0.359006        -9.7691 
  78   2.0000      -0.356227        -9.6934 
  79   2.0000      -0.350373        -9.5341 
  80   2.0000      -0.347356        -9.4520 
  81   2.0000      -0.345005        -9.3881 
  82   2.0000      -0.341822        -9.3014 
  83   2.0000      -0.336444        -9.1551 
  84   2.0000      -0.326640        -8.8883 
  85   2.0000      -0.323924        -8.8144 
  86   2.0000      -0.322416        -8.7734 
  87   2.0000      -0.319816        -8.7026 
  88   2.0000      -0.315447        -8.5838 
  89   2.0000      -0.311000        -8.4627 
  90   2.0000      -0.308510        -8.3950 
  91   2.0000      -0.306018        -8.3272 
  92   2.0000      -0.298999        -8.1362 
  93   2.0000      -0.297717        -8.1013 
  94   2.0000      -0.291058        -7.9201 
  95   2.0000      -0.289241        -7.8707 
  96   2.0000      -0.286084        -7.7847 
  97   2.0000      -0.285583        -7.7711 
  98   2.0000      -0.282674        -7.6920 
  99   2.0000      -0.278491        -7.5781 
 100   2.0000      -0.275497        -7.4967 
 101   2.0000      -0.274946        -7.4817 
 102   2.0000      -0.271932        -7.3996 
 103   2.0000      -0.269493        -7.3333 
 104   2.0000      -0.260356        -7.0846 
 105   2.0000      -0.251603        -6.8465 
 106   2.0000      -0.230369        -6.2687 
 107   2.0000      -0.228692        -6.2230 
 108   2.0000      -0.212404        -5.7798 
 109   2.0000      -0.183395        -4.9904 
 110   0.0000      -0.057228        -1.5572 
 111   0.0000      -0.014211        -0.3867 
 112   0.0000      -0.002708        -0.0737 
 113   0.0000       0.029161         0.7935 
 114   0.0000       0.036979         1.0063 
 115   0.0000       0.041649         1.1333 
 116   0.0000       0.044698         1.2163 
 117   0.0000       0.050595         1.3768 
 118   0.0000       0.051974         1.4143 
 119   0.0000       0.056351         1.5334 
 120   0.0000       0.060547         1.6476 
 121   0.0000       0.063534         1.7289 
 122   0.0000       0.070217         1.9107 
 123   0.0000       0.073093         1.9890 
 124   0.0000       0.078642         2.1400 
 125   0.0000       0.080406         2.1880 
 126   0.0000       0.082299         2.2395 
 127   0.0000       0.085692         2.3318 
 128   0.0000       0.089053         2.4233 
 129   0.0000       0.091735         2.4962 
 130   0.0000       0.096809         2.6343 
 131   0.0000       0.100383         2.7316 
 132   0.0000       0.103339         2.8120 
 133   0.0000       0.105614         2.8739 
 134   0.0000       0.108196         2.9442 
 135   0.0000       0.110561         3.0085 
 136   0.0000       0.113423         3.0864 
 137   0.0000       0.116510         3.1704 
 138   0.0000       0.121189         3.2977 
 139   0.0000       0.125290         3.4093 
 140   0.0000       0.127183         3.4608 
 141   0.0000       0.128567         3.4985 
 142   0.0000       0.129954         3.5362 
 143   0.0000       0.133720         3.6387 
 144   0.0000       0.138826         3.7777 
 145   0.0000       0.140149         3.8137 
 146   0.0000       0.142004         3.8641 
 147   0.0000       0.145640         3.9631 
 148   0.0000       0.149155         4.0587 
 149   0.0000       0.150758         4.1023 
 150   0.0000       0.155636         4.2351 
 151   0.0000       0.157143         4.2761 
 152   0.0000       0.161503         4.3947 
 153   0.0000       0.163941         4.4610 
 154   0.0000       0.169441         4.6107 
 155   0.0000       0.172479         4.6934 
 156   0.0000       0.176827         4.8117 
 157   0.0000       0.177924         4.8416 
 158   0.0000       0.179473         4.8837 
 159   0.0000       0.183107         4.9826 
 160   0.0000       0.187496         5.1020 
 161   0.0000       0.191799         5.2191 
 162   0.0000       0.195064         5.3080 
 163   0.0000       0.197638         5.3780 
 164   0.0000       0.199541         5.4298 
 165   0.0000       0.205367         5.5883 
 166   0.0000       0.206437         5.6174 
 167   0.0000       0.209202         5.6927 
 168   0.0000       0.211332         5.7506 
 169   0.0000       0.215480         5.8635 
 170   0.0000       0.219062         5.9610 
 171   0.0000       0.223407         6.0792 
 172   0.0000       0.230770         6.2796 
 173   0.0000       0.232509         6.3269 
 174   0.0000       0.239720         6.5231 
 175   0.0000       0.242357         6.5949 
 176   0.0000       0.247822         6.7436 
 177   0.0000       0.257967         7.0196 
 178   0.0000       0.263117         7.1598 
 179   0.0000       0.265232         7.2173 
 180   0.0000       0.273948         7.4545 
 181   0.0000       0.285977         7.7818 
 182   0.0000       0.289180         7.8690 
 183   0.0000       0.294893         8.0244 
 184   0.0000       0.301484         8.2038 
 185   0.0000       0.319315         8.6890 
 186   0.0000       0.328618         8.9422 
 187   0.0000       0.335700         9.1349 
 188   0.0000       0.345961         9.4141 
 189   0.0000       0.353808         9.6276 
 190   0.0000       0.360046         9.7973 
 191   0.0000       0.363104         9.8806 
 192   0.0000       0.370374        10.0784 
 193   0.0000       0.376624        10.2484 
 194   0.0000       0.378633        10.3031 
 195   0.0000       0.382324        10.4036 
 196   0.0000       0.382449        10.4070 
 197   0.0000       0.386143        10.5075 
 198   0.0000       0.395012        10.7488 
 199   0.0000       0.400190        10.8897 
 200   0.0000       0.401914        10.9366 
 201   0.0000       0.405907        11.0453 
 202   0.0000       0.413381        11.2487 
 203   0.0000       0.421359        11.4658 
 204   0.0000       0.424343        11.5470 
 205   0.0000       0.425761        11.5856 
 206   0.0000       0.433510        11.7964 
 207   0.0000       0.447618        12.1803 
 208   0.0000       0.451995        12.2994 
 209   0.0000       0.454138        12.3577 
 210   0.0000       0.460856        12.5405 
 211   0.0000       0.466545        12.6953 
 212   0.0000       0.469400        12.7730 
 213   0.0000       0.475142        12.9293 
 214   0.0000       0.477999        13.0070 
 215   0.0000       0.482360        13.1257 
 216   0.0000       0.487210        13.2576 
 217   0.0000       0.491291        13.3687 
 218   0.0000       0.495677        13.4881 
 219   0.0000       0.499758        13.5991 
 220   0.0000       0.504606        13.7310 
 221   0.0000       0.510813        13.8999 
 222   0.0000       0.515994        14.0409 
 223   0.0000       0.517789        14.0898 
 224   0.0000       0.524196        14.2641 
 225   0.0000       0.526759        14.3338 
 226   0.0000       0.532802        14.4983 
 227   0.0000       0.539210        14.6726 
 228   0.0000       0.541435        14.7332 
 229   0.0000       0.543495        14.7893 
 230   0.0000       0.551444        15.0056 
 231   0.0000       0.554495        15.0886 
 232   0.0000       0.558405        15.1950 
 233   0.0000       0.559932        15.2365 
 234   0.0000       0.561461        15.2781 
 235   0.0000       0.569887        15.5074 
 236   0.0000       0.572147        15.5689 
 237   0.0000       0.574722        15.6390 
 238   0.0000       0.576620        15.6906 
 239   0.0000       0.578979        15.7548 
 240   0.0000       0.580739        15.8027 
 241   0.0000       0.585279        15.9263 
 242   0.0000       0.587209        15.9788 
 243   0.0000       0.589024        16.0282 
 244   0.0000       0.593390        16.1470 
 245   0.0000       0.595661        16.2088 
 246   0.0000       0.599199        16.3050 
 247   0.0000       0.601874        16.3778 
 248   0.0000       0.602309        16.3897 
 249   0.0000       0.603901        16.4330 
 250   0.0000       0.605494        16.4763 
 251   0.0000       0.607828        16.5399 
 252   0.0000       0.611411        16.6374 
 253   0.0000       0.613961        16.7067 
 254   0.0000       0.614930        16.7331 
 255   0.0000       0.616670        16.7805 
 256   0.0000       0.620848        16.8941 
 257   0.0000       0.625132        17.0107 
 258   0.0000       0.628296        17.0968 
 259   0.0000       0.629724        17.1357 
 260   0.0000       0.634544        17.2668 
 261   0.0000       0.636342        17.3157 
 262   0.0000       0.641859        17.4659 
 263   0.0000       0.643999        17.5241 
 264   0.0000       0.645353        17.5610 
 265   0.0000       0.648176        17.6378 
 266   0.0000       0.650197        17.6928 
 267   0.0000       0.651994        17.7416 
 268   0.0000       0.657255        17.8848 
 269   0.0000       0.658999        17.9323 
 270   0.0000       0.662899        18.0384 
 271   0.0000       0.667811        18.1721 
 272   0.0000       0.672350        18.2956 
 273   0.0000       0.674778        18.3617 
 274   0.0000       0.675768        18.3886 
 275   0.0000       0.678390        18.4599 
 276   0.0000       0.682316        18.5668 
 277   0.0000       0.684298        18.6207 
 278   0.0000       0.688198        18.7268 
 279   0.0000       0.692676        18.8487 
 280   0.0000       0.693386        18.8680 
 281   0.0000       0.699686        19.0394 
 282   0.0000       0.703386        19.1401 
 283   0.0000       0.709708        19.3121 
 284   0.0000       0.710310        19.3285 
 285   0.0000       0.714811        19.4510 
 286   0.0000       0.719559        19.5802 
 287   0.0000       0.728866        19.8335 
 288   0.0000       0.731256        19.8985 
 289   0.0000       0.734975        19.9997 
 290   0.0000       0.742049        20.1922 
 291   0.0000       0.746216        20.3056 
 292   0.0000       0.751132        20.4393 
 293   0.0000       0.757412        20.6102 
 294   0.0000       0.761485        20.7211 
 295   0.0000       0.766931        20.8692 
 296   0.0000       0.772713        21.0266 
 297   0.0000       0.780249        21.2316 
 298   0.0000       0.784066        21.3355 
 299   0.0000       0.791924        21.5493 
 300   0.0000       0.803714        21.8702 
 301   0.0000       0.806534        21.9469 
 302   0.0000       0.812019        22.0962 
 303   0.0000       0.813893        22.1472 
 304   0.0000       0.821978        22.3672 
 305   0.0000       0.860724        23.4215 
 306   0.0000       0.864757        23.5312 
 307   0.0000       0.888761        24.1844 
 308   0.0000       0.897040        24.4097 
 309   0.0000       0.904156        24.6033 
 310   0.0000       0.927463        25.2375 
 311   0.0000       0.934349        25.4249 
 312   0.0000       0.949248        25.8304 
 313   0.0000       0.962118        26.1806 
 314   0.0000       0.976387        26.5688 
 315   0.0000       0.990223        26.9453 
 316   0.0000       1.003409        27.3041 
 317   0.0000       1.022397        27.8208 
 318   0.0000       1.026706        27.9381 
 319   0.0000       1.038209        28.2511 
 320   0.0000       1.049813        28.5669 
 321   0.0000       1.061143        28.8752 
 322   0.0000       1.077013        29.3070 
 323   0.0000       1.090389        29.6710 
 324   0.0000       1.103234        30.0205 
 325   0.0000       1.110638        30.2220 
 326   0.0000       1.140430        31.0327 
 327   0.0000       1.152383        31.3579 
 328   0.0000       1.170347        31.8468 
 329   0.0000       1.175455        31.9858 
 330   0.0000       1.187884        32.3240 
 331   0.0000       1.208633        32.8886 
 332   0.0000       1.232396        33.5352 
 333   0.0000       1.248558        33.9750 
 334   0.0000       1.253814        34.1180 
 335   0.0000       1.266019        34.4501 
 336   0.0000       1.278824        34.7986 
 337   0.0000       1.294407        35.2226 
 338   0.0000       1.297973        35.3196 
 339   0.0000       1.311743        35.6943 
 340   0.0000       1.318285        35.8724 
 341   0.0000       1.333806        36.2947 
 342   0.0000       1.343372        36.5550 
 343   0.0000       1.354922        36.8693 
 344   0.0000       1.361579        37.0504 
 345   0.0000       1.368675        37.2435 
 346   0.0000       1.374778        37.4096 
 347   0.0000       1.384619        37.6774 
 348   0.0000       1.399504        38.0824 
 349   0.0000       1.414621        38.4938 
 350   0.0000       1.425489        38.7895 
 351   0.0000       1.428042        38.8590 
 352   0.0000       1.439461        39.1697 
 353   0.0000       1.452102        39.5137 
 354   0.0000       1.459250        39.7082 
 355   0.0000       1.469559        39.9887 
 356   0.0000       1.474728        40.1294 
 357   0.0000       1.491875        40.5960 
 358   0.0000       1.503016        40.8992 
 359   0.0000       1.508766        41.0556 
 360   0.0000       1.521916        41.4134 
 361   0.0000       1.526709        41.5439 
 362   0.0000       1.527317        41.5604 
 363   0.0000       1.539393        41.8890 
 364   0.0000       1.550535        42.1922 
 365   0.0000       1.559720        42.4421 
 366   0.0000       1.579444        42.9788 
 367   0.0000       1.588630        43.2288 
 368   0.0000       1.597934        43.4820 
 369   0.0000       1.603699        43.6389 
 370   0.0000       1.616713        43.9930 
 371   0.0000       1.622360        44.1467 
 372   0.0000       1.628811        44.3222 
 373   0.0000       1.643219        44.7143 
 374   0.0000       1.651828        44.9485 
 375   0.0000       1.658651        45.1342 
 376   0.0000       1.667833        45.3840 
 377   0.0000       1.672455        45.5098 
 378   0.0000       1.679848        45.7110 
 379   0.0000       1.683354        45.8064 
 380   0.0000       1.688107        45.9357 
 381   0.0000       1.691127        46.0179 
 382   0.0000       1.701537        46.3012 
 383   0.0000       1.712624        46.6029 
 384   0.0000       1.713361        46.6229 
 385   0.0000       1.716182        46.6997 
 386   0.0000       1.718297        46.7572 
 387   0.0000       1.727826        47.0165 
 388   0.0000       1.732015        47.1305 
 389   0.0000       1.739380        47.3309 
 390   0.0000       1.747868        47.5619 
 391   0.0000       1.749523        47.6070 
 392   0.0000       1.755383        47.7664 
 393   0.0000       1.762759        47.9671 
 394   0.0000       1.769158        48.1412 
 395   0.0000       1.770219        48.1701 
 396   0.0000       1.777861        48.3780 
 397   0.0000       1.784981        48.5718 
 398   0.0000       1.786103        48.6023 
 399   0.0000       1.792559        48.7780 
 400   0.0000       1.795885        48.8685 
 401   0.0000       1.807210        49.1767 
 402   0.0000       1.811236        49.2862 
 403   0.0000       1.818912        49.4951 
 404   0.0000       1.821841        49.5748 
 405   0.0000       1.824558        49.6487 
 406   0.0000       1.833325        49.8873 
 407   0.0000       1.837252        49.9942 
 408   0.0000       1.842030        50.1242 
 409   0.0000       1.854495        50.4634 
 410   0.0000       1.861175        50.6452 
 411   0.0000       1.868298        50.8390 
 412   0.0000       1.877161        51.0801 
 413   0.0000       1.882173        51.2165 
 414   0.0000       1.891844        51.4797 
 415   0.0000       1.893130        51.5147 
 416   0.0000       1.894485        51.5516 
 417   0.0000       1.906430        51.8766 
 418   0.0000       1.921397        52.2839 
 419   0.0000       1.926397        52.4199 
 420   0.0000       1.928777        52.4847 
 421   0.0000       1.940729        52.8099 
 422   0.0000       1.943892        52.8960 
 423   0.0000       1.951183        53.0944 
 424   0.0000       1.955752        53.2187 
 425   0.0000       1.965442        53.4824 
 426   0.0000       1.966747        53.5179 
 427   0.0000       1.970009        53.6067 
 428   0.0000       1.975482        53.7556 
 429   0.0000       1.980264        53.8857 
 430   0.0000       1.986201        54.0473 
 431   0.0000       1.988817        54.1185 
 432   0.0000       1.994404        54.2705 
 433   0.0000       1.996707        54.3332 
 434   0.0000       2.001154        54.4542 
 435   0.0000       2.002366        54.4872 
 436   0.0000       2.011092        54.7246 
 437   0.0000       2.013755        54.7971 
 438   0.0000       2.014760        54.8244 
 439   0.0000       2.021718        55.0137 
 440   0.0000       2.026868        55.1539 
 441   0.0000       2.030641        55.2566 
 442   0.0000       2.040960        55.5374 
 443   0.0000       2.048482        55.7420 
[...]

 --------------
 Nucleus  47H :
 --------------

Diamagnetic contribution to the shielding tensor (ppm) : 
            33.009         -2.638        -5.721
            -2.971         33.204         6.081
            -7.558          5.580        50.561

Paramagnetic contribution to the shielding tensor (ppm): 
            -1.589          0.815         3.428
             1.032         -6.015        -4.026
             4.601         -2.739       -15.352

Total shielding tensor (ppm): 
            31.420         -1.823        -2.292
            -1.939         27.189         2.054
            -2.958          2.841        35.209


 Diagonalized sT*s matrix:
 
 sDSO            31.014           31.659           54.100  iso=      38.925
 sPSO            -4.798           -1.510          -16.648  iso=      -7.652
        ---------------  ---------------  ---------------
 Total           26.216           30.149           37.453  iso=      31.273

 --------------
 Nucleus  48H :
 --------------

Diamagnetic contribution to the shielding tensor (ppm) : 
            36.040         -0.628        -2.657
            -0.000         31.404        -7.842
            -7.903         -7.151        51.156

Paramagnetic contribution to the shielding tensor (ppm): 
            -5.067          1.423         2.684
             0.154         -3.172         5.672
             9.191          4.539       -21.020

Total shielding tensor (ppm): 
            30.973          0.795         0.026
             0.154         28.232        -2.171
             1.288         -2.612        30.136


 Diagonalized sT*s matrix:
 
 sDSO            32.065           38.893           47.642  iso=      39.533
 sPSO            -5.584           -7.889          -15.785  iso=      -9.753
        ---------------  ---------------  ---------------
 Total           26.481           31.003           31.857  iso=      29.780

 --------------
 Nucleus  52H :
 --------------

Diamagnetic contribution to the shielding tensor (ppm) : 
            39.743         -2.822        -0.026
             1.662         53.343        -2.845
             5.554          2.464        33.100

Paramagnetic contribution to the shielding tensor (ppm): 
            -5.439          4.506         2.846
             0.611        -31.718         3.896
            -2.894         -1.749       -10.824

Total shielding tensor (ppm): 
            34.304          1.684         2.820
             2.273         21.624         1.051
             2.660          0.715        22.276


 Diagonalized sT*s matrix:
 
 sDSO            47.239           38.239           40.708  iso=      42.062
 sPSO           -26.229          -16.273           -5.479  iso=     -15.994
        ---------------  ---------------  ---------------
 Total           21.009           21.966           35.229  iso=      26.068

 --------------
 Nucleus  53H :
 --------------

Diamagnetic contribution to the shielding tensor (ppm) : 
            37.280         -6.291        -0.076
           -10.984         44.860         5.190
             0.093         -3.808        42.560

Paramagnetic contribution to the shielding tensor (ppm): 
            -5.352          7.775         3.514
            13.708        -21.420        -4.720
             2.944          3.796       -18.933

Total shielding tensor (ppm): 
            31.928          1.484         3.438
             2.724         23.440         0.469
             3.037         -0.013        23.627


 Diagonalized sT*s matrix:
 
 sDSO            46.132           43.463           35.105  iso=      41.567
 sPSO           -23.892          -20.175           -1.639  iso=     -15.235
        ---------------  ---------------  ---------------
 Total           22.241           23.288           33.466  iso=      26.332

 --------------
 Nucleus  57H :
 --------------

Diamagnetic contribution to the shielding tensor (ppm) : 
            28.623         -0.502         0.044
            -9.181         39.684        -5.792
            22.645         -2.380        43.816

Paramagnetic contribution to the shielding tensor (ppm): 
             0.077          1.244        -0.618
             9.616        -11.813         2.566
           -21.339         -1.551       -11.408

Total shielding tensor (ppm): 
            28.700          0.742        -0.574
             0.436         27.870        -3.225
             1.307         -3.931        32.408


 Diagonalized sT*s matrix:
 
 sDSO            36.195           29.103           46.826  iso=      37.374
 sPSO           -10.453           -0.240          -12.451  iso=      -7.715
        ---------------  ---------------  ---------------
 Total           25.741           28.863           34.375  iso=      29.660

 --------------
 Nucleus  58H :
 --------------

Diamagnetic contribution to the shielding tensor (ppm) : 
            32.200         -2.598        -0.262
           -20.699         37.812         2.554
            -0.245          1.883        22.947

Paramagnetic contribution to the shielding tensor (ppm): 
            -2.421          1.544         0.921
            20.344         -3.030        -1.859
             0.517         -0.366         3.042

Total shielding tensor (ppm): 
            29.779         -1.054         0.659
            -0.355         34.782         0.695
             0.272          1.517        25.989


 Diagonalized sT*s matrix:
 
 sDSO            22.483           29.722           40.754  iso=      30.986
 sPSO             3.294            0.054           -5.756  iso=      -0.803
        ---------------  ---------------  ---------------
 Total           25.776           29.776           34.998  iso=      30.183

 --------------
 Nucleus  61H :
 --------------

Diamagnetic contribution to the shielding tensor (ppm) : 
            28.536         -1.317        -0.496
             6.600         40.166       -10.067
             4.418         -7.199        39.831

Paramagnetic contribution to the shielding tensor (ppm): 
             1.362          0.880         0.860
            -7.770         -7.304         6.867
            -4.222          3.776        -9.348

Total shielding tensor (ppm): 
            29.897         -0.437         0.363
            -1.171         32.862        -3.199
             0.196         -3.423        30.483


 Diagonalized sT*s matrix:
 
 sDSO            32.510           28.657           47.365  iso=      36.178
 sPSO            -4.389            1.149          -12.051  iso=      -5.097
        ---------------  ---------------  ---------------
 Total           28.122           29.806           35.314  iso=      31.081

 --------------
 Nucleus  62H :
 --------------

Diamagnetic contribution to the shielding tensor (ppm) : 
            30.150          5.128         2.884
            19.972         29.273         2.815
            23.199          5.654        36.881

Paramagnetic contribution to the shielding tensor (ppm): 
             2.346         -3.717         0.103
           -18.047          1.844         2.011
           -20.059         -0.960        -8.191

Total shielding tensor (ppm): 
            32.496          1.411         2.987
             1.925         31.117         4.826
             3.140          4.694        28.691


 Diagonalized sT*s matrix:
 
 sDSO            29.047           15.464           51.795  iso=      32.102
 sPSO            -4.342           15.025          -14.684  iso=      -1.334
        ---------------  ---------------  ---------------
 Total           24.704           30.489           37.110  iso=      30.768

 --------------
 Nucleus  63H :
 --------------

Diamagnetic contribution to the shielding tensor (ppm) : 
            33.972         -4.976        -8.002
             8.105         43.156         3.642
            10.508         10.033        38.485

Paramagnetic contribution to the shielding tensor (ppm): 
             0.318          3.420         5.039
            -9.938        -14.604        -0.393
           -13.703         -5.950        -8.630

Total shielding tensor (ppm): 
            34.290         -1.556        -2.962
            -1.833         28.552         3.249
            -3.195          4.083        29.855


 Diagonalized sT*s matrix:
 
 sDSO            34.122           44.360           37.131  iso=      38.538
 sPSO            -8.705          -14.227            0.015  iso=      -7.639
        ---------------  ---------------  ---------------
 Total           25.417           30.133           37.147  iso=      30.899

 --------------
 Nucleus  64H :
 --------------

Diamagnetic contribution to the shielding tensor (ppm) : 
            26.281          0.298         4.016
            -8.022         16.092        -6.506
            26.530         -4.016        26.312

Paramagnetic contribution to the shielding tensor (ppm): 
             3.679         -1.290        -0.002
             7.342         11.313         3.768
           -23.710          0.567         8.680

Total shielding tensor (ppm): 
            29.961         -0.991         4.014
            -0.680         27.406        -2.738
             2.820         -3.449        34.991


 Diagonalized sT*s matrix:
 
 sDSO            13.448           15.507           39.730  iso=      22.895
 sPSO            12.804           12.918           -2.050  iso=       7.891
        ---------------  ---------------  ---------------
 Total           26.252           28.425           37.680  iso=      30.786

 --------------
 Nucleus  65H :
 --------------

Diamagnetic contribution to the shielding tensor (ppm) : 
            30.133          4.642         3.203
            12.251         25.555         4.594
            16.498          2.849        12.973

Paramagnetic contribution to the shielding tensor (ppm): 
             1.762         -2.127        -1.164
           -10.321          7.467        -2.403
           -14.786         -0.319        14.449

Total shielding tensor (ppm): 
            31.895          2.515         2.039
             1.930         33.022         2.190
             1.712          2.529        27.422


 Diagonalized sT*s matrix:
 
 sDSO             9.754           20.333           38.575  iso=      22.887
 sPSO            16.588            9.833           -2.743  iso=       7.893
        ---------------  ---------------  ---------------
 Total           26.342           30.166           35.832  iso=      30.780

 --------------
 Nucleus  66H :
 --------------

Diamagnetic contribution to the shielding tensor (ppm) : 
            41.211         -2.891         1.000
            -9.184         10.962        -0.561
             0.929          2.254        -2.357

Paramagnetic contribution to the shielding tensor (ppm): 
            -3.744          0.127        -1.487
             7.063         15.755         0.939
            -0.945         -1.490        30.076

Total shielding tensor (ppm): 
            37.468         -2.764        -0.487
            -2.121         26.716         0.378
            -0.016          0.764        27.719


 Diagonalized sT*s matrix:
 
 sDSO             8.187           -0.588           42.218  iso=      16.605
 sPSO            17.849           28.447           -4.208  iso=      14.029
        ---------------  ---------------  ---------------
 Total           26.036           27.859           38.009  iso=      30.635

 --------------
 Nucleus  67H :
 --------------

Diamagnetic contribution to the shielding tensor (ppm) : 
            37.860          1.179         3.472
             1.495         22.505        -3.518
           -19.447         -9.047        38.928

Paramagnetic contribution to the shielding tensor (ppm): 
            -4.362          0.857        -1.691
             0.400          2.688         3.658
            21.934          9.632        -4.972

Total shielding tensor (ppm): 
            33.499          2.036         1.781
             1.895         25.192         0.140
             2.487          0.584        33.957


 Diagonalized sT*s matrix:
 
 sDSO            22.596           47.518           29.179  iso=      33.098
 sPSO             2.153          -15.730            6.931  iso=      -2.215
        ---------------  ---------------  ---------------
 Total           24.749           31.788           36.110  iso=      30.883

 --------------
 Nucleus  68H :
 --------------

Diamagnetic contribution to the shielding tensor (ppm) : 
            37.443         -2.492        -7.750
            -1.474         19.080         1.411
           -30.590          0.207        16.777

Paramagnetic contribution to the shielding tensor (ppm): 
            -4.065          0.672         3.248
             0.184          7.958        -0.510
            25.101          0.782        16.138

Total shielding tensor (ppm): 
            33.378         -1.820        -4.502
            -1.290         27.039         0.901
            -5.489          0.989        32.915


 Diagonalized sT*s matrix:
 
 sDSO            18.705            7.688           46.908  iso=      24.433
 sPSO             7.956           20.559           -8.483  iso=       6.677
        ---------------  ---------------  ---------------
 Total           26.661           28.246           38.425  iso=      31.111

 --------------
 Nucleus  69H :
 --------------

Diamagnetic contribution to the shielding tensor (ppm) : 
            30.164          3.120        -2.260
             5.128         30.721        -7.221
           -18.890         -5.860        25.525

Paramagnetic contribution to the shielding tensor (ppm): 
            -0.772         -1.972         0.559
            -4.081          4.173         5.455
            16.644          3.188         4.107

Total shielding tensor (ppm): 
            29.391          1.147        -1.701
             1.047         34.893        -1.765
            -2.246         -2.672        29.632


 Diagonalized sT*s matrix:
 
 sDSO            16.824           31.374           38.212  iso=      28.803
 sPSO            10.625           -1.061           -2.057  iso=       2.502
        ---------------  ---------------  ---------------
 Total           27.449           30.313           36.154  iso=      31.306

 --------------
 Nucleus  70H :
 --------------

Diamagnetic contribution to the shielding tensor (ppm) : 
            31.013          1.025         4.532
            -5.383         35.282        10.145
            -2.950          6.879        44.116

Paramagnetic contribution to the shielding tensor (ppm): 
             2.100         -0.710        -3.435
             6.149         -6.280        -5.192
             4.305         -2.156       -15.350

Total shielding tensor (ppm): 
            33.114          0.315         1.097
             0.766         29.002         4.952
             1.356          4.723        28.766


 Diagonalized sT*s matrix:
 
 sDSO            31.111           38.530           40.770  iso=      36.804
 sPSO            -7.093           -6.373           -6.063  iso=      -6.510
        ---------------  ---------------  ---------------
 Total           24.017           32.157           34.707  iso=      30.294

 --------------
 Nucleus  71H :
 --------------

Diamagnetic contribution to the shielding tensor (ppm) : 
            27.867         -6.039        -1.282
            -9.220         40.105        -0.867
            -1.131         -9.087        43.700

Paramagnetic contribution to the shielding tensor (ppm): 
             3.473          5.043         2.230
             7.918         -6.616        -2.120
             1.629          6.118       -15.836

Total shielding tensor (ppm): 
            31.340         -0.996         0.948
            -1.302         33.488        -2.987
             0.499         -2.969        27.864


 Diagonalized sT*s matrix:
 
 sDSO            39.971           25.076           46.624  iso=      37.224
 sPSO           -13.401            5.811          -11.389  iso=      -6.326
        ---------------  ---------------  ---------------
 Total           26.570           30.887           35.235  iso=      30.897

 --------------
 Nucleus  72H :
 --------------

Diamagnetic contribution to the shielding tensor (ppm) : 
            37.003         -7.963        -8.846
            -8.983         23.250         5.561
           -18.530          0.929        39.404

Paramagnetic contribution to the shielding tensor (ppm): 
            -1.738          6.771         5.291
             7.572          4.361        -2.820
            14.652          2.660       -10.190

Total shielding tensor (ppm): 
            35.264         -1.193        -3.556
            -1.412         27.611         2.741
            -3.878          3.590        29.214


 Diagonalized sT*s matrix:
 
 sDSO            26.844           20.993           51.819  iso=      33.219
 sPSO            -1.888            8.437          -14.117  iso=      -2.522
        ---------------  ---------------  ---------------
 Total           24.957           29.431           37.702  iso=      30.697



--------------------------------
CHEMICAL SHIELDING SUMMARY (ppm)
--------------------------------


  Nucleus  Element    Isotropic     Anisotropy
  -------  -------  ------------   ------------
      3       H           29.366          6.452 
      4       H           29.046          7.404 
      8       H           29.564          7.959 
      9       H           29.329          5.462 
     10       H           30.102          8.316 
     11       H           29.855         10.231 
     13       H           27.732          7.760 
     16       H           26.779          4.676 
     17       H           26.498          4.806 
     19       H           25.402         10.439 
     21       H           25.582         14.593 
     24       H           28.907         10.128 
     25       H           30.052          9.527 
     27       H           30.243          6.968 
     28       H           30.110         11.789 
     30       H           29.730          8.457 
     31       H           30.467          6.869 
     33       H           29.829          4.351 
     35       H           30.165         14.694 
     37       H           30.326         10.784 
     38       H           30.172          9.968 
     40       H           29.847          9.881 
     41       H           30.224          8.074 
     42       H           30.769          5.008 
     45       H           31.223          7.341 
     46       H           31.006          8.063 
     47       H           31.273          9.270 
     48       H           29.780          3.115 
     52       H           26.068         13.741 
     53       H           26.332         10.701 
     57       H           29.660          7.073 
     58       H           30.183          7.222 
     61       H           31.081          6.350 
     62       H           30.768          9.514 
     63       H           30.899          9.372 
     64       H           30.786         10.342 
     65       H           30.780          7.578 
     66       H           30.635         11.062 
     67       H           30.883          7.842 
     68       H           31.111         10.971 
     69       H           31.306          7.273 
     70       H           30.294          6.620 
     71       H           30.897          6.506 
     72       H           30.697         10.509 



Maximum memory used throughout the entire EPRNMR-calculation: 140.3 MB

Timings for individual modules:

Sum of individual times         ...      141.489 sec (=   2.358 min)
GTO integral calculation        ...        1.072 sec (=   0.018 min)   0.8 %
SCF iterations                  ...       94.992 sec (=   1.583 min)  67.1 %
EPR/NMR calculation             ...       45.425 sec (=   0.757 min)  32.1 %
                             ****ORCA TERMINATED NORMALLY****
TOTAL RUN TIME: 0 days 0 hours 2 minutes 21 seconds 968 msec
