
                                 *****************
                                 * O   R   C   A *
                                 *****************

                                            #,                                       
                                            ###                                      
                                            ####                                     
                                            #####                                    
                                            ######                                   
                                           ########,                                 
                                     ,,################,,,,,                         
                               ,,#################################,,                 
                          ,,##########################################,,             
                       ,#########################################, ''#####,          
                    ,#############################################,,   '####,        
                  ,##################################################,,,,####,       
                ,###########''''           ''''###############################       
              ,#####''   ,,,,##########,,,,          '''####'''          '####       
            ,##' ,,,,###########################,,,                        '##       
           ' ,,###''''                  '''############,,,                           
         ,,##''                                '''############,,,,        ,,,,,,###''
      ,#''                                            '''#######################'''  
     '                                                          ''''####''''         
             ,#######,   #######,   ,#######,      ##                                
            ,#'     '#,  ##    ##  ,#'     '#,    #''#        ######   ,####,        
            ##       ##  ##   ,#'  ##            #'  '#       #        #'  '#        
            ##       ##  #######   ##           ,######,      #####,   #    #        
            '#,     ,#'  ##    ##  '#,     ,#' ,#      #,         ##   #,  ,#        
             '#######'   ##     ##  '#######'  #'      '#     #####' # '####'        



                  #######################################################
                  #                        -***-                        #
                  #          Department of theory and spectroscopy      #
                  #    Directorship and core code : Frank Neese         #
                  #        Max Planck Institute fuer Kohlenforschung    #
                  #                Kaiser Wilhelm Platz 1               #
                  #                 D-45470 Muelheim/Ruhr               #
                  #                      Germany                        #
                  #                                                     #
                  #                  All rights reserved                #
                  #                        -***-                        #
                  #######################################################


                         Program Version 5.0.2 -  RELEASE  -


 With contributions from (in alphabetic order):
   Daniel Aravena         : Magnetic Suceptibility
   Michael Atanasov       : Ab Initio Ligand Field Theory (pilot matlab implementation)
   Alexander A. Auer      : GIAO ZORA, VPT2 properties, NMR spectrum
   Ute Becker             : Parallelization
   Giovanni Bistoni       : ED, misc. LED, open-shell LED, HFLD
   Martin Brehm           : Molecular dynamics
   Dmytro Bykov           : SCF Hessian
   Vijay G. Chilkuri      : MRCI spin determinant printing, contributions to CSF-ICE
   Dipayan Datta          : RHF DLPNO-CCSD density
   Achintya Kumar Dutta   : EOM-CC, STEOM-CC
   Dmitry Ganyushin       : Spin-Orbit,Spin-Spin,Magnetic field MRCI
   Miquel Garcia          : C-PCM and meta-GGA Hessian, CC/C-PCM, Gaussian charge scheme
   Yang Guo               : DLPNO-NEVPT2, F12-NEVPT2, CIM, IAO-localization
   Andreas Hansen         : Spin unrestricted coupled pair/coupled cluster methods
   Benjamin Helmich-Paris : MC-RPA, TRAH-SCF, COSX integrals
   Lee Huntington         : MR-EOM, pCC
   Robert Izsak           : Overlap fitted RIJCOSX, COSX-SCS-MP3, EOM
   Marcus Kettner         : VPT2
   Christian Kollmar      : KDIIS, OOCD, Brueckner-CCSD(T), CCSD density, CASPT2, CASPT2-K
   Simone Kossmann        : Meta GGA functionals, TD-DFT gradient, OOMP2, MP2 Hessian
   Martin Krupicka        : Initial AUTO-CI
   Lucas Lang             : DCDCAS
   Marvin Lechner         : AUTO-CI (C++ implementation), FIC-MRCC
   Dagmar Lenk            : GEPOL surface, SMD
   Dimitrios Liakos       : Extrapolation schemes; Compound Job, initial MDCI parallelization
   Dimitrios Manganas     : Further ROCIS development; embedding schemes
   Dimitrios Pantazis     : SARC Basis sets
   Anastasios Papadopoulos: AUTO-CI, single reference methods and gradients
   Taras Petrenko         : DFT Hessian,TD-DFT gradient, ASA, ECA, R-Raman, ABS, FL, XAS/XES, NRVS
   Peter Pinski           : DLPNO-MP2, DLPNO-MP2 Gradient
   Christoph Reimann      : Effective Core Potentials
   Marius Retegan         : Local ZFS, SOC
   Christoph Riplinger    : Optimizer, TS searches, QM/MM, DLPNO-CCSD(T), (RO)-DLPNO pert. Triples
   Tobias Risthaus        : Range-separated hybrids, TD-DFT gradient, RPA, STAB
   Michael Roemelt        : Original ROCIS implementation
   Masaaki Saitow         : Open-shell DLPNO-CCSD energy and density
   Barbara Sandhoefer     : DKH picture change effects
   Avijit Sen             : IP-ROCIS
   Kantharuban Sivalingam : CASSCF convergence, NEVPT2, FIC-MRCI
   Bernardo de Souza      : ESD, SOC TD-DFT
   Georgi Stoychev        : AutoAux, RI-MP2 NMR, DLPNO-MP2 response
   Willem Van den Heuvel  : Paramagnetic NMR
   Boris Wezisla          : Elementary symmetry handling
   Frank Wennmohs         : Technical directorship


 We gratefully acknowledge several colleagues who have allowed us to
 interface, adapt or use parts of their codes:
   Stefan Grimme, W. Hujo, H. Kruse, P. Pracht,  : VdW corrections, initial TS optimization,
                  C. Bannwarth, S. Ehlert          DFT functionals, gCP, sTDA/sTD-DF
   Ed Valeev, F. Pavosevic, A. Kumar             : LibInt (2-el integral package), F12 methods
   Garnet Chan, S. Sharma, J. Yang, R. Olivares  : DMRG
   Ulf Ekstrom                                   : XCFun DFT Library
   Mihaly Kallay                                 : mrcc  (arbitrary order and MRCC methods)
   Jiri Pittner, Ondrej Demel                    : Mk-CCSD
   Frank Weinhold                                : gennbo (NPA and NBO analysis)
   Christopher J. Cramer and Donald G. Truhlar   : smd solvation model
   Lars Goerigk                                  : TD-DFT with DH, B97 family of functionals
   V. Asgeirsson, H. Jonsson                     : NEB implementation
   FAccTs GmbH                                   : IRC, NEB, NEB-TS, DLPNO-Multilevel, CI-OPT
                                                   MM, QMMM, 2- and 3-layer-ONIOM, Crystal-QMMM,
                                                   LR-CPCM, SF, NACMEs, symmetry and pop. for TD-DFT,
                                                   nearIR, NL-DFT gradient (VV10), updates on ESD,
                                                   ML-optimized integration grids
   S Lehtola, MJT Oliveira, MAL Marques          : LibXC Library
   Liviu Ungur et al                             : ANISO software


 Your calculation uses the libint2 library for the computation of 2-el integrals
 For citations please refer to: http://libint.valeyev.net

 Your ORCA version has been built with support for libXC version: 5.1.0
 For citations please refer to: https://tddft.org/programs/libxc/

 This ORCA versions uses:
   CBLAS   interface :  Fast vector & matrix operations
   LAPACKE interface :  Fast linear algebra routines
   SCALAPACK package :  Parallel linear algebra routines
   Shared memory     :  Shared parallel matrices
   BLAS/LAPACK       :  OpenBLAS 0.3.15  USE64BITINT DYNAMIC_ARCH NO_AFFINITY Zen SINGLE_THREADED
        Core in use  :  Zen
   Copyright (c) 2011-2014, The OpenBLAS Project


Your calculation utilizes the atom-pairwise dispersion correction
based on tight binding partial charges (D4)
Cite in your paper:
E.Caldeweyher, C.Bannwarth, S.Grimme, J.Chem.Phys., (2017), 147, 034112.
E.Caldeweyher, S.Ehlert, A.Hansen, H.Neugebauer, S.Grimme, J.Chem.Phys., (2018), in progress.
   

================================================================================

----- Orbital basis set information -----
Your calculation utilizes the basis: pcJ-0
   F. Jensen, Theor. Chem. Acc. 126, 371 (2010).

----- AuxJ basis set information -----
Your calculation utilizes the auxiliary basis: def2/J
   F. Weigend, Phys. Chem. Chem. Phys. 8, 1057 (2006).

================================================================================
                                        WARNINGS
                       Please study these warnings very carefully!
================================================================================


INFO   : the flag for use of the SHARK integral package has been found!

================================================================================
                                       INPUT FILE
================================================================================
NAME = inpJ
|  1> ! pbe0
|  2> ! D4
|  3> ! pcJ-0
|  4> ! def2/J RIJCOSX
|  5> ! DEFGRID2
|  6> ! scfconv7
|  7> ! smallprint printgap noloewdin
|  8> ! NOSOSCF
|  9> %MaxCore 4000
| 10> %output
| 11>        print[P_BondOrder_M] 1
| 12>        print[P_Mayer] 1
| 13>        print[P_basis] 2
| 14> end
| 15> %pal
| 16>     nprocs 4
| 17> end
| 18> ! CPCM(chloroform)
| 19> *xyz 0 1
| 20> C   -5.0083890700   0.2300521400  -0.4854652800
| 21> C   -6.4606163900  -0.1486244900  -0.6578090600
| 22> C   -7.3586375900   0.7708321700   0.1796493600
| 23> H   -6.6242064100  -1.1941060500  -0.3729950200
| 24> H   -6.7533979000  -0.0342979600  -1.7120956700
| 25> C   -4.7219533500   1.6560902500  -0.7567307400
| 26> C   -5.6430323000   2.6253505000  -0.0491268000
| 27> C   -7.1190283800   2.2323486100  -0.2031757600
| 28> H   -5.4751749900   3.6435338100  -0.4160670400
| 29> H   -5.3882204000   2.6241483500   1.0216633700
| 30> H   -7.4297174300   2.3707813300  -1.2477369200
| 31> H   -7.7478687600   2.8812850400   0.4172779500
| 32> O   -7.1459595400   0.5478361300   1.5834777600
| 33> H   -8.4105916800   0.5141477800   0.0039331800
| 34> C   -4.0951437500  -0.6722825200  -0.0541535100
| 35> C   -3.7562971300   2.0622598100  -1.5883851400
| 36> H   -3.1157261200   1.3501046500  -2.1017893600
| 37> H   -3.5924823900   3.1199161100  -1.7812350300
| 38> C   -2.7080008800  -0.4036969200   0.2493115400
| 39> H   -4.4585761700  -1.6864173000   0.1073698600
| 40> C   -1.7663419100  -1.3173292600   0.5669859100
| 41> H   -2.4128809300   0.6429640100   0.2256873800
| 42> C   -1.9706932000  -2.8099843100   0.6142553200
| 43> C   -0.9682544800  -3.5423066400  -0.2986660900
| 44> H   -2.9907694500  -3.0993795500   0.3481475000
| 45> H   -1.7979220200  -3.1433692300   1.6497864900
| 46> C    0.4842238300  -3.1200553500  -0.0411048900
| 47> H   -1.2321048900  -3.3484354700  -1.3460976000
| 48> H   -1.0679238000  -4.6241393100  -0.1472248800
| 49> C    0.6620850800  -1.5978097700  -0.1285442100
| 50> H    1.1349111600  -3.6396522400  -0.7517577600
| 51> H    0.7827503100  -3.4477086600   0.9661178200
| 52> C   -0.3468345200  -0.9516333800   0.8753307900
| 53> H   -0.1083554000  -1.4217895300   1.8469137600
| 54> C    0.0918943700   0.5071370900   0.9593982800
| 55> H   -6.1923562700   0.4649678700   1.7258850000
| 56> C    1.6342348400   0.4318517800   0.8426073000
| 57> H   -0.2415886600   0.9833912300   1.8872458100
| 58> H   -0.3254479600   1.0887805600   0.1300505500
| 59> C    1.9937981100  -1.0302319500   0.4373414100
| 60> H    2.1258757000   0.7052280700   1.7814064900
| 61> H    1.9955082500   1.1345790500   0.0820510900
| 62> H    2.2165181500  -1.6014008300   1.3532401400
| 63> C    3.2660042000  -1.0929059800  -0.4428030100
| 64> C    0.4137793400  -1.0920090000  -1.5566671500
| 65> H    0.6461553200  -0.0266907100  -1.6542093000
| 66> H   -0.6312891700  -1.2255303200  -1.8527237500
| 67> H    1.0384124300  -1.6350230100  -2.2742919300
| 68> H    3.0624578200  -0.4847257900  -1.3399500800
| 69> C    3.6230888700  -2.5071151400  -0.8969721600
| 70> C    4.3956025900  -0.4085910600   0.2926708800
| 71> C    5.4997656300  -0.9888705600   0.7649398800
| 72> H    4.2549095000   0.6589618900   0.4558803100
| 73> H    5.6500762700  -2.0579835900   0.6035497100
| 74> C    6.6215446700  -0.3193085800   1.5168451500
| 75> C    6.3937267200   1.1703953100   1.7678536400
| 76> C    7.9783024000  -0.6329748600   0.8252282700
| 77> H    6.6756136400  -0.8165384100   2.5008616100
| 78> H    7.9961657800  -1.7243600200   0.6803906600
| 79> C    9.1744517600  -0.2686889500   1.7076097700
| 80> C    8.1026348100   0.0213827800  -0.5520371700
| 81> H    6.2978600600   1.7295018700   0.8308434400
| 82> H    7.2208349800   1.6034179000   2.3377954400
| 83> H    5.4757796500   1.3287195900   2.3438933300
| 84> H    9.0824716600  -0.7089818200   2.7073078400
| 85> H    9.2712761900   0.8168798000   1.8219651800
| 86> H    10.1056935300  -0.6340213600   1.2603969200
| 87> H    7.2392338800  -0.2119873500  -1.1846520000
| 88> H    9.0058843000  -0.3297709500  -1.0630500100
| 89> H    8.1753772500   1.1117308000  -0.4657485900
| 90> H    2.8823903500  -2.8931219200  -1.6001151400
| 91> H    3.6750810700  -3.1996347100  -0.0484941400
| 92> H    4.5952056000  -2.5155110600  -1.4018029300
| 93> *
| 94> %eprnmr
| 95>  Nuclei = all H { ssfc }
| 96>  SpinSpinRThresh 8.0
| 97> end
| 98> 
| 99>                          ****END OF INPUT****
================================================================================

                       ****************************
                       * Single Point Calculation *
                       ****************************

---------------------------------
CARTESIAN COORDINATES (ANGSTROEM)
---------------------------------
  C     -5.008389    0.230052   -0.485465
  C     -6.460616   -0.148624   -0.657809
  C     -7.358638    0.770832    0.179649
  H     -6.624206   -1.194106   -0.372995
  H     -6.753398   -0.034298   -1.712096
  C     -4.721953    1.656090   -0.756731
  C     -5.643032    2.625351   -0.049127
  C     -7.119028    2.232349   -0.203176
  H     -5.475175    3.643534   -0.416067
  H     -5.388220    2.624148    1.021663
  H     -7.429717    2.370781   -1.247737
  H     -7.747869    2.881285    0.417278
  O     -7.145960    0.547836    1.583478
  H     -8.410592    0.514148    0.003933
  C     -4.095144   -0.672283   -0.054154
  C     -3.756297    2.062260   -1.588385
  H     -3.115726    1.350105   -2.101789
  H     -3.592482    3.119916   -1.781235
  C     -2.708001   -0.403697    0.249312
  H     -4.458576   -1.686417    0.107370
  C     -1.766342   -1.317329    0.566986
  H     -2.412881    0.642964    0.225687
  C     -1.970693   -2.809984    0.614255
  C     -0.968254   -3.542307   -0.298666
  H     -2.990769   -3.099380    0.348147
  H     -1.797922   -3.143369    1.649786
  C      0.484224   -3.120055   -0.041105
  H     -1.232105   -3.348435   -1.346098
  H     -1.067924   -4.624139   -0.147225
  C      0.662085   -1.597810   -0.128544
  H      1.134911   -3.639652   -0.751758
  H      0.782750   -3.447709    0.966118
  C     -0.346835   -0.951633    0.875331
  H     -0.108355   -1.421790    1.846914
  C      0.091894    0.507137    0.959398
  H     -6.192356    0.464968    1.725885
  C      1.634235    0.431852    0.842607
  H     -0.241589    0.983391    1.887246
  H     -0.325448    1.088781    0.130051
  C      1.993798   -1.030232    0.437341
  H      2.125876    0.705228    1.781406
  H      1.995508    1.134579    0.082051
  H      2.216518   -1.601401    1.353240
  C      3.266004   -1.092906   -0.442803
  C      0.413779   -1.092009   -1.556667
  H      0.646155   -0.026691   -1.654209
  H     -0.631289   -1.225530   -1.852724
  H      1.038412   -1.635023   -2.274292
  H      3.062458   -0.484726   -1.339950
  C      3.623089   -2.507115   -0.896972
  C      4.395603   -0.408591    0.292671
  C      5.499766   -0.988871    0.764940
  H      4.254910    0.658962    0.455880
  H      5.650076   -2.057984    0.603550
  C      6.621545   -0.319309    1.516845
  C      6.393727    1.170395    1.767854
  C      7.978302   -0.632975    0.825228
  H      6.675614   -0.816538    2.500862
  H      7.996166   -1.724360    0.680391
  C      9.174452   -0.268689    1.707610
  C      8.102635    0.021383   -0.552037
  H      6.297860    1.729502    0.830843
  H      7.220835    1.603418    2.337795
  H      5.475780    1.328720    2.343893
  H      9.082472   -0.708982    2.707308
  H      9.271276    0.816880    1.821965
  H     10.105694   -0.634021    1.260397
  H      7.239234   -0.211987   -1.184652
  H      9.005884   -0.329771   -1.063050
  H      8.175377    1.111731   -0.465749
  H      2.882390   -2.893122   -1.600115
  H      3.675081   -3.199635   -0.048494
  H      4.595206   -2.515511   -1.401803

----------------------------
CARTESIAN COORDINATES (A.U.)
----------------------------
  NO LB      ZA    FRAG     MASS         X           Y           Z
   0 C     6.0000    0    12.011   -9.464484    0.434736   -0.917396
   1 C     6.0000    0    12.011  -12.208796   -0.280860   -1.243079
   2 C     6.0000    0    12.011  -13.905810    1.456662    0.339488
   3 H     1.0000    0     1.008  -12.517936   -2.256533   -0.704858
   4 H     1.0000    0     1.008  -12.762073   -0.064814   -3.235392
   5 C     6.0000    0    12.011   -8.923199    3.129557   -1.430014
   6 C     6.0000    0    12.011  -10.663786    4.961193   -0.092836
   7 C     6.0000    0    12.011  -13.453014    4.218528   -0.383947
   8 H     1.0000    0     1.008  -10.346581    6.885281   -0.786253
   9 H     1.0000    0     1.008  -10.182261    4.958922    1.930664
  10 H     1.0000    0     1.008  -14.040131    4.480127   -2.357881
  11 H     1.0000    0     1.008  -14.641350    5.444840    0.788541
  12 O     8.0000    0    15.999  -13.503906    1.035260    2.992339
  13 H     1.0000    0     1.008  -15.893715    0.971598    0.007433
  14 C     6.0000    0    12.011   -7.738700   -1.270430   -0.102335
  15 C     6.0000    0    12.011   -7.098373    3.897106   -3.001613
  16 H     1.0000    0     1.008   -5.887869    2.551328   -3.971806
  17 H     1.0000    0     1.008   -6.788808    5.895787   -3.366046
  18 C     6.0000    0    12.011   -5.117380   -0.762877    0.471131
  19 H     1.0000    0     1.008   -8.425488   -3.186867    0.202900
  20 C     6.0000    0    12.011   -3.337902   -2.489392    1.071448
  21 H     1.0000    0     1.008   -4.559684    1.215026    0.426487
  22 C     6.0000    0    12.011   -3.724070   -5.310101    1.160774
  23 C     6.0000    0    12.011   -1.829736   -6.693989   -0.564397
  24 H     1.0000    0     1.008   -5.651735   -5.856979    0.657903
  25 H     1.0000    0     1.008   -3.397580   -5.940107    3.117645
  26 C     6.0000    0    12.011    0.915050   -5.896050   -0.077677
  27 H     1.0000    0     1.008   -2.328341   -6.327626   -2.543756
  28 H     1.0000    0     1.008   -2.018084   -8.738357   -0.278215
  29 C     6.0000    0    12.011    1.251159   -3.019423   -0.242913
  30 H     1.0000    0     1.008    2.144671   -6.877946   -1.420616
  31 H     1.0000    0     1.008    1.479184   -6.515225    1.825698
  32 C     6.0000    0    12.011   -0.655422   -1.798326    1.654135
  33 H     1.0000    0     1.008   -0.204762   -2.686793    3.490161
  34 C     6.0000    0    12.011    0.173655    0.958350    1.813000
  35 H     1.0000    0     1.008  -11.701857    0.878662    3.261450
  36 C     6.0000    0    12.011    3.088256    0.816082    1.592297
  37 H     1.0000    0     1.008   -0.456536    1.858340    3.566378
  38 H     1.0000    0     1.008   -0.615008    2.057497    0.245760
  39 C     6.0000    0    12.011    3.767732   -1.946856    0.826455
  40 H     1.0000    0     1.008    4.017323    1.332688    3.366370
  41 H     1.0000    0     1.008    3.770964    2.144044    0.155054
  42 H     1.0000    0     1.008    4.188612   -3.026209    2.557253
  43 C     6.0000    0    12.011    6.171853   -2.065293   -0.836776
  44 C     6.0000    0    12.011    0.781930   -2.063598   -2.941675
  45 H     1.0000    0     1.008    1.221057   -0.050438   -3.126003
  46 H     1.0000    0     1.008   -1.192964   -2.315917   -3.501140
  47 H     1.0000    0     1.008    1.962315   -3.089746   -4.297789
  48 H     1.0000    0     1.008    5.787207   -0.915999   -2.532139
  49 C     6.0000    0    12.011    6.846646   -4.737761   -1.695032
  50 C     6.0000    0    12.011    8.306485   -0.772125    0.553068
  51 C     6.0000    0    12.011   10.393051   -1.868695    1.445527
  52 H     1.0000    0     1.008    8.040614    1.245258    0.861489
  53 H     1.0000    0     1.008   10.677097   -3.889025    1.140544
  54 C     6.0000    0    12.011   12.512906   -0.603406    2.866422
  55 C     6.0000    0    12.011   12.082392    2.211727    3.340759
  56 C     6.0000    0    12.011   15.076807   -1.196149    1.559455
  57 H     1.0000    0     1.008   12.615082   -1.543034    4.725944
  58 H     1.0000    0     1.008   15.110563   -3.258568    1.285752
  59 C     6.0000    0    12.011   17.337201   -0.507749    3.226915
  60 C     6.0000    0    12.011   15.311761    0.040408   -1.043199
  61 H     1.0000    0     1.008   11.901231    3.268285    1.570067
  62 H     1.0000    0     1.008   13.645401    3.030021    4.417793
  63 H     1.0000    0     1.008   10.347724    2.510916    4.429316
  64 H     1.0000    0     1.008   17.163384   -1.339781    5.116070
  65 H     1.0000    0     1.008   17.520173    1.543679    3.443015
  66 H     1.0000    0     1.008   19.096993   -1.198127    2.381805
  67 H     1.0000    0     1.008   13.680169   -0.400598   -2.238668
  68 H     1.0000    0     1.008   17.018655   -0.623177   -2.008873
  69 H     1.0000    0     1.008   15.449224    2.100867   -0.880137
  70 H     1.0000    0     1.008    5.446928   -5.467208   -3.023779
  71 H     1.0000    0     1.008    6.944897   -6.046433   -0.091641
  72 H     1.0000    0     1.008    8.683680   -4.753627   -2.649024

--------------------------------
INTERNAL COORDINATES (ANGSTROEM)
--------------------------------
 C      0   0   0     0.000000000000     0.00000000     0.00000000
 C      1   0   0     1.510649713722     0.00000000     0.00000000
 C      2   1   0     1.534007571851   110.50187447     0.00000000
 H      2   1   3     1.095861498696   110.67110412   237.86227110
 H      2   1   3     1.100141729090   109.82323110   118.75270003
 C      1   2   3     1.479599629174   114.00297474   306.31446745
 C      6   1   2     1.512797144454   114.44942089    49.53439901
 C      3   2   1     1.529705184148   110.14165844    56.75230230
 H      7   6   1     1.095225305138   110.21908121   188.85343092
 H      7   6   1     1.100691663326   108.26347690    72.19748071
 H      8   3   2     1.098544182424   108.30408557    64.32770494
 H      8   3   2     1.096139370679   109.51858603   181.33118145
 O      3   2   1     1.437252018073   110.70827122   292.73759960
 H      3   2   1     1.096982433520   109.49236494   177.20670326
 C      1   2   3     1.354346593779   121.16814187   123.20948825
 C      6   1   2     1.337577918379   123.12182548   231.43723402
 H     16   6   1     1.086775084312   121.35045299   359.07035444
 H     16   6   1     1.087503194498   120.95296369   178.45060747
 C     15   1   2     1.445127884615   126.17823284   185.23408701
 H     15   1   2     1.089331113560   116.26430462     3.09070650
 C     19  15   1     1.349949137497   126.38392391   186.17924527
 H     19  15   1     1.087728361408   115.76680045     6.89460982
 C     21  19  15     1.507319788611   125.66299027     2.54056868
 C     23  21  19     1.540975302595   111.33608109   124.06264280
 H     23  21  19     1.093214769665   112.39644212     0.53973645
 H     23  21  19     1.101508143213   107.93480741   242.58154629
 C     24  23  21     1.534381688066   112.67925014    51.42673999
 H     24  23  21     1.097413248305   108.97092801   289.25995482
 H     24  23  21     1.096918565489   109.13513974   173.32652457
 C     27  24  23     1.535093438447   111.90121081   306.22906324
 H     27  24  23     1.094715685080   108.84896539   182.67486119
 H     27  24  23     1.100441883225   109.17779791    66.25348032
 C     21  19  15     1.497935670159   122.97293662   180.31138766
 H     33  21  19     1.105392493033   106.35197529   127.67183776
 C     33  21  19     1.525634840301   121.15072474     5.12011577
 H     13   3   2     0.967732487351   107.62793078    42.72066073
 C     35  33  21     1.548587141982   103.63706285   197.20565981
 H     35  33  21     1.094956609228   112.02430052    75.25049728
 H     35  33  21     1.095582677784   110.87761967   315.62491824
 C     30  27  24     1.554294280679   116.14501778   166.04255127
 H     37  35  33     1.094435585268   111.75078815   248.69713522
 H     37  35  33     1.096717758288   110.44052629   130.12454775
 H     40  30  27     1.102138189754   106.64581996   320.54190565
 C     40  30  27     1.548254039080   118.83444378    80.84856979
 C     30  27  24     1.535260659043   111.15822445   294.09262761
 H     45  30  27     1.094721940091   111.66380597   186.33693239
 H     45  30  27     1.094369975781   111.46305986    66.34078529
 H     45  30  27     1.095452434864   110.72271831   306.25951665
 H     44  40  30     1.102808749298   106.76663009    62.13280775
 C     44  40  30     1.527667053578   113.48747902   303.05474759
 C     44  40  30     1.511688220268   108.60911507   176.62008851
 C     51  44  40     1.333768467682   126.43645293   113.74724037
 H     51  44  40     1.089082717092   114.84162537   295.11927421
 H     52  51  44     1.091623903359   119.19195327     1.57905200
 C     52  51  44     1.507336390690   126.83188798   180.97089114
 C     55  52  51     1.527784003148   113.83546690     1.85597678
 C     55  52  51     1.554835033637   109.74925424   233.31061196
 H     55  52  51     1.103833932668   106.32250998   119.96858938
 H     57  55  52     1.101098815313   105.82045209   310.32152195
 C     57  55  52     1.530383816954   112.18129499   193.49781851
 C     57  55  52     1.529870112598   112.64847033    67.76284709
 H     56  55  52     1.095344090612   111.72924090   299.21466816
 H     56  55  52     1.093823702704   111.03039059   178.51257905
 H     56  55  52     1.095223778693   110.63100629    59.10409877
 H     60  57  55     1.096227340167   111.38406780    51.60727888
 H     60  57  55     1.095861141303   111.40911663   290.85930654
 H     60  57  55     1.095754688420   110.46115142   171.67152335
 H     61  57  55     1.095501851499   111.38890168   307.93840618
 H     61  57  55     1.095583272017   110.47594268   187.66691468
 H     61  57  55     1.096173337722   111.09867637    68.44083714
 H     50  44  40     1.091808399885   111.11113161    67.99463272
 H     50  44  40     1.096449494558   111.45175329   307.62600153
 H     50  44  40     1.095415690301   110.58162464   187.42735726

---------------------------
INTERNAL COORDINATES (A.U.)
---------------------------
 C      0   0   0     0.000000000000     0.00000000     0.00000000
 C      1   0   0     2.854714243220     0.00000000     0.00000000
 C      2   1   0     2.898854198160   110.50187447     0.00000000
 H      2   1   3     2.070878113244   110.67110412   237.86227110
 H      2   1   3     2.078966576479   109.82323110   118.75270003
 C      1   2   3     2.796038086991   114.00297474   306.31446745
 C      6   1   2     2.858772299195   114.44942089    49.53439901
 C      3   2   1     2.890723863680   110.14165844    56.75230230
 H      7   6   1     2.069675881651   110.21908121   188.85343092
 H      7   6   1     2.080005801576   108.26347690    72.19748071
 H      8   3   2     2.075947650793   108.30408557    64.32770494
 H      8   3   2     2.071403215192   109.51858603   181.33118145
 O      3   2   1     2.716012699583   110.70827122   292.73759960
 H      3   2   1     2.072996373075   109.49236494   177.20670326
 C      1   2   3     2.559344152651   121.16814187   123.20948825
 C      6   1   2     2.527655948516   123.12182548   231.43723402
 H     16   6   1     2.053707278518   121.35045299   359.07035444
 H     16   6   1     2.055083207366   120.95296369   178.45060747
 C     15   1   2     2.730895930415   126.17823284   185.23408701
 H     15   1   2     2.058537473787   116.26430462     3.09070650
 C     19  15   1     2.551034164593   126.38392391   186.17924527
 H     19  15   1     2.055508711161   115.76680045     6.89460982
 C     21  19  15     2.848421596714   125.66299027     2.54056868
 C     23  21  19     2.912021301041   111.33608109   124.06264280
 H     23  21  19     2.065876520225   112.39644212     0.53973645
 H     23  21  19     2.081548724956   107.93480741   242.58154629
 C     24  23  21     2.899561175349   112.67925014    51.42673999
 H     24  23  21     2.073810495033   108.97092801   289.25995482
 H     24  23  21     2.072875679988   109.13513974   173.32652457
 C     27  24  23     2.900906188644   111.90121081   306.22906324
 H     27  24  23     2.068712839309   108.84896539   182.67486119
 H     27  24  23     2.079533785591   109.17779791    66.25348032
 C     21  19  15     2.830688182833   122.97293662   180.31138766
 H     33  21  19     2.088889082324   106.35197529   127.67183776
 C     33  21  19     2.883032028537   121.15072474     5.12011577
 H     13   3   2     1.828749371992   107.62793078    42.72066073
 C     35  33  21     2.926405592857   103.63706285   197.20565981
 H     35  33  21     2.069168119968   112.02430052    75.25049728
 H     35  33  21     2.070351218079   110.87761967   315.62491824
 C     30  27  24     2.937190522003   116.14501778   166.04255127
 H     37  35  33     2.068183527374   111.75078815   248.69713522
 H     37  35  33     2.072496209372   110.44052629   130.12454775
 H     40  30  27     2.082739340370   106.64581996   320.54190565
 C     40  30  27     2.925776119598   118.83444378    80.84856979
 C     30  27  24     2.901222189774   111.15822445   294.09262761
 H     45  30  27     2.068724659567   111.66380597   186.33693239
 H     45  30  27     2.068059543413   111.46305986    66.34078529
 H     45  30  27     2.070105094630   110.72271831   306.25951665
 H     44  40  30     2.084006514266   106.76663009    62.13280775
 C     44  40  30     2.886872355077   113.48747902   303.05474759
 C     44  40  30     2.856676736181   108.60911507   176.62008851
 C     51  44  40     2.520457129979   126.43645293   113.74724037
 H     51  44  40     2.058068072491   114.84162537   295.11927421
 H     52  51  44     2.062870218591   119.19195327     1.57905200
 C     52  51  44     2.848452970098   126.83188798   180.97089114
 C     55  52  51     2.887093357736   113.83546690     1.85597678
 C     55  52  51     2.938212397000   109.74925424   233.31061196
 H     55  52  51     2.085943830072   106.32250998   119.96858938
 H     57  55  52     2.080775207327   105.82045209   310.32152195
 C     57  55  52     2.892006293828   112.18129499   193.49781851
 C     57  55  52     2.891035533282   112.64847033    67.76284709
 H     56  55  52     2.069900353666   111.72924090   299.21466816
 H     56  55  52     2.067027236903   111.03039059   178.51257905
 H     56  55  52     2.069672997088   110.63100629    59.10409877
 H     60  57  55     2.071569453433   111.38406780    51.60727888
 H     60  57  55     2.070877437869   111.40911663   290.85930654
 H     60  57  55     2.070676271074   110.46115142   171.67152335
 H     61  57  55     2.070198478536   111.38890168   307.93840618
 H     61  57  55     2.070352341017   110.47594268   187.66691468
 H     61  57  55     2.071467403602   111.09867637    68.44083714
 H     50  44  40     2.063218866497   111.11113161    67.99463272
 H     50  44  40     2.071989264391   111.45175329   307.62600153
 H     50  44  40     2.070035657469   110.58162464   187.42735726

---------------------
BASIS SET INFORMATION
---------------------
There are 3 groups of distinct atoms

 Group   1 Type C   : 7s4p contracted to 4s3p pattern {4111/211}
 Group   2 Type H   : 5s contracted to 3s pattern {311}
 Group   3 Type O   : 7s4p contracted to 4s3p pattern {4111/211}

Atom   0C    basis set group =>   1
Atom   1C    basis set group =>   1
Atom   2C    basis set group =>   1
Atom   3H    basis set group =>   2
Atom   4H    basis set group =>   2
Atom   5C    basis set group =>   1
Atom   6C    basis set group =>   1
Atom   7C    basis set group =>   1
Atom   8H    basis set group =>   2
Atom   9H    basis set group =>   2
Atom  10H    basis set group =>   2
Atom  11H    basis set group =>   2
Atom  12O    basis set group =>   3
Atom  13H    basis set group =>   2
Atom  14C    basis set group =>   1
Atom  15C    basis set group =>   1
Atom  16H    basis set group =>   2
Atom  17H    basis set group =>   2
Atom  18C    basis set group =>   1
Atom  19H    basis set group =>   2
Atom  20C    basis set group =>   1
Atom  21H    basis set group =>   2
Atom  22C    basis set group =>   1
Atom  23C    basis set group =>   1
Atom  24H    basis set group =>   2
Atom  25H    basis set group =>   2
Atom  26C    basis set group =>   1
Atom  27H    basis set group =>   2
Atom  28H    basis set group =>   2
Atom  29C    basis set group =>   1
Atom  30H    basis set group =>   2
Atom  31H    basis set group =>   2
Atom  32C    basis set group =>   1
Atom  33H    basis set group =>   2
Atom  34C    basis set group =>   1
Atom  35H    basis set group =>   2
Atom  36C    basis set group =>   1
Atom  37H    basis set group =>   2
Atom  38H    basis set group =>   2
Atom  39C    basis set group =>   1
Atom  40H    basis set group =>   2
Atom  41H    basis set group =>   2
Atom  42H    basis set group =>   2
Atom  43C    basis set group =>   1
Atom  44C    basis set group =>   1
Atom  45H    basis set group =>   2
Atom  46H    basis set group =>   2
Atom  47H    basis set group =>   2
Atom  48H    basis set group =>   2
Atom  49C    basis set group =>   1
Atom  50C    basis set group =>   1
Atom  51C    basis set group =>   1
Atom  52H    basis set group =>   2
Atom  53H    basis set group =>   2
Atom  54C    basis set group =>   1
Atom  55C    basis set group =>   1
Atom  56C    basis set group =>   1
Atom  57H    basis set group =>   2
Atom  58H    basis set group =>   2
Atom  59C    basis set group =>   1
Atom  60C    basis set group =>   1
Atom  61H    basis set group =>   2
Atom  62H    basis set group =>   2
Atom  63H    basis set group =>   2
Atom  64H    basis set group =>   2
Atom  65H    basis set group =>   2
Atom  66H    basis set group =>   2
Atom  67H    basis set group =>   2
Atom  68H    basis set group =>   2
Atom  69H    basis set group =>   2
Atom  70H    basis set group =>   2
Atom  71H    basis set group =>   2
Atom  72H    basis set group =>   2

-------------------------
BASIS SET IN INPUT FORMAT
-------------------------

 # Basis set for element : H 
 NewGTO H 
 S 3 
   1    1357.7500000000      0.0012928364
   2      54.3100000000      0.0588280685
   3       4.3448000000      0.9761499708
 S 1 
   1       0.6604910000      1.0000000000
 S 1 
   1       0.1366870000      1.0000000000
  end;

 # Basis set for element : C 
 NewGTO C 
 S 4 
   1  139534.0000000000      0.0001655246
   2    5581.3600000000      0.0074486101
   3     446.5090000000      0.1285821065
   4      67.4620000000      0.9218029311
 S 1 
   1      15.0674000000      1.0000000000
 S 1 
   1       3.9387600000      1.0000000000
 S 1 
   1       0.2999150000      1.0000000000
 P 2 
   1      28.3900000000      0.0816325586
   2       4.3676900000      0.9660360576
 P 1 
   1       0.8698170000      1.0000000000
 P 1 
   1       0.1889340000      1.0000000000
  end;

 # Basis set for element : O 
 NewGTO O 
 S 4 
   1  253789.0000000000      0.0001641076
   2   10151.6000000000      0.0074010921
   3     812.1250000000      0.1277711901
   4     122.6930000000      0.9223372164
 S 1 
   1      27.5608000000      1.0000000000
 S 1 
   1       7.3172600000      1.0000000000
 S 1 
   1       0.5792400000      1.0000000000
 P 2 
   1      53.4157000000      0.0793786106
   2       8.2177900000      0.9670506337
 P 1 
   1       1.6754400000      1.0000000000
 P 1 
   1       0.3506720000      1.0000000000
  end;

---------------------------------
AUXILIARY/J BASIS SET INFORMATION
---------------------------------
There are 3 groups of distinct atoms

 Group   1 Type C   : 12s5p4d2f1g contracted to 6s4p3d1f1g pattern {711111/2111/211/2/1}
 Group   2 Type H   : 5s2p1d contracted to 3s1p1d pattern {311/2/1}
 Group   3 Type O   : 12s5p4d2f1g contracted to 6s4p3d1f1g pattern {711111/2111/211/2/1}

Atom   0C    basis set group =>   1
Atom   1C    basis set group =>   1
Atom   2C    basis set group =>   1
Atom   3H    basis set group =>   2
Atom   4H    basis set group =>   2
Atom   5C    basis set group =>   1
Atom   6C    basis set group =>   1
Atom   7C    basis set group =>   1
Atom   8H    basis set group =>   2
Atom   9H    basis set group =>   2
Atom  10H    basis set group =>   2
Atom  11H    basis set group =>   2
Atom  12O    basis set group =>   3
Atom  13H    basis set group =>   2
Atom  14C    basis set group =>   1
Atom  15C    basis set group =>   1
Atom  16H    basis set group =>   2
Atom  17H    basis set group =>   2
Atom  18C    basis set group =>   1
Atom  19H    basis set group =>   2
Atom  20C    basis set group =>   1
Atom  21H    basis set group =>   2
Atom  22C    basis set group =>   1
Atom  23C    basis set group =>   1
Atom  24H    basis set group =>   2
Atom  25H    basis set group =>   2
Atom  26C    basis set group =>   1
Atom  27H    basis set group =>   2
Atom  28H    basis set group =>   2
Atom  29C    basis set group =>   1
Atom  30H    basis set group =>   2
Atom  31H    basis set group =>   2
Atom  32C    basis set group =>   1
Atom  33H    basis set group =>   2
Atom  34C    basis set group =>   1
Atom  35H    basis set group =>   2
Atom  36C    basis set group =>   1
Atom  37H    basis set group =>   2
Atom  38H    basis set group =>   2
Atom  39C    basis set group =>   1
Atom  40H    basis set group =>   2
Atom  41H    basis set group =>   2
Atom  42H    basis set group =>   2
Atom  43C    basis set group =>   1
Atom  44C    basis set group =>   1
Atom  45H    basis set group =>   2
Atom  46H    basis set group =>   2
Atom  47H    basis set group =>   2
Atom  48H    basis set group =>   2
Atom  49C    basis set group =>   1
Atom  50C    basis set group =>   1
Atom  51C    basis set group =>   1
Atom  52H    basis set group =>   2
Atom  53H    basis set group =>   2
Atom  54C    basis set group =>   1
Atom  55C    basis set group =>   1
Atom  56C    basis set group =>   1
Atom  57H    basis set group =>   2
Atom  58H    basis set group =>   2
Atom  59C    basis set group =>   1
Atom  60C    basis set group =>   1
Atom  61H    basis set group =>   2
Atom  62H    basis set group =>   2
Atom  63H    basis set group =>   2
Atom  64H    basis set group =>   2
Atom  65H    basis set group =>   2
Atom  66H    basis set group =>   2
Atom  67H    basis set group =>   2
Atom  68H    basis set group =>   2
Atom  69H    basis set group =>   2
Atom  70H    basis set group =>   2
Atom  71H    basis set group =>   2
Atom  72H    basis set group =>   2

-------------------------------------
AUXILIARY/J BASIS SET IN INPUT FORMAT
-------------------------------------

 # Auxiliary/J basis set for element : H 
 NewAuxJGTO H 
 S 3 
   1      15.6752927000      0.1007184237
   2       3.6063578000      0.3404257499
   3       1.2080016000      0.6491996172
 S 1 
   1       0.4726794000      1.0000000000
 S 1 
   1       0.2018100000      1.0000000000
 P 2 
   1       2.0281365000      0.5596620919
   2       0.5358730000      0.5596620919
 D 1 
   1       2.2165124000      1.0000000000
  end;

 # Auxiliary/J basis set for element : C 
 NewAuxJGTO C 
 S 7 
   1    1861.0916331000      0.0134602335
   2     642.9939764000      0.0299160374
   3     235.1105725000      0.1008649584
   4      90.7028894000      0.2370970548
   5      36.7794552000      0.3924037254
   6      15.6046273000      0.3195862154
   7       6.8907294000      0.0530104441
 S 1 
   1       3.1478850000     -1.0000000000
 S 1 
   1       1.4777287000      1.0000000000
 S 1 
   1       0.7076466000      1.0000000000
 S 1 
   1       0.3430122000      1.0000000000
 S 1 
   1       0.1669453000      1.0000000000
 P 2 
   1      13.5472892000     -0.6769313712
   2       5.4669419000     -0.3779500978
 P 1 
   1       2.1751721000      1.0000000000
 P 1 
   1       0.8582194000      1.0000000000
 P 1 
   1       0.3376720000      1.0000000000
 D 2 
   1       5.9287253000     -0.3533329857
   2       1.9809209000     -0.7456525731
 D 1 
   1       0.8055417000     -1.0000000000
 D 1 
   1       0.3531244000     -1.0000000000
 F 2 
   1       1.6755626000      0.6311076882
   2       0.5997536000      0.4968166032
 G 1 
   1       1.0024600000     -1.0000000000
  end;

 # Auxiliary/J basis set for element : O 
 NewAuxJGTO O 
 S 7 
   1    2876.8216605000      0.0168151159
   2    1004.7443032000      0.0340137548
   3     369.7579954000      0.1194951309
   4     142.9442404000      0.2664627624
   5      57.8366425000      0.4202764046
   6      24.3864983000      0.2765077335
   7      10.6622662000      0.0057008815
 S 1 
   1       4.8070437000     -1.0000000000
 S 1 
   1       2.2210770000      1.0000000000
 S 1 
   1       1.0447795000      1.0000000000
 S 1 
   1       0.4968425000      1.0000000000
 S 1 
   1       0.2371384000      1.0000000000
 P 2 
   1      64.2613382000     -0.2731534179
   2      16.3006076000     -0.8168011598
 P 1 
   1       4.3550542000      1.0000000000
 P 1 
   1       1.2019554000      1.0000000000
 P 1 
   1       0.3354196000      1.0000000000
 D 2 
   1       9.2146611000     -0.4661230638
   2       2.8435251000     -0.6600908911
 D 1 
   1       0.9955759000     -1.0000000000
 D 1 
   1       0.3649441000     -1.0000000000
 F 2 
   1       2.6420115000      0.5931563945
   2       0.7345613000      0.5931563945
 G 1 
   1       1.3931000000     -1.0000000000
  end;



           ************************************************************
           *        Program running with 4 parallel MPI-processes     *
           *              working on a common directory               *
           ************************************************************
------------------------------------------------------------------------------
                           ORCA GTO INTEGRAL CALCULATION
                           -- RI-GTO INTEGRALS CHOSEN --
------------------------------------------------------------------------------
------------------------------------------------------------------------------
                   ___                                                        
                  /   \      - P O W E R E D   B Y -                         
                 /     \                                                     
                 |  |  |   _    _      __       _____    __    __             
                 |  |  |  | |  | |    /  \     |  _  \  |  |  /  |          
                  \  \/   | |  | |   /    \    | | | |  |  | /  /          
                 / \  \   | |__| |  /  /\  \   | |_| |  |  |/  /          
                |  |  |   |  __  | /  /__\  \  |    /   |      \           
                |  |  |   | |  | | |   __   |  |    \   |  |\   \          
                \     /   | |  | | |  |  |  |  | |\  \  |  | \   \       
                 \___/    |_|  |_| |__|  |__|  |_| \__\ |__|  \__/        
                                                                              
                      - O R C A' S   B I G   F R I E N D -                    
                                      &                                       
                       - I N T E G R A L  F E E D E R -                       
                                                                              
 v1 FN, 2020, v2 2021                                                         
------------------------------------------------------------------------------


Reading SHARK input file inpJ.SHARKINP.tmp ... ok
----------------------
SHARK INTEGRAL PACKAGE
----------------------

Number of atoms                             ...     73
Number of basis functions                   ...    509
Number of shells                            ...    335
Maximum angular momentum                    ...      1
Integral batch strategy                     ... SHARK/LIBINT Hybrid
RI-J (if used) integral strategy            ... SPLIT-RIJ (Revised 2003 algorithm where possible)
Printlevel                                  ...      1
Contraction scheme used                     ... SEGMENTED contraction
Coulomb Range Separation                    ... NOT USED
Exchange Range Separation                   ... NOT USED
Finite Nucleus Model                        ... NOT USED
Auxiliary Coulomb fitting basis             ... AVAILABLE
   # of basis functions in Aux-J            ...   1905
   # of shells in Aux-J                     ...    655
   Maximum angular momentum in Aux-J        ...      4
Auxiliary J/K fitting basis                 ... NOT available
Auxiliary Correlation fitting basis         ... NOT available
Auxiliary 'external' fitting basis          ... NOT available
Integral threshold                          ...     3.000000e-11
Primitive cut-off                           ...     1.000000e-12
Primitive pair pre-selection threshold      ...     1.000000e-12

Calculating pre-screening integrals         ... done (  0.0 sec) Dimension = 335
Organizing shell pair data                  ... done (  0.1 sec)
Shell pair information
Total number of shell pairs                 ...     56280
Shell pairs after pre-screening             ...     21621
Total number of primitive shell pairs       ...    145865
Primitive shell pairs kept                  ...     37155
          la=0 lb=0:  10861 shell pairs
          la=1 lb=0:   8905 shell pairs
          la=1 lb=1:   1855 shell pairs

Calculating one electron integrals          ... done (  0.0 sec)
Calculating RI/J V-Matrix + Cholesky decomp.... done (  0.1 sec)
Calculating Nuclear repulsion               ... done (  0.0 sec) ENN=   2768.200775201832 Eh

SHARK setup successfully completed in   0.4 seconds

Maximum memory used throughout the entire GTOINT-calculation: 46.1 MB


           ************************************************************
           *        Program running with 4 parallel MPI-processes     *
           *              working on a common directory               *
           ************************************************************
-------------------------------------------------------------------------------
                                 ORCA SCF
-------------------------------------------------------------------------------

------------
SCF SETTINGS
------------
Hamiltonian:
 Density Functional     Method          .... DFT(GTOs)
 Exchange Functional    Exchange        .... PBE
   PBE kappa parameter   XKappa         ....  0.804000
   PBE mue parameter    XMuePBE         ....  0.219520
 Correlation Functional Correlation     .... PBE
   PBE beta parameter  CBetaPBE         ....  0.066725
 LDA part of GGA corr.  LDAOpt          .... PW91-LDA
 Gradients option       PostSCFGGA      .... off
 Hybrid DFT is turned on
   Fraction HF Exchange ScalHFX         ....  0.250000
   Scaling of DF-GGA-X  ScalDFX         ....  0.750000
   Scaling of DF-GGA-C  ScalDFC         ....  1.000000
   Scaling of DF-LDA-C  ScalLDAC        ....  1.000000
   Perturbative correction              ....  0.000000
   Density functional embedding theory  .... OFF
   NL short-range parameter             ....  6.900000
 RI-approximation to the Coulomb term is turned on
   Number of AuxJ basis functions       .... 1905
   RIJ-COSX (HFX calculated with COS-X)).... on


General Settings:
 Integral files         IntName         .... inpJ
 Hartree-Fock type      HFTyp           .... RHF
 Total Charge           Charge          ....    0
 Multiplicity           Mult            ....    1
 Number of Electrons    NEL             ....  220
 Basis Dimension        Dim             ....  509
 Nuclear Repulsion      ENuc            ....   2768.2007752018 Eh

Convergence Acceleration:
 DIIS                   CNVDIIS         .... on
   Start iteration      DIISMaxIt       ....    12
   Startup error        DIISStart       ....  0.200000
   # of expansion vecs  DIISMaxEq       ....     5
   Bias factor          DIISBfac        ....   1.050
   Max. coefficient     DIISMaxC        ....  10.000
 Trust-Rad. Augm. Hess. CNVTRAH         .... auto
   Auto Start mean grad. ratio tolernc. ....  1.125000
   Auto Start start iteration           ....    20
   Auto Start num. interpolation iter.  ....    10
   Max. Number of Micro iterations      ....    16
   Max. Number of Macro iterations      .... Maxiter - #DIIS iter
   Number of Davidson start vectors     ....     2
   Converg. threshold I  (grad. norm)   ....   1.000e-04
   Converg. threshold II (energy diff.) ....   1.000e-07
   Grad. Scal. Fac. for Micro threshold ....   0.100
   Minimum threshold for Micro iter.    ....   0.010
   NR start threshold (gradient norm)   ....   0.001
   Initial trust radius                 ....   0.400
   Minimum AH scaling param. (alpha)    ....   1.000
   Maximum AH scaling param. (alpha)    .... 1000.000
   Orbital update algorithm             .... Taylor
   White noise on init. David. guess    .... on
   Maximum white noise                  ....   0.010
   Quad. conv. algorithm                .... NR
 SOSCF                  CNVSOSCF        .... off
 Level Shifting         CNVShift        .... on
   Level shift para.    LevelShift      ....    0.2500
   Turn off err/grad.   ShiftErr        ....    0.0010
 Zerner damping         CNVZerner       .... off
 Static damping         CNVDamp         .... on
   Fraction old density DampFac         ....    0.7000
   Max. Damping (<1)    DampMax         ....    0.9800
   Min. Damping (>=0)   DampMin         ....    0.0000
   Turn off err/grad.   DampErr         ....    0.1000
 Fernandez-Rico         CNVRico         .... off

SCF Procedure:
 Maximum # iterations   MaxIter         ....   125
 SCF integral mode      SCFMode         .... Direct
   Integral package                     .... SHARK and LIBINT hybrid scheme
 Reset frequency        DirectResetFreq ....    20
 Integral Threshold     Thresh          ....  3.000e-11 Eh
 Primitive CutOff       TCut            ....  1.000e-12 Eh

Convergence Tolerance:
 Convergence Check Mode ConvCheckMode   .... Total+1el-Energy
 Convergence forced     ConvForced      .... 0
 Energy Change          TolE            ....  1.000e-07 Eh
 1-El. energy change                    ....  1.000e-04 Eh
 DIIS Error             TolErr          ....  1.000e-07


Diagonalization of the overlap matrix:
Smallest eigenvalue                        ... 7.579e-03
Time for diagonalization                   ...    0.029 sec
Threshold for overlap eigenvalues          ... 1.000e-08
Number of eigenvalues below threshold      ... 0
Time for construction of square roots      ...    0.032 sec
Total time needed                          ...    0.062 sec

Time for model grid setup =    0.707 sec

------------------------------
INITIAL GUESS: MODEL POTENTIAL
------------------------------
Loading Hartree-Fock densities                     ... done
Calculating cut-offs                               ... done
Initializing the effective Hamiltonian             ... done
Setting up the integral package (SHARK)            ... done
Starting the Coulomb interaction                   ... done (   0.3 sec)
Reading the grid                                   ... done
Mapping shells                                     ... done
Starting the XC term evaluation                    ... done (   0.1 sec)
  promolecular density results
     # of electrons  =    219.972049324
     EX              =   -164.433338893
     EC              =     -7.328586290
     EX+EC           =   -171.761925184
Transforming the Hamiltonian                       ... done (   0.0 sec)
Diagonalizing the Hamiltonian                      ... done (   0.0 sec)
Back transforming the eigenvectors                 ... done (   0.0 sec)
Now organizing SCF variables                       ... done
                      ------------------
                      INITIAL GUESS DONE (   1.2 sec)
                      ------------------
-------------------
DFT GRID GENERATION
-------------------

General Integration Accuracy     IntAcc      ... 4.388
Radial Grid Type                 RadialGrid  ... OptM3 with GC (2021)
Angular Grid (max. ang.)         AngularGrid ... 4 (Lebedev-302)
Angular grid pruning method      GridPruning ... 4 (adaptive)
Weight generation scheme         WeightScheme... Becke
Basis function cutoff            BFCut       ... 1.0000e-11
Integration weight cutoff        WCut        ... 1.0000e-14
Angular grids for H and He will be reduced by one unit
Partially contracted basis set               ... off
Rotationally invariant grid construction     ... off

Total number of grid points                  ...   309853
Total number of batches                      ...     4878
Average number of points per batch           ...       63
Average number of grid points per atom       ...     4245
Time for grid setup =    2.819 sec

--------------------
COSX GRID GENERATION
--------------------

GRIDX 1
-------
General Integration Accuracy     IntAcc      ... 3.816
Radial Grid Type                 RadialGrid  ... OptM3 with GC (2021)
Angular Grid (max. ang.)         AngularGrid ... 1 (Lebedev-50)
Angular grid pruning method      GridPruning ... 4 (adaptive)
Weight generation scheme         WeightScheme... Becke
Basis function cutoff            BFCut       ... 1.0000e-11
Integration weight cutoff        WCut        ... 1.0000e-14
Angular grids for H and He will be reduced by one unit
Partially contracted basis set               ... on
Rotationally invariant grid construction     ... off

Total number of grid points                  ...    39429
Total number of batches                      ...      657
Average number of points per batch           ...       60
Average number of grid points per atom       ...      540
UseSFitting                                  ... on

GRIDX 2
-------
General Integration Accuracy     IntAcc      ... 4.020
Radial Grid Type                 RadialGrid  ... OptM3 with GC (2021)
Angular Grid (max. ang.)         AngularGrid ... 2 (Lebedev-110)
Angular grid pruning method      GridPruning ... 4 (adaptive)
Weight generation scheme         WeightScheme... Becke
Basis function cutoff            BFCut       ... 1.0000e-11
Integration weight cutoff        WCut        ... 1.0000e-14
Angular grids for H and He will be reduced by one unit
Partially contracted basis set               ... on
Rotationally invariant grid construction     ... off

Total number of grid points                  ...    81428
Total number of batches                      ...     1311
Average number of points per batch           ...       62
Average number of grid points per atom       ...     1115
UseSFitting                                  ... on

GRIDX 3
-------
General Integration Accuracy     IntAcc      ... 4.338
Radial Grid Type                 RadialGrid  ... OptM3 with GC (2021)
Angular Grid (max. ang.)         AngularGrid ... 3 (Lebedev-194)
Angular grid pruning method      GridPruning ... 4 (adaptive)
Weight generation scheme         WeightScheme... Becke
Basis function cutoff            BFCut       ... 1.0000e-11
Integration weight cutoff        WCut        ... 1.0000e-14
Angular grids for H and He will be reduced by one unit
Partially contracted basis set               ... on
Rotationally invariant grid construction     ... off

Total number of grid points                  ...   176255
Total number of batches                      ...     2788
Average number of points per batch           ...       63
Average number of grid points per atom       ...     2414
UseSFitting                                  ... on

Time for X-Grid setup             =    2.673 sec


--------------------
CPCM SOLVATION MODEL
--------------------
CPCM parameters:
  Epsilon                                         ...       4.9000
  Refrac                                          ...       1.4500
  Rsolv                                           ...       1.3000
  Surface type                                    ... GAUSSIAN VDW
  Epsilon function type                           ...         CPCM
Radii:
 Radius for C  used is    3.8550 Bohr (=   2.0400 Ang.)
 Radius for H  used is    2.4944 Bohr (=   1.3200 Ang.)
 Radius for O  used is    3.4469 Bohr (=   1.8240 Ang.)
Calculating surface                               ...        done! (  0.0s)
GEPOL surface points                              ...         3613
GEPOL Volume                                      ...    3595.8488
GEPOL Surface-area                                ...    1776.3356
Calculating surface distance matrix               ...        done! (  0.1s)
Performing Cholesky decomposition & store         ...        done! (  0.5s)
Overall time for CPCM initialization              ...                 0.6s
--------------
SCF ITERATIONS
--------------
ITER       Energy         Delta-E        Max-DP      RMS-DP      [F,P]     Damp
               ***  Starting incremental Fock matrix formation  ***

  HOMO= 109 E= -3.980 eV LUMO=  7.699 eV gap=  11.679 eV
  0  -1165.0090530640   0.000000000000 0.09728380  0.00107114  0.1967306 0.7000

  HOMO= 109 E= -4.846 eV LUMO=  7.014 eV gap=  11.860 eV
  1  -1165.2291404300  -0.220087366023 0.06526338  0.00078707  0.0952690 0.7000
                               ***Turning on DIIS***

  HOMO= 109 E= -5.445 eV LUMO=  6.465 eV gap=  11.910 eV
  2  -1165.3303192660  -0.101178835966 0.10333865  0.00138968  0.0375586 0.0000

  HOMO= 109 E= -6.002 eV LUMO=  5.936 eV gap=  11.938 eV
  3  -1165.4751143993  -0.144795133393 0.05135467  0.00057626  0.0460775 0.0000

  HOMO= 109 E= -6.072 eV LUMO=  5.865 eV gap=  11.937 eV
  4  -1165.5108984314  -0.035784032002 0.01168389  0.00013398  0.0058931 0.0000

  HOMO= 109 E= -6.021 eV LUMO=  5.924 eV gap=  11.944 eV
  5  -1165.5117490483  -0.000850616960 0.00250148  0.00003797  0.0050630 0.0000

  HOMO= 109 E= -6.007 eV LUMO=  5.938 eV gap=  11.945 eV
  6  -1165.5118272688  -0.000078220518 0.00117448  0.00001172  0.0010785 0.0000

  HOMO= 109 E= -6.009 eV LUMO= -0.867 eV gap=   5.142 eV
  7  -1165.5118323915  -0.000005122699 0.00049482  0.00000602  0.0002271 0.0000
               *** Restarting incremental Fock matrix formation ***
                                   *** Resetting DIIS ***

  HOMO= 109 E= -6.008 eV LUMO= -0.865 eV gap=   5.143 eV
  8  -1165.5118498975  -0.000017506004 0.00035943  0.00000281  0.0001157 0.0000

  HOMO= 109 E= -6.008 eV LUMO= -0.866 eV gap=   5.143 eV
  9  -1165.5118499348  -0.000000037304 0.00013336  0.00000127  0.0001568 0.0000

  HOMO= 109 E= -6.009 eV LUMO= -0.866 eV gap=   5.143 eV
 10  -1165.5118500504  -0.000000115540 0.00006409  0.00000040  0.0000334 0.0000

  HOMO= 109 E= -6.009 eV LUMO= -0.866 eV gap=   5.143 eV
 11  -1165.5118500764  -0.000000025980 0.00002566  0.00000018  0.0000191 0.0000

  HOMO= 109 E= -6.009 eV LUMO= -0.866 eV gap=   5.143 eV
 12  -1165.5118500698   0.000000006557 0.00000716  0.00000005  0.0000035 0.0000
                 **** Energy Check signals convergence ****

               *****************************************************
               *                     SUCCESS                       *
               *           SCF CONVERGED AFTER  13 CYCLES          *
               *****************************************************

Old exchange energy                            =    -42.068193722 Eh
New exchange energy                            =    -42.068147841 Eh
Exchange energy change after final integration =      0.000045881 Eh
Total energy after final integration           =  -1165.511804195 Eh
Final COS-X integration done in                =    14.307 sec

----------------
TOTAL SCF ENERGY
----------------

Total Energy       :        -1165.51180420 Eh          -31715.18856 eV

Components:
Nuclear Repulsion  :         2768.20077520 Eh           75326.57262 eV
Electronic Energy  :        -3933.71257940 Eh         -107041.76118 eV
One Electron Energy:        -7078.10931755 Eh         -192605.14639 eV
Two Electron Energy:         3144.39673815 Eh           85563.38520 eV
Max COSX asymmetry :            0.00000290 Eh               0.00008 eV
CPCM Dielectric    :           -0.01346443 Eh              -0.36639 eV

Virial components:
Potential Energy   :        -2322.40662665 Eh          -63195.89713 eV
Kinetic Energy     :         1156.89482245 Eh           31480.70857 eV
Virial Ratio       :            2.00744837


DFT components:
N(Alpha)           :      110.000145764037 electrons
N(Beta)            :      110.000145764037 electrons
N(Total)           :      220.000291528074 electrons
E(X)               :     -125.746782804329 Eh       
E(C)               :       -7.329135146312 Eh       
E(XC)              :     -133.075917950641 Eh       
DFET-embed. en.    :        0.000000000000 Eh       
CPCM Solvation Model Properties:
Surface-charge          :           -0.03471015
Charge-correction       :           -0.00008142 Eh              -0.00222 eV
Free-energy (cav+disp)  :  This term is not implemented in the current solvation scheme

---------------
SCF CONVERGENCE
---------------

  Last Energy change         ...   -6.4263e-09  Tolerance :   1.0000e-07
  Last MAX-Density change    ...    0.0000e+00  Tolerance :   1.0000e-05
  Last RMS-Density change    ...    0.0000e+00  Tolerance :   1.0000e-06
  Last DIIS Error            ...    2.3270e-06  Tolerance :   1.0000e-07

             **** THE GBW FILE WAS UPDATED (inpJ.gbw) ****
             **** DENSITY inpJ.scfp WAS UPDATED ****
             **** ENERGY FILE WAS UPDATED (inpJ.en.tmp) ****
             **** THE GBW FILE WAS UPDATED (inpJ.gbw) ****
             **** DENSITY inpJ.scfp WAS UPDATED ****
----------------
ORBITAL ENERGIES
----------------

  NO   OCC          E(Eh)            E(eV) 
   0   2.0000     -19.212529      -522.7995 
   1   2.0000     -10.300465      -280.2899 
   2   2.0000     -10.270478      -279.4739 
   3   2.0000     -10.268293      -279.4145 
   4   2.0000     -10.263808      -279.2924 
   5   2.0000     -10.257530      -279.1216 
   6   2.0000     -10.257452      -279.1194 
   7   2.0000     -10.252125      -278.9745 
   8   2.0000     -10.250810      -278.9387 
   9   2.0000     -10.248887      -278.8864 
  10   2.0000     -10.248161      -278.8666 
  11   2.0000     -10.247597      -278.8513 
  12   2.0000     -10.246918      -278.8328 
  13   2.0000     -10.246667      -278.8260 
  14   2.0000     -10.244779      -278.7746 
  15   2.0000     -10.242814      -278.7211 
  16   2.0000     -10.242653      -278.7168 
  17   2.0000     -10.241796      -278.6934 
  18   2.0000     -10.241642      -278.6892 
  19   2.0000     -10.241478      -278.6848 
  20   2.0000     -10.240124      -278.6479 
  21   2.0000     -10.235771      -278.5295 
  22   2.0000     -10.235400      -278.5194 
  23   2.0000     -10.234182      -278.4863 
  24   2.0000     -10.224790      -278.2307 
  25   2.0000     -10.224256      -278.2161 
  26   2.0000     -10.224201      -278.2146 
  27   2.0000     -10.221846      -278.1506 
  28   2.0000     -10.221317      -278.1362 
  29   2.0000      -1.043296       -28.3895 
  30   2.0000      -0.901975       -24.5440 
  31   2.0000      -0.882169       -24.0050 
  32   2.0000      -0.859893       -23.3989 
  33   2.0000      -0.846463       -23.0334 
  34   2.0000      -0.822617       -22.3846 
  35   2.0000      -0.814817       -22.1723 
  36   2.0000      -0.796005       -21.6604 
  37   2.0000      -0.795153       -21.6372 
  38   2.0000      -0.776218       -21.1220 
  39   2.0000      -0.758826       -20.6487 
  40   2.0000      -0.741191       -20.1688 
  41   2.0000      -0.729005       -19.8372 
  42   2.0000      -0.715448       -19.4683 
  43   2.0000      -0.702948       -19.1282 
  44   2.0000      -0.701975       -19.1017 
  45   2.0000      -0.696394       -18.9498 
  46   2.0000      -0.674038       -18.3415 
  47   2.0000      -0.670532       -18.2461 
  48   2.0000      -0.636837       -17.3292 
  49   2.0000      -0.622485       -16.9387 
  50   2.0000      -0.613322       -16.6894 
  51   2.0000      -0.606400       -16.5010 
  52   2.0000      -0.597636       -16.2625 
  53   2.0000      -0.572629       -15.5820 
  54   2.0000      -0.556283       -15.1372 
  55   2.0000      -0.541490       -14.7347 
  56   2.0000      -0.534222       -14.5369 
  57   2.0000      -0.529503       -14.4085 
  58   2.0000      -0.515318       -14.0225 
  59   2.0000      -0.510261       -13.8849 
  60   2.0000      -0.504062       -13.7162 
  61   2.0000      -0.493584       -13.4311 
  62   2.0000      -0.487065       -13.2537 
  63   2.0000      -0.481182       -13.0936 
  64   2.0000      -0.476102       -12.9554 
  65   2.0000      -0.466492       -12.6939 
  66   2.0000      -0.465201       -12.6588 
  67   2.0000      -0.462626       -12.5887 
  68   2.0000      -0.459481       -12.5031 
  69   2.0000      -0.454854       -12.3772 
  70   2.0000      -0.450804       -12.2670 
  71   2.0000      -0.441348       -12.0097 
  72   2.0000      -0.438409       -11.9297 
  73   2.0000      -0.435036       -11.8379 
  74   2.0000      -0.430878       -11.7248 
  75   2.0000      -0.423350       -11.5199 
  76   2.0000      -0.418053       -11.3758 
  77   2.0000      -0.413186       -11.2434 
  78   2.0000      -0.412594       -11.2273 
  79   2.0000      -0.406184       -11.0528 
  80   2.0000      -0.401073       -10.9138 
  81   2.0000      -0.397381       -10.8133 
  82   2.0000      -0.396933       -10.8011 
  83   2.0000      -0.387142       -10.5347 
  84   2.0000      -0.382380       -10.4051 
  85   2.0000      -0.376981       -10.2582 
  86   2.0000      -0.375129       -10.2078 
  87   2.0000      -0.373232       -10.1562 
  88   2.0000      -0.365329        -9.9411 
  89   2.0000      -0.364329        -9.9139 
  90   2.0000      -0.360341        -9.8054 
  91   2.0000      -0.357116        -9.7176 
  92   2.0000      -0.350582        -9.5398 
  93   2.0000      -0.346237        -9.4216 
  94   2.0000      -0.343616        -9.3503 
  95   2.0000      -0.339559        -9.2399 
  96   2.0000      -0.338679        -9.2159 
  97   2.0000      -0.334557        -9.1038 
  98   2.0000      -0.332837        -9.0570 
  99   2.0000      -0.328711        -8.9447 
 100   2.0000      -0.326887        -8.8951 
 101   2.0000      -0.323493        -8.8027 
 102   2.0000      -0.321078        -8.7370 
 103   2.0000      -0.319234        -8.6868 
 104   2.0000      -0.311233        -8.4691 
 105   2.0000      -0.302343        -8.2272 
 106   2.0000      -0.276779        -7.5315 
 107   2.0000      -0.275238        -7.4896 
 108   2.0000      -0.255025        -6.9396 
 109   2.0000      -0.220812        -6.0086 
 110   0.0000      -0.031811        -0.8656 
 111   0.0000       0.019412         0.5282 
 112   0.0000       0.031147         0.8476 
 113   0.0000       0.082041         2.2324 
 114   0.0000       0.091909         2.5010 
 115   0.0000       0.098921         2.6918 
 116   0.0000       0.104026         2.8307 
 117   0.0000       0.107204         2.9172 
 118   0.0000       0.109580         2.9818 
 119   0.0000       0.112172         3.0524 
 120   0.0000       0.117281         3.1914 
 121   0.0000       0.121384         3.3030 
 122   0.0000       0.127469         3.4686 
 123   0.0000       0.128132         3.4867 
 124   0.0000       0.133071         3.6211 
 125   0.0000       0.136120         3.7040 
 126   0.0000       0.137438         3.7399 
 127   0.0000       0.140158         3.8139 
 128   0.0000       0.143485         3.9044 
 129   0.0000       0.150287         4.0895 
 130   0.0000       0.152605         4.1526 
 131   0.0000       0.157904         4.2968 
 132   0.0000       0.161361         4.3908 
 133   0.0000       0.164341         4.4720 
 134   0.0000       0.167402         4.5552 
 135   0.0000       0.168193         4.5768 
 136   0.0000       0.174365         4.7447 
 137   0.0000       0.176470         4.8020 
 138   0.0000       0.177933         4.8418 
 139   0.0000       0.179958         4.8969 
 140   0.0000       0.181680         4.9438 
 141   0.0000       0.185745         5.0544 
 142   0.0000       0.186601         5.0777 
 143   0.0000       0.191857         5.2207 
 144   0.0000       0.194241         5.2856 
 145   0.0000       0.195819         5.3285 
 146   0.0000       0.200828         5.4648 
 147   0.0000       0.203505         5.5377 
 148   0.0000       0.204901         5.5756 
 149   0.0000       0.208772         5.6810 
 150   0.0000       0.217556         5.9200 
 151   0.0000       0.219188         5.9644 
 152   0.0000       0.225794         6.1442 
 153   0.0000       0.227953         6.2029 
 154   0.0000       0.231216         6.2917 
 155   0.0000       0.233111         6.3433 
 156   0.0000       0.239618         6.5203 
 157   0.0000       0.245260         6.6739 
 158   0.0000       0.245911         6.6916 
 159   0.0000       0.250812         6.8249 
 160   0.0000       0.253423         6.8960 
 161   0.0000       0.255955         6.9649 
 162   0.0000       0.264622         7.2007 
 163   0.0000       0.265361         7.2208 
 164   0.0000       0.269082         7.3221 
 165   0.0000       0.271178         7.3791 
 166   0.0000       0.275431         7.4949 
 167   0.0000       0.280850         7.6423 
 168   0.0000       0.284459         7.7405 
 169   0.0000       0.287983         7.8364 
 170   0.0000       0.295813         8.0495 
 171   0.0000       0.300789         8.1849 
 172   0.0000       0.303924         8.2702 
 173   0.0000       0.305893         8.3238 
 174   0.0000       0.310521         8.4497 
 175   0.0000       0.318986         8.6800 
 176   0.0000       0.319774         8.7015 
 177   0.0000       0.335817         9.1381 
 178   0.0000       0.348495         9.4830 
 179   0.0000       0.354076         9.6349 
 180   0.0000       0.363111         9.8808 
 181   0.0000       0.378953        10.3118 
 182   0.0000       0.381383        10.3780 
 183   0.0000       0.409350        11.1390 
 184   0.0000       0.421375        11.4662 
 185   0.0000       0.463079        12.6010 
 186   0.0000       0.484802        13.1921 
 187   0.0000       0.492607        13.4045 
 188   0.0000       0.505658        13.7597 
 189   0.0000       0.510781        13.8990 
 190   0.0000       0.517176        14.0731 
 191   0.0000       0.520707        14.1692 
 192   0.0000       0.537903        14.6371 
 193   0.0000       0.563176        15.3248 
 194   0.0000       0.571441        15.5497 
 195   0.0000       0.573162        15.5965 
 196   0.0000       0.578834        15.7509 
 197   0.0000       0.588524        16.0146 
 198   0.0000       0.606804        16.5120 
 199   0.0000       0.612929        16.6786 
 200   0.0000       0.618085        16.8189 
 201   0.0000       0.628343        17.0981 
 202   0.0000       0.628463        17.1013 
 203   0.0000       0.631048        17.1717 
 204   0.0000       0.646405        17.5896 
 205   0.0000       0.659640        17.9497 
 206   0.0000       0.660255        17.9665 
 207   0.0000       0.665786        18.1170 
 208   0.0000       0.668303        18.1855 
 209   0.0000       0.670603        18.2480 
 210   0.0000       0.679571        18.4921 
 211   0.0000       0.687663        18.7123 
 212   0.0000       0.694688        18.9034 
 213   0.0000       0.701866        19.0987 
 214   0.0000       0.707168        19.2430 
 215   0.0000       0.709005        19.2930 
 216   0.0000       0.714933        19.4543 
 217   0.0000       0.715073        19.4581 
 218   0.0000       0.720404        19.6032 
 219   0.0000       0.727786        19.8041 
 220   0.0000       0.733567        19.9614 
 221   0.0000       0.741479        20.1767 
 222   0.0000       0.743438        20.2300 
 223   0.0000       0.746145        20.3036 
 224   0.0000       0.748691        20.3729 
 225   0.0000       0.752174        20.4677 
 226   0.0000       0.756361        20.5816 
 227   0.0000       0.763000        20.7623 
 228   0.0000       0.764457        20.8019 
 229   0.0000       0.770207        20.9584 
 230   0.0000       0.773132        21.0380 
 231   0.0000       0.775353        21.0984 
 232   0.0000       0.779472        21.2105 
 233   0.0000       0.781648        21.2697 
 234   0.0000       0.788604        21.4590 
 235   0.0000       0.792536        21.5660 
 236   0.0000       0.796122        21.6636 
 237   0.0000       0.801908        21.8210 
 238   0.0000       0.812122        22.0990 
 239   0.0000       0.815711        22.1966 
 240   0.0000       0.822488        22.3810 
 241   0.0000       0.827870        22.5275 
 242   0.0000       0.836803        22.7706 
 243   0.0000       0.847183        23.0530 
 244   0.0000       0.850168        23.1342 
 245   0.0000       0.854869        23.2622 
 246   0.0000       0.857309        23.3286 
 247   0.0000       0.862537        23.4708 
 248   0.0000       0.865336        23.5470 
 249   0.0000       0.867117        23.5954 
 250   0.0000       0.871962        23.7273 
 251   0.0000       0.875358        23.8197 
 252   0.0000       0.877160        23.8687 
 253   0.0000       0.877485        23.8776 
 254   0.0000       0.881643        23.9907 
 255   0.0000       0.883132        24.0312 
 256   0.0000       0.885353        24.0917 
 257   0.0000       0.887978        24.1631 
 258   0.0000       0.890925        24.2433 
 259   0.0000       0.893493        24.3132 
 260   0.0000       0.898767        24.4567 
 261   0.0000       0.899713        24.4824 
 262   0.0000       0.901977        24.5440 
 263   0.0000       0.904016        24.5995 
 264   0.0000       0.911832        24.8122 
 265   0.0000       0.915815        24.9206 
 266   0.0000       0.922214        25.0947 
 267   0.0000       0.923425        25.1277 
 268   0.0000       0.930408        25.3177 
 269   0.0000       0.933587        25.4042 
 270   0.0000       0.935200        25.4481 
 271   0.0000       0.940804        25.6006 
 272   0.0000       0.942203        25.6387 
 273   0.0000       0.946295        25.7500 
 274   0.0000       0.952844        25.9282 
 275   0.0000       0.961538        26.1648 
 276   0.0000       0.965679        26.2775 
 277   0.0000       0.966847        26.3092 
 278   0.0000       0.970004        26.3952 
 279   0.0000       0.978693        26.6316 
 280   0.0000       0.993951        27.0468 
 281   0.0000       0.996673        27.1209 
 282   0.0000       1.002495        27.2793 
 283   0.0000       1.006830        27.3972 
 284   0.0000       1.014086        27.5947 
 285   0.0000       1.025314        27.9002 
 286   0.0000       1.032452        28.0945 
 287   0.0000       1.044884        28.4327 
 288   0.0000       1.058013        28.7900 
 289   0.0000       1.064438        28.9648 
 290   0.0000       1.070530        29.1306 
 291   0.0000       1.080517        29.4024 
 292   0.0000       1.082873        29.4665 
 293   0.0000       1.091713        29.7070 
 294   0.0000       1.100833        29.9552 
 295   0.0000       1.105442        30.0806 
 296   0.0000       1.116435        30.3797 
 297   0.0000       1.126216        30.6459 
 298   0.0000       1.138576        30.9822 
 299   0.0000       1.150732        31.3130 
 300   0.0000       1.164135        31.6777 
 301   0.0000       1.169654        31.8279 
 302   0.0000       1.197727        32.5918 
 303   0.0000       1.204441        32.7745 
 304   0.0000       1.233428        33.5633 
 305   0.0000       1.238499        33.7013 
 306   0.0000       1.240861        33.7655 
 307   0.0000       1.266309        34.4580 
 308   0.0000       1.298778        35.3415 
 309   0.0000       1.312724        35.7210 
 310   0.0000       1.331041        36.2195 
 311   0.0000       1.340237        36.4697 
 312   0.0000       1.364039        37.1174 
 313   0.0000       1.369744        37.2726 
 314   0.0000       1.410309        38.3765 
 315   0.0000       1.525868        41.5210 
 316   0.0000       1.528765        41.5998 
 317   0.0000       1.561383        42.4874 
 318   0.0000       1.591441        43.3053 
 319   0.0000       1.674977        45.5784 
 320   0.0000       6.202107       168.7679 
 321   0.0000       6.232116       169.5845 
 322   0.0000       6.239003       169.7719 
 323   0.0000       6.268621       170.5779 
 324   0.0000       6.275792       170.7730 
 325   0.0000       6.289481       171.1455 
 326   0.0000       6.302376       171.4964 
 327   0.0000       6.312136       171.7620 
 328   0.0000       6.317170       171.8989 
 329   0.0000       6.336510       172.4252 
 330   0.0000       6.346042       172.6846 
 331   0.0000       6.351031       172.8203 
 332   0.0000       6.365012       173.2008 
 333   0.0000       6.377747       173.5473 
 334   0.0000       6.387179       173.8040 
 335   0.0000       6.400871       174.1765 
 336   0.0000       6.407496       174.3568 
 337   0.0000       6.415123       174.5644 
 338   0.0000       6.419193       174.6751 
 339   0.0000       6.424734       174.8259 
 340   0.0000       6.437014       175.1600 
 341   0.0000       6.444283       175.3578 
 342   0.0000       6.451382       175.5510 
 343   0.0000       6.454006       175.6224 
 344   0.0000       6.469687       176.0491 
 345   0.0000       6.476349       176.2304 
 346   0.0000       6.485834       176.4885 
 347   0.0000       6.492844       176.6793 
 348   0.0000       6.506335       177.0464 
 349   0.0000       6.516591       177.3255 
 350   0.0000       6.520884       177.4423 
 351   0.0000       6.526243       177.5881 
 352   0.0000       6.541937       178.0152 
 353   0.0000       6.546449       178.1379 
 354   0.0000       6.550630       178.2517 
 355   0.0000       6.558116       178.4554 
 356   0.0000       6.562300       178.5693 
 357   0.0000       6.567463       178.7098 
 358   0.0000       6.570944       178.8045 
 359   0.0000       6.575151       178.9190 
 360   0.0000       6.583904       179.1571 
 361   0.0000       6.585109       179.1899 
 362   0.0000       6.585515       179.2010 
 363   0.0000       6.595824       179.4815 
 364   0.0000       6.605002       179.7312 
 365   0.0000       6.608827       179.8353 
 366   0.0000       6.611762       179.9152 
 367   0.0000       6.615092       180.0058 
 368   0.0000       6.619780       180.1334 
 369   0.0000       6.623025       180.2217 
 370   0.0000       6.627912       180.3547 
 371   0.0000       6.629998       180.4114 
 372   0.0000       6.632765       180.4867 
 373   0.0000       6.633831       180.5157 
 374   0.0000       6.639116       180.6595 
[...]
     69 H        0.000      0.000      0.000      0.000      0.000      0.000
     70 H        0.000      0.000      0.000     -0.001      0.001      0.019
     71 H        0.000      0.000      0.000      0.000      0.001      0.011
     72 H        0.000      0.000      0.000      0.000      0.002      0.034
                 25 H       27 H       28 H       30 H       31 H       33 H  
      3 H        0.074     -0.003      0.002      0.000      0.000      0.090
      4 H        2.258     -0.110      0.072      0.000      0.000      2.544
      8 H        0.115      0.000      0.000      0.000      0.000      0.107
      9 H       -0.257      0.015      0.000      0.000      0.000     -0.308
     10 H        0.000      0.000      0.000      0.000      0.000      0.000
     11 H        0.000      0.000      0.000      0.000      0.000      0.000
     13 H       -0.037      0.000      0.000      0.000      0.000      0.000
     16 H       -0.258      0.014     -0.005     -0.032     -0.002     -0.305
     17 H       -0.243      0.013      0.000      0.000      0.000     -0.303
     19 H        0.928     -0.046      0.081      0.065      0.005      0.977
     21 H       -2.797      0.192      0.663     -0.231     -0.027     -2.375
     24 H      -13.285      4.284      2.388      0.643     -0.493     -0.130
     25 H        0.000     12.983      5.148     -0.631     -0.357     -2.113
     27 H       12.983      0.000    -13.582      4.001     13.005      0.061
     28 H        5.148    -13.582      0.000      2.637      4.127      0.288
     30 H       -0.631      4.001      2.637      0.000    -13.018      0.034
     31 H       -0.357     13.005      4.127    -13.018      0.000     -0.322
     33 H       -2.113      0.061      0.288      0.034     -0.322      0.000
     35 H       -0.026      0.001     -0.001      0.000      0.000     -0.034
     37 H        0.276      0.004     -0.035      0.508     -0.036      6.574
     38 H        0.162      0.001     -0.028     -0.012      0.127     12.212
     40 H       -0.013      0.018      0.149     -0.003     -0.033     -0.249
     41 H        0.008      0.023     -0.024      0.014      0.077     -0.442
     42 H       -0.018      0.015     -0.018     -0.257     -0.371     -0.211
     45 H       -0.060     -0.119     -0.144     -0.156      1.828     -0.476
     46 H       -0.016     -0.221      0.002     -0.209     -0.484     -0.212
     47 H        0.013      0.051      0.065     -0.340      0.017      0.885
     48 H       -0.016      0.028      0.024      0.038      0.007     -0.016
     52 H        0.001      0.000      0.003     -0.014     -0.001      0.003
     53 H       -0.001     -0.000     -0.000     -0.002     -0.003     -0.007
     57 H        0.000      0.000      0.000      0.003      0.005      0.010
     58 H        0.000      0.000      0.000      0.000     -0.000      0.000
     61 H        0.000      0.000      0.000     -0.000     -0.000     -0.000
     62 H        0.000      0.000      0.000      0.000      0.000     -0.000
     63 H        0.000      0.000      0.000     -0.000     -0.000     -0.000
     64 H        0.000      0.000      0.000      0.000      0.000      0.000
     65 H        0.000      0.000      0.000      0.000      0.000      0.000
     66 H        0.000      0.000      0.000      0.000      0.000      0.000
     67 H        0.000      0.000      0.000      0.000      0.000      0.000
     68 H        0.000      0.000      0.000      0.000      0.000      0.000
     69 H        0.000      0.000      0.000      0.000      0.000      0.000
     70 H        0.003     -0.007     -0.008     -0.460     -0.094      0.004
     71 H       -0.000     -0.003     -0.004      0.060      0.006     -0.001
     72 H        0.000     -0.009     -0.011      0.082     -0.048      0.004
                 35 H       37 H       38 H       40 H       41 H       42 H  
      3 H       -0.266     -0.001     -0.001      0.000      0.000      0.000
      4 H       -0.644     -0.045     -0.013      0.000      0.000      0.000
      8 H       -0.033     -0.002     -0.002      0.000     -0.000      0.000
      9 H       -0.155      0.006      0.002      0.001      0.001      0.000
     10 H       -0.402     -0.000     -0.000      0.000      0.000      0.000
     11 H       -0.143     -0.002     -0.000      0.000      0.000      0.000
     13 H       12.507      0.000      0.000      0.000      0.000      0.000
     16 H       -0.003      0.005      0.003      0.001      0.001     -0.001
     17 H       -0.002      0.005      0.003     -0.000      0.001      0.000
     19 H        0.046     -0.021      0.078      0.013     -0.003      0.003
     21 H       -0.015      0.064     -0.577     -0.011      0.060     -0.023
     24 H       -0.001     -0.058     -0.080     -0.019      0.064     -0.024
     25 H       -0.026      0.276      0.162     -0.013      0.008     -0.018
     27 H        0.001      0.004      0.001      0.018      0.023      0.015
     28 H       -0.001     -0.035     -0.028      0.149     -0.024     -0.018
     30 H        0.000      0.508     -0.012     -0.003      0.014     -0.257
     31 H        0.000     -0.036      0.127     -0.033      0.077     -0.371
     33 H       -0.034      6.574     12.212     -0.249     -0.442     -0.211
     35 H        0.000      0.000     -0.000      0.000      0.000      0.000
     37 H        0.000      0.000    -12.285      9.575      2.690     -0.259
     38 H       -0.000    -12.285      0.000      6.516     11.610     -0.489
     40 H        0.000      9.575      6.516      0.000    -13.277      9.192
     41 H        0.000      2.690     11.610    -13.277      0.000      8.814
     42 H        0.000     -0.259     -0.489      9.192      8.814      0.000
     45 H       -0.000      0.068     -0.056     -0.111     -0.071     -0.093
     46 H        0.000      0.058      0.032     -0.087      0.005      1.134
     47 H        0.000     -0.176      0.014      0.056      0.041     -0.415
     48 H        0.000      0.115     -0.007     -0.192     -0.423     10.551
     52 H        0.000     -0.016     -0.013      0.207     -0.189     -0.173
     53 H        0.000     -0.004     -0.006     -0.016      0.100      0.121
     57 H        0.000     -0.003      0.001      0.061      0.004     -0.150
     58 H        0.000      0.000      0.000     -0.002      0.001      0.003
     61 H        0.000     -0.000     -0.000     -0.001     -0.001     -0.000
     62 H        0.000     -0.000     -0.000     -0.002     -0.001      0.001
     63 H        0.000      0.000      0.000     -0.006     -0.002      0.001
     64 H        0.000      0.000      0.000     -0.000     -0.000      0.000
     65 H        0.000      0.000      0.000      0.000      0.000      0.000
     66 H        0.000      0.000      0.000      0.000      0.000     -0.002
     67 H        0.000      0.000     -0.000     -0.000      0.000      0.001
     68 H        0.000      0.000      0.000     -0.000     -0.000      0.001
     69 H        0.000      0.000      0.000      0.001     -0.000     -0.001
     70 H        0.000     -0.006      0.000      0.084      0.031     -0.200
     71 H        0.000     -0.021      0.038      0.020     -0.046     -0.354
     72 H        0.000      0.064      0.016     -0.049      0.004     -0.458
                 45 H       46 H       47 H       48 H       52 H       53 H  
      3 H        0.001     -0.000     -0.001      0.000      0.000      0.000
      4 H        0.026     -0.018     -0.018      0.000      0.000      0.000
      8 H        0.001     -0.001      0.000      0.000      0.000      0.000
      9 H       -0.003      0.003      0.000      0.000      0.000      0.000
     10 H        0.000     -0.000      0.000      0.000      0.000      0.000
     11 H        0.000      0.000      0.000      0.000      0.000      0.000
     13 H        0.000      0.000      0.000      0.000      0.000      0.000
     16 H       -0.003      0.000      0.002     -0.002      0.000      0.000
     17 H       -0.004     -0.000      0.001     -0.002      0.000      0.000
     19 H        0.010     -0.011     -0.008      0.006      0.000      0.000
     21 H       -0.019      0.042      0.010     -0.016      0.001      0.000
     24 H       -0.023     -0.023     -0.015      0.005      0.000      0.000
     25 H       -0.060     -0.016      0.013     -0.016      0.001     -0.001
     27 H       -0.119     -0.221      0.051      0.028      0.000     -0.000
     28 H       -0.144      0.002      0.065      0.024      0.003     -0.000
     30 H       -0.156     -0.209     -0.340      0.038     -0.014     -0.002
     31 H        1.828     -0.484      0.017      0.007     -0.001     -0.003
     33 H       -0.476     -0.212      0.885     -0.016      0.003     -0.007
     35 H       -0.000      0.000      0.000      0.000      0.000      0.000
     37 H        0.068      0.058     -0.176      0.115     -0.016     -0.004
     38 H       -0.056      0.032      0.014     -0.007     -0.013     -0.006
     40 H       -0.111     -0.087      0.056     -0.192      0.207     -0.016
     41 H       -0.071      0.005      0.041     -0.423     -0.189      0.100
     42 H       -0.093      1.134     -0.415     10.551     -0.173      0.121
     45 H        0.000    -13.655    -13.048     -0.205      0.006     -0.015
     46 H      -13.655      0.000    -13.062     -0.175      0.023     -0.039
     47 H      -13.048    -13.062      0.000     -0.109      0.005     -0.009
     48 H       -0.205     -0.175     -0.109      0.000      4.945     -2.311
     52 H        0.006      0.023      0.005      4.945      0.000     17.159
     53 H       -0.015     -0.039     -0.009     -2.311     17.159      0.000
     57 H        0.017      0.000      0.015      2.352     -2.936      4.024
     58 H       -0.000      0.000     -0.000     -0.064      0.036     -0.311
     61 H       -0.000     -0.001     -0.000     -0.048     -0.274     -0.552
     62 H       -0.001      0.000      0.000     -0.057     -0.220      0.777
     63 H       -0.000     -0.001     -0.000     -0.021     -0.216     -0.499
     64 H        0.000      0.000      0.000     -0.007      0.005      0.015
     65 H        0.000      0.000      0.000     -0.011      0.042      0.071
     66 H        0.000      0.000      0.000      0.120      0.023     -0.017
     67 H       -0.000     -0.001     -0.000     -0.019      0.017      0.015
     68 H        0.000      0.000      0.000     -0.010      0.012     -0.015
     69 H        0.000      0.000      0.000      0.029     -0.012      0.018
     70 H       -0.019     -0.061     -0.245      5.174      0.708     -0.230
     71 H        0.030     -0.031     -0.042     12.558     -0.528     -0.196
     72 H       -0.011     -0.031     -0.022      1.961     -0.393     -0.284
                 57 H       58 H       61 H       62 H       63 H       64 H  
      3 H        0.000      0.000      0.000      0.000      0.000      0.000
      4 H        0.000      0.000      0.000      0.000      0.000      0.000
      8 H        0.000      0.000      0.000      0.000      0.000      0.000
      9 H        0.000      0.000      0.000      0.000      0.000      0.000
     10 H        0.000      0.000      0.000      0.000      0.000      0.000
     11 H        0.000      0.000      0.000      0.000      0.000      0.000
     13 H        0.000      0.000      0.000      0.000      0.000      0.000
     16 H        0.000      0.000      0.000      0.000      0.000      0.000
     17 H        0.000      0.000      0.000      0.000      0.000      0.000
     19 H        0.000      0.000      0.000      0.000      0.000      0.000
     21 H        0.000      0.000      0.000      0.000      0.000      0.000
     24 H        0.000      0.000      0.000      0.000      0.000      0.000
     25 H        0.000      0.000      0.000      0.000      0.000      0.000
     27 H        0.000      0.000      0.000      0.000      0.000      0.000
     28 H        0.000      0.000      0.000      0.000      0.000      0.000
     30 H        0.003      0.000     -0.000      0.000     -0.000      0.000
     31 H        0.005     -0.000     -0.000      0.000     -0.000      0.000
     33 H        0.010      0.000     -0.000     -0.000     -0.000      0.000
     35 H        0.000      0.000      0.000      0.000      0.000      0.000
     37 H       -0.003      0.000     -0.000     -0.000      0.000      0.000
     38 H        0.001      0.000     -0.000     -0.000      0.000      0.000
     40 H        0.061     -0.002     -0.001     -0.002     -0.006     -0.000
     41 H        0.004      0.001     -0.001     -0.001     -0.002     -0.000
     42 H       -0.150      0.003     -0.000      0.001      0.001      0.000
     45 H        0.017     -0.000     -0.000     -0.001     -0.000      0.000
     46 H        0.000      0.000     -0.001      0.000     -0.001      0.000
     47 H        0.015     -0.000     -0.000      0.000     -0.000      0.000
     48 H        2.352     -0.064     -0.048     -0.057     -0.021     -0.007
     52 H       -2.936      0.036     -0.274     -0.220     -0.216      0.005
     53 H        4.024     -0.311     -0.552      0.777     -0.499      0.015
     57 H        0.000      2.812     12.928      3.376      3.805     -0.346
     58 H        2.812      0.000     -0.516     -0.401      0.529      2.643
     61 H       12.928     -0.516      0.000    -12.616    -12.698      0.026
     62 H        3.376     -0.401    -12.616      0.000    -13.627      0.009
     63 H        3.805      0.529    -12.698    -13.627      0.000      0.038
     64 H       -0.346      2.643      0.026      0.009      0.038      0.000
     65 H       -0.294     13.022      0.039     -0.295     -0.093    -11.994
     66 H       -0.163      4.527      0.051     -0.128     -0.087    -12.695
     67 H       -0.250      2.758     -0.003      0.083      0.037      2.807
     68 H        0.607      4.363     -0.091      0.047     -0.144     -0.103
     69 H       -0.514     13.174     -0.124     -0.011     -0.067     -0.245
     70 H       -0.093     -0.003      0.016      0.126      0.017      0.000
     71 H       -0.052     -0.002     -0.005      0.008     -0.006      0.000
     72 H       -0.059      0.000     -0.005      0.026      0.006      0.000
                 65 H       66 H       67 H       68 H       69 H       70 H  
      3 H        0.000      0.000      0.000      0.000      0.000      0.000
      4 H        0.000      0.000      0.000      0.000      0.000      0.000
      8 H        0.000      0.000      0.000      0.000      0.000      0.000
      9 H        0.000      0.000      0.000      0.000      0.000      0.000
     10 H        0.000      0.000      0.000      0.000      0.000      0.000
     11 H        0.000      0.000      0.000      0.000      0.000      0.000
     13 H        0.000      0.000      0.000      0.000      0.000      0.000
     16 H        0.000      0.000      0.000      0.000      0.000      0.000
     17 H        0.000      0.000      0.000      0.000      0.000      0.000
     19 H        0.000      0.000      0.000      0.000      0.000     -0.001
     21 H        0.000      0.000      0.000      0.000      0.000      0.001
     24 H        0.000      0.000      0.000      0.000      0.000      0.019
     25 H        0.000      0.000      0.000      0.000      0.000      0.003
     27 H        0.000      0.000      0.000      0.000      0.000     -0.007
     28 H        0.000      0.000      0.000      0.000      0.000     -0.008
     30 H        0.000      0.000      0.000      0.000      0.000     -0.460
     31 H        0.000      0.000      0.000      0.000      0.000     -0.094
     33 H        0.000      0.000      0.000      0.000      0.000      0.004
     35 H        0.000      0.000      0.000      0.000      0.000      0.000
     37 H        0.000      0.000      0.000      0.000      0.000     -0.006
     38 H        0.000      0.000     -0.000      0.000      0.000      0.000
     40 H        0.000      0.000     -0.000     -0.000      0.001      0.084
     41 H        0.000      0.000      0.000     -0.000     -0.000      0.031
     42 H        0.000     -0.002      0.001      0.001     -0.001     -0.200
     45 H        0.000      0.000     -0.000      0.000      0.000     -0.019
     46 H        0.000      0.000     -0.001      0.000      0.000     -0.061
     47 H        0.000      0.000     -0.000      0.000      0.000     -0.245
     48 H       -0.011      0.120     -0.019     -0.010      0.029      5.174
     52 H        0.042      0.023      0.017      0.012     -0.012      0.708
     53 H        0.071     -0.017      0.015     -0.015      0.018     -0.230
     57 H       -0.294     -0.163     -0.250      0.607     -0.514     -0.093
     58 H       13.022      4.527      2.758      4.363     13.174     -0.003
     61 H        0.039      0.051     -0.003     -0.091     -0.124      0.016
     62 H       -0.295     -0.128      0.083      0.047     -0.011      0.126
     63 H       -0.093     -0.087      0.037     -0.144     -0.067      0.017
     64 H      -11.994    -12.695      2.807     -0.103     -0.245      0.000
     65 H        0.000    -13.172     -0.272     -0.218     -0.363      0.000
     66 H      -13.172      0.000     -0.110     -0.196     -0.219      0.000
     67 H       -0.272     -0.110      0.000    -12.695    -12.284      0.001
     68 H       -0.218     -0.196    -12.695      0.000    -12.927      0.002
     69 H       -0.363     -0.219    -12.284    -12.927      0.000     -0.000
     70 H        0.000      0.000      0.001      0.002     -0.000      0.000
     71 H        0.000     -0.001     -0.002      0.000     -0.000    -12.730
     72 H        0.000     -0.000     -0.005     -0.000     -0.002    -13.685
                 71 H       72 H  
      3 H        0.000      0.000
      4 H        0.000      0.000
      8 H        0.000      0.000
      9 H        0.000      0.000
     10 H        0.000      0.000
     11 H        0.000      0.000
     13 H        0.000      0.000
     16 H        0.000      0.000
     17 H        0.000      0.000
     19 H        0.000      0.000
     21 H        0.001      0.002
     24 H        0.011      0.034
     25 H       -0.000      0.000
     27 H       -0.003     -0.009
     28 H       -0.004     -0.011
     30 H        0.060      0.082
     31 H        0.006     -0.048
     33 H       -0.001      0.004
     35 H        0.000      0.000
     37 H       -0.021      0.064
     38 H        0.038      0.016
     40 H        0.020     -0.049
     41 H       -0.046      0.004
     42 H       -0.354     -0.458
     45 H        0.030     -0.011
     46 H       -0.031     -0.031
     47 H       -0.042     -0.022
     48 H       12.558      1.961
     52 H       -0.528     -0.393
     53 H       -0.196     -0.284
     57 H       -0.052     -0.059
     58 H       -0.002      0.000
     61 H       -0.005     -0.005
     62 H        0.008      0.026
     63 H       -0.006      0.006
     64 H        0.000      0.000
     65 H        0.000      0.000
     66 H       -0.001     -0.000
     67 H       -0.002     -0.005
     68 H        0.000     -0.000
     69 H       -0.000     -0.002
     70 H      -12.730    -13.685
     71 H        0.000    -12.373
     72 H      -12.373      0.000

Maximum memory used throughout the entire EPRNMR-calculation: 986.7 MB

Timings for individual modules:

Sum of individual times         ...      388.122 sec (=   6.469 min)
GTO integral calculation        ...        0.556 sec (=   0.009 min)   0.1 %
SCF iterations                  ...      102.667 sec (=   1.711 min)  26.5 %
EPR/NMR calculation             ...      284.898 sec (=   4.748 min)  73.4 %
                             ****ORCA TERMINATED NORMALLY****
TOTAL RUN TIME: 0 days 0 hours 6 minutes 28 seconds 586 msec
