
                                 *****************
                                 * O   R   C   A *
                                 *****************

                                            #,                                       
                                            ###                                      
                                            ####                                     
                                            #####                                    
                                            ######                                   
                                           ########,                                 
                                     ,,################,,,,,                         
                               ,,#################################,,                 
                          ,,##########################################,,             
                       ,#########################################, ''#####,          
                    ,#############################################,,   '####,        
                  ,##################################################,,,,####,       
                ,###########''''           ''''###############################       
              ,#####''   ,,,,##########,,,,          '''####'''          '####       
            ,##' ,,,,###########################,,,                        '##       
           ' ,,###''''                  '''############,,,                           
         ,,##''                                '''############,,,,        ,,,,,,###''
      ,#''                                            '''#######################'''  
     '                                                          ''''####''''         
             ,#######,   #######,   ,#######,      ##                                
            ,#'     '#,  ##    ##  ,#'     '#,    #''#        ######   ,####,        
            ##       ##  ##   ,#'  ##            #'  '#       #        #'  '#        
            ##       ##  #######   ##           ,######,      #####,   #    #        
            '#,     ,#'  ##    ##  '#,     ,#' ,#      #,         ##   #,  ,#        
             '#######'   ##     ##  '#######'  #'      '#     #####' # '####'        



                  #######################################################
                  #                        -***-                        #
                  #          Department of theory and spectroscopy      #
                  #    Directorship and core code : Frank Neese         #
                  #        Max Planck Institute fuer Kohlenforschung    #
                  #                Kaiser Wilhelm Platz 1               #
                  #                 D-45470 Muelheim/Ruhr               #
                  #                      Germany                        #
                  #                                                     #
                  #                  All rights reserved                #
                  #                        -***-                        #
                  #######################################################


                         Program Version 5.0.2 -  RELEASE  -


 With contributions from (in alphabetic order):
   Daniel Aravena         : Magnetic Suceptibility
   Michael Atanasov       : Ab Initio Ligand Field Theory (pilot matlab implementation)
   Alexander A. Auer      : GIAO ZORA, VPT2 properties, NMR spectrum
   Ute Becker             : Parallelization
   Giovanni Bistoni       : ED, misc. LED, open-shell LED, HFLD
   Martin Brehm           : Molecular dynamics
   Dmytro Bykov           : SCF Hessian
   Vijay G. Chilkuri      : MRCI spin determinant printing, contributions to CSF-ICE
   Dipayan Datta          : RHF DLPNO-CCSD density
   Achintya Kumar Dutta   : EOM-CC, STEOM-CC
   Dmitry Ganyushin       : Spin-Orbit,Spin-Spin,Magnetic field MRCI
   Miquel Garcia          : C-PCM and meta-GGA Hessian, CC/C-PCM, Gaussian charge scheme
   Yang Guo               : DLPNO-NEVPT2, F12-NEVPT2, CIM, IAO-localization
   Andreas Hansen         : Spin unrestricted coupled pair/coupled cluster methods
   Benjamin Helmich-Paris : MC-RPA, TRAH-SCF, COSX integrals
   Lee Huntington         : MR-EOM, pCC
   Robert Izsak           : Overlap fitted RIJCOSX, COSX-SCS-MP3, EOM
   Marcus Kettner         : VPT2
   Christian Kollmar      : KDIIS, OOCD, Brueckner-CCSD(T), CCSD density, CASPT2, CASPT2-K
   Simone Kossmann        : Meta GGA functionals, TD-DFT gradient, OOMP2, MP2 Hessian
   Martin Krupicka        : Initial AUTO-CI
   Lucas Lang             : DCDCAS
   Marvin Lechner         : AUTO-CI (C++ implementation), FIC-MRCC
   Dagmar Lenk            : GEPOL surface, SMD
   Dimitrios Liakos       : Extrapolation schemes; Compound Job, initial MDCI parallelization
   Dimitrios Manganas     : Further ROCIS development; embedding schemes
   Dimitrios Pantazis     : SARC Basis sets
   Anastasios Papadopoulos: AUTO-CI, single reference methods and gradients
   Taras Petrenko         : DFT Hessian,TD-DFT gradient, ASA, ECA, R-Raman, ABS, FL, XAS/XES, NRVS
   Peter Pinski           : DLPNO-MP2, DLPNO-MP2 Gradient
   Christoph Reimann      : Effective Core Potentials
   Marius Retegan         : Local ZFS, SOC
   Christoph Riplinger    : Optimizer, TS searches, QM/MM, DLPNO-CCSD(T), (RO)-DLPNO pert. Triples
   Tobias Risthaus        : Range-separated hybrids, TD-DFT gradient, RPA, STAB
   Michael Roemelt        : Original ROCIS implementation
   Masaaki Saitow         : Open-shell DLPNO-CCSD energy and density
   Barbara Sandhoefer     : DKH picture change effects
   Avijit Sen             : IP-ROCIS
   Kantharuban Sivalingam : CASSCF convergence, NEVPT2, FIC-MRCI
   Bernardo de Souza      : ESD, SOC TD-DFT
   Georgi Stoychev        : AutoAux, RI-MP2 NMR, DLPNO-MP2 response
   Willem Van den Heuvel  : Paramagnetic NMR
   Boris Wezisla          : Elementary symmetry handling
   Frank Wennmohs         : Technical directorship


 We gratefully acknowledge several colleagues who have allowed us to
 interface, adapt or use parts of their codes:
   Stefan Grimme, W. Hujo, H. Kruse, P. Pracht,  : VdW corrections, initial TS optimization,
                  C. Bannwarth, S. Ehlert          DFT functionals, gCP, sTDA/sTD-DF
   Ed Valeev, F. Pavosevic, A. Kumar             : LibInt (2-el integral package), F12 methods
   Garnet Chan, S. Sharma, J. Yang, R. Olivares  : DMRG
   Ulf Ekstrom                                   : XCFun DFT Library
   Mihaly Kallay                                 : mrcc  (arbitrary order and MRCC methods)
   Jiri Pittner, Ondrej Demel                    : Mk-CCSD
   Frank Weinhold                                : gennbo (NPA and NBO analysis)
   Christopher J. Cramer and Donald G. Truhlar   : smd solvation model
   Lars Goerigk                                  : TD-DFT with DH, B97 family of functionals
   V. Asgeirsson, H. Jonsson                     : NEB implementation
   FAccTs GmbH                                   : IRC, NEB, NEB-TS, DLPNO-Multilevel, CI-OPT
                                                   MM, QMMM, 2- and 3-layer-ONIOM, Crystal-QMMM,
                                                   LR-CPCM, SF, NACMEs, symmetry and pop. for TD-DFT,
                                                   nearIR, NL-DFT gradient (VV10), updates on ESD,
                                                   ML-optimized integration grids
   S Lehtola, MJT Oliveira, MAL Marques          : LibXC Library
   Liviu Ungur et al                             : ANISO software


 Your calculation uses the libint2 library for the computation of 2-el integrals
 For citations please refer to: http://libint.valeyev.net

 Your ORCA version has been built with support for libXC version: 5.1.0
 For citations please refer to: https://tddft.org/programs/libxc/

 This ORCA versions uses:
   CBLAS   interface :  Fast vector & matrix operations
   LAPACKE interface :  Fast linear algebra routines
   SCALAPACK package :  Parallel linear algebra routines
   Shared memory     :  Shared parallel matrices
   BLAS/LAPACK       :  OpenBLAS 0.3.15  USE64BITINT DYNAMIC_ARCH NO_AFFINITY Zen SINGLE_THREADED
        Core in use  :  Zen
   Copyright (c) 2011-2014, The OpenBLAS Project


Your calculation utilizes the atom-pairwise dispersion correction
based on tight binding partial charges (D4)
Cite in your paper:
E.Caldeweyher, C.Bannwarth, S.Grimme, J.Chem.Phys., (2017), 147, 034112.
E.Caldeweyher, S.Ehlert, A.Hansen, H.Neugebauer, S.Grimme, J.Chem.Phys., (2018), in progress.
   

================================================================================

----- Orbital basis set information -----
Your calculation utilizes the basis: pcSseg-1
   F. Jensen, J. Chem. Theory Comput. 11, 132 (2015).

----- AuxJ basis set information -----
Your calculation utilizes the auxiliary basis: def2/J
   F. Weigend, Phys. Chem. Chem. Phys. 8, 1057 (2006).

================================================================================
                                        WARNINGS
                       Please study these warnings very carefully!
================================================================================



WARNING: Found flag for RIJCOSX approximation but no HF exchange needed!
  ===> : RIJCOSX  will be disabled and Split-RI-J is turned on

INFO   : the flag for use of the SHARK integral package has been found!

================================================================================
                                       INPUT FILE
================================================================================
NAME = inpS
|  1> ! revTPSS
|  2> ! D4
|  3> ! pcSseg-1
|  4> ! def2/J RIJCOSX
|  5> ! DEFGRID2
|  6> ! scfconv7
|  7> ! smallprint printgap noloewdin
|  8> ! NOSOSCF
|  9> %MaxCore 4000
| 10> %output
| 11>        print[P_BondOrder_M] 1
| 12>        print[P_Mayer] 1
| 13>        print[P_basis] 2
| 14> end
| 15> %pal
| 16>     nprocs 4
| 17> end
| 18> ! CPCM(chloroform)
| 19> *xyz 0 1
| 20> C   -4.9393731800   0.3083710100   0.4115522600
| 21> C   -6.3600852000  -0.1012572000   0.1024409200
| 22> C   -6.9357128700   0.6900468900  -1.0783422700
| 23> H   -6.9997380300   0.1062365100   0.9771863300
| 24> H   -6.4166440000  -1.1755179500  -0.1050124900
| 25> C   -4.7452727300   1.7673343500   0.5499205700
| 26> C   -5.3640751400   2.5889943900  -0.5583959600
| 27> C   -6.8226752600   2.1877072700  -0.8170008800
| 28> H   -4.7879839800   2.4175231100  -1.4804076100
| 29> H   -5.2932004400   3.6561278800  -0.3229095100
| 30> H   -7.2233831000   2.7435327700  -1.6728678900
| 31> H   -7.4360834200   2.4392210800   0.0613894100
| 32> O   -8.2861604800   0.2975200900  -1.3570621900
| 33> H   -6.3743966400   0.4351575900  -1.9881846700
| 34> C   -3.9536685500  -0.6160350600   0.4991335600
| 35> C   -4.1166744600   2.3310277700   1.5878787500
| 36> H   -3.7004291700   1.7303058900   2.3917836300
| 37> H   -4.0151746000   3.4112938000   1.6602470400
| 38> C   -2.5459976000  -0.3554083600   0.6917155600
| 39> H   -4.2565316000  -1.6541545500   0.3694494200
| 40> C   -1.5751053500  -1.2798328200   0.8544144300
| 41> H   -2.2520805300   0.6917269200   0.6928950300
| 42> C   -1.7835811500  -2.7712730000   0.9261327700
| 43> C   -0.8803233500  -3.5228696200  -0.0693379100
| 44> H   -2.8279943200  -3.0532201200   0.7671121500
| 45> H   -1.5189844500  -3.0988862200   1.9443518900
| 46> C    0.5933192800  -3.1073838900   0.0381783200
| 47> H   -1.2425726600  -3.3411431100  -1.0890959400
| 48> H   -0.9709784500  -4.6019115800   0.1058066800
| 49> C    0.7693328700  -1.5876089200  -0.0907968900
| 50> H    1.1686952000  -3.6421461600  -0.7242941300
| 51> H    0.9878036700  -3.4207253700   1.0166042600
| 52> C   -0.1279726500  -0.9205869400   0.9999925100
| 53> H    0.2100400000  -1.3748595500   1.9498275200
| 54> C    0.3228019700   0.5364462200   1.0154790000
| 55> H   -8.8188124300   0.5123207500  -0.5796104300
| 56> C    1.8458416300   0.4482483300   0.7492029600
| 57> H    0.0846143600   1.0317831400   1.9626065400
| 58> H   -0.1723185900   1.1047121300   0.2202120400
| 59> C    2.1541235300  -1.0221498100   0.3324803900
| 60> H    2.4293523800   0.7298608800   1.6317185700
| 61> H    2.1360077400   1.1383067600  -0.0522708100
| 62> H    2.4579470000  -1.5823462800   1.2315861500
| 63> C    3.3357116900  -1.1108591000  -0.6641980200
| 64> C    0.3832515600  -1.1032549000  -1.4944205100
| 65> H   -0.6868703500  -1.2343955500  -1.6819315000
| 66> H    0.9313273100  -1.6626887500  -2.2605724100
| 67> H    0.6107756200  -0.0414469900  -1.6321858600
| 68> H    3.0513693700  -0.5246412900  -1.5536104800
| 69> C    3.6440781700  -2.5394572100  -1.1114823800
| 70> C    4.5308248000  -0.4220079200  -0.0485234600
| 71> C    5.6471998000  -1.0018503200   0.3914753000
| 72> H    4.4362085300   0.6580957600   0.0779383000
| 73> H    5.7796297400  -2.0818892100   0.2915728400
| 74> C    6.7923537300  -0.2792490100   1.0453332900
| 75> C    8.0715627800  -0.5038849400   0.2243565800
| 76> C    6.9541493100  -0.7298823000   2.5196978200
| 77> H    6.5641688000   0.7986481800   1.0535426000
| 78> H    7.1160326100  -1.8201331400   2.5112758900
| 79> C    5.6847520600  -0.4366453600   3.3242956900
| 80> C    8.1598419700  -0.0702948600   3.1954898200
| 81> H    7.8989327000  -0.2502432800  -0.8267186300
| 82> H    8.3791825800  -1.5562732500   0.2711784100
| 83> H    8.9015297200   0.1097107900   0.5864019400
| 84> H    5.7966036000  -0.7684647100   4.3623923000
| 85> H    4.8099195700  -0.9345016700   2.8952253000
| 86> H    5.4826863800   0.6425802900   3.3358496100
| 87> H    8.0846726300   1.0231526500   3.1320469500
| 88> H    9.1087838700  -0.3721482800   2.7433547700
| 89> H    8.1972684000  -0.3409743000   4.2565031800
| 90> H    4.5705762100  -2.5688633100  -1.6950020000
| 91> H    2.8431773900  -2.9359241200  -1.7389528600
| 92> H    3.7624474100  -3.2102578500  -0.2524259300
| 93> *
| 94> %eprnmr
| 95>  Nuclei = all H { shift }
| 96>  origin giao
| 97>  giao_2el giao_2el_same_as_scf
| 98>  giao_1el giao_1el_analytic
| 99> end
|100> 
|101>                          ****END OF INPUT****
================================================================================

                       ****************************
                       * Single Point Calculation *
                       ****************************

---------------------------------
CARTESIAN COORDINATES (ANGSTROEM)
---------------------------------
  C     -4.939373    0.308371    0.411552
  C     -6.360085   -0.101257    0.102441
  C     -6.935713    0.690047   -1.078342
  H     -6.999738    0.106237    0.977186
  H     -6.416644   -1.175518   -0.105012
  C     -4.745273    1.767334    0.549921
  C     -5.364075    2.588994   -0.558396
  C     -6.822675    2.187707   -0.817001
  H     -4.787984    2.417523   -1.480408
  H     -5.293200    3.656128   -0.322910
  H     -7.223383    2.743533   -1.672868
  H     -7.436083    2.439221    0.061389
  O     -8.286160    0.297520   -1.357062
  H     -6.374397    0.435158   -1.988185
  C     -3.953669   -0.616035    0.499134
  C     -4.116674    2.331028    1.587879
  H     -3.700429    1.730306    2.391784
  H     -4.015175    3.411294    1.660247
  C     -2.545998   -0.355408    0.691716
  H     -4.256532   -1.654155    0.369449
  C     -1.575105   -1.279833    0.854414
  H     -2.252081    0.691727    0.692895
  C     -1.783581   -2.771273    0.926133
  C     -0.880323   -3.522870   -0.069338
  H     -2.827994   -3.053220    0.767112
  H     -1.518984   -3.098886    1.944352
  C      0.593319   -3.107384    0.038178
  H     -1.242573   -3.341143   -1.089096
  H     -0.970978   -4.601912    0.105807
  C      0.769333   -1.587609   -0.090797
  H      1.168695   -3.642146   -0.724294
  H      0.987804   -3.420725    1.016604
  C     -0.127973   -0.920587    0.999993
  H      0.210040   -1.374860    1.949828
  C      0.322802    0.536446    1.015479
  H     -8.818812    0.512321   -0.579610
  C      1.845842    0.448248    0.749203
  H      0.084614    1.031783    1.962607
  H     -0.172319    1.104712    0.220212
  C      2.154124   -1.022150    0.332480
  H      2.429352    0.729861    1.631719
  H      2.136008    1.138307   -0.052271
  H      2.457947   -1.582346    1.231586
  C      3.335712   -1.110859   -0.664198
  C      0.383252   -1.103255   -1.494421
  H     -0.686870   -1.234396   -1.681931
  H      0.931327   -1.662689   -2.260572
  H      0.610776   -0.041447   -1.632186
  H      3.051369   -0.524641   -1.553610
  C      3.644078   -2.539457   -1.111482
  C      4.530825   -0.422008   -0.048523
  C      5.647200   -1.001850    0.391475
  H      4.436209    0.658096    0.077938
  H      5.779630   -2.081889    0.291573
  C      6.792354   -0.279249    1.045333
  C      8.071563   -0.503885    0.224357
  C      6.954149   -0.729882    2.519698
  H      6.564169    0.798648    1.053543
  H      7.116033   -1.820133    2.511276
  C      5.684752   -0.436645    3.324296
  C      8.159842   -0.070295    3.195490
  H      7.898933   -0.250243   -0.826719
  H      8.379183   -1.556273    0.271178
  H      8.901530    0.109711    0.586402
  H      5.796604   -0.768465    4.362392
  H      4.809920   -0.934502    2.895225
  H      5.482686    0.642580    3.335850
  H      8.084673    1.023153    3.132047
  H      9.108784   -0.372148    2.743355
  H      8.197268   -0.340974    4.256503
  H      4.570576   -2.568863   -1.695002
  H      2.843177   -2.935924   -1.738953
  H      3.762447   -3.210258   -0.252426

----------------------------
CARTESIAN COORDINATES (A.U.)
----------------------------
  NO LB      ZA    FRAG     MASS         X           Y           Z
   0 C     6.0000    0    12.011   -9.334063    0.582737    0.777721
   1 C     6.0000    0    12.011  -12.018819   -0.191348    0.193585
   2 C     6.0000    0    12.011  -13.106598    1.304000   -2.037772
   3 H     1.0000    0     1.008  -13.227588    0.200758    1.846615
   4 H     1.0000    0     1.008  -12.125700   -2.221407   -0.198445
   5 C     6.0000    0    12.011   -8.967266    3.339778    1.039199
   6 C     6.0000    0    12.011  -10.136633    4.892490   -1.055215
   7 C     6.0000    0    12.011  -12.892988    4.134168   -1.543908
   8 H     1.0000    0     1.008   -9.047978    4.568457   -2.797565
   9 H     1.0000    0     1.008  -10.002699    6.909080   -0.610211
  10 H     1.0000    0     1.008  -13.650216    5.184526   -3.161262
  11 H     1.0000    0     1.008  -14.052161    4.609460    0.116009
  12 O     8.0000    0    15.999  -15.658574    0.562231   -2.564476
  13 H     1.0000    0     1.008  -12.045864    0.822329   -3.757125
  14 C     6.0000    0    12.011   -7.471351   -1.164138    0.943226
  15 C     6.0000    0    12.011   -7.779387    4.405004    3.000656
  16 H     1.0000    0     1.008   -6.992798    3.269804    4.519816
  17 H     1.0000    0     1.008   -7.587580    6.446411    3.137412
  18 C     6.0000    0    12.011   -4.811238   -0.671624    1.307153
  19 H     1.0000    0     1.008   -8.043679   -3.125899    0.698158
  20 C     6.0000    0    12.011   -2.976518   -2.418534    1.614609
  21 H     1.0000    0     1.008   -4.255815    1.307174    1.309382
  22 C     6.0000    0    12.011   -3.370480   -5.236947    1.750137
  23 C     6.0000    0    12.011   -1.663570   -6.657259   -0.131030
  24 H     1.0000    0     1.008   -5.344135   -5.769750    1.449632
  25 H     1.0000    0     1.008   -2.870465   -5.856046    3.674293
  26 C     6.0000    0    12.011    1.121211   -5.872105    0.072147
  27 H     1.0000    0     1.008   -2.348122   -6.313845   -2.058093
  28 H     1.0000    0     1.008   -1.834883   -8.696353    0.199946
  29 C     6.0000    0    12.011    1.453828   -3.000146   -0.171581
  30 H     1.0000    0     1.008    2.208514   -6.882659   -1.368718
  31 H     1.0000    0     1.008    1.866678   -6.464234    1.921104
  32 C     6.0000    0    12.011   -0.241833   -1.739657    1.889712
  33 H     1.0000    0     1.008    0.396918   -2.598108    3.684640
  34 C     6.0000    0    12.011    0.610007    1.013736    1.918977
  35 H     1.0000    0     1.008  -16.665140    0.968146   -1.095305
  36 C     6.0000    0    12.011    3.488135    0.847067    1.415788
  37 H     1.0000    0     1.008    0.159898    1.949788    3.708789
  38 H     1.0000    0     1.008   -0.325635    2.087603    0.416140
  39 C     6.0000    0    12.011    4.070704   -1.931583    0.628297
  40 H     1.0000    0     1.008    4.590811    1.379237    3.083501
  41 H     1.0000    0     1.008    4.036470    2.151088   -0.098778
  42 H     1.0000    0     1.008    4.644847   -2.990201    2.327361
  43 C     6.0000    0    12.011    6.303582   -2.099219   -1.255152
  44 C     6.0000    0    12.011    0.724240   -2.084850   -2.824045
  45 H     1.0000    0     1.008   -1.297997   -2.332670   -3.178390
  46 H     1.0000    0     1.008    1.759954   -3.142026   -4.271863
  47 H     1.0000    0     1.008    1.154199   -0.078323   -3.084384
  48 H     1.0000    0     1.008    5.766252   -0.991428   -2.935898
  49 C     6.0000    0    12.011    6.886310   -4.798879   -2.100397
  50 C     6.0000    0    12.011    8.562018   -0.797479   -0.091696
  51 C     6.0000    0    12.011   10.671661   -1.893223    0.739781
  52 H     1.0000    0     1.008    8.383219    1.243621    0.147282
  53 H     1.0000    0     1.008   10.921917   -3.934200    0.550993
  54 C     6.0000    0    12.011   12.835688   -0.527704    1.975394
  55 C     6.0000    0    12.011   15.253043   -0.952205    0.423972
  56 C     6.0000    0    12.011   13.141438   -1.379278    4.761539
  57 H     1.0000    0     1.008   12.404481    1.509226    1.990907
  58 H     1.0000    0     1.008   13.447353   -3.439553    4.745624
  59 C     6.0000    0    12.011   10.742625   -0.825140    6.282008
  60 C     6.0000    0    12.011   15.419867   -0.132838    6.038601
  61 H     1.0000    0     1.008   14.926820   -0.472891   -1.562272
  62 H     1.0000    0     1.008   15.834360   -2.940930    0.512453
  63 H     1.0000    0     1.008   16.821453    0.207323    1.108139
  64 H     1.0000    0     1.008   10.953993   -1.452188    8.243727
  65 H     1.0000    0     1.008    9.089431   -1.765952    5.471183
  66 H     1.0000    0     1.008   10.360776    1.214301    6.303842
  67 H     1.0000    0     1.008   15.277817    1.933478    5.918711
  68 H     1.0000    0     1.008   17.213107   -0.703258    5.184189
  69 H     1.0000    0     1.008   15.490592   -0.644348    8.043625
  70 H     1.0000    0     1.008    8.637137   -4.854448   -3.203090
  71 H     1.0000    0     1.008    5.372827   -5.548093   -3.286145
  72 H     1.0000    0     1.008    7.109995   -6.066508   -0.477016

--------------------------------
INTERNAL COORDINATES (ANGSTROEM)
--------------------------------
 C      0   0   0     0.000000000000     0.00000000     0.00000000
 C      1   0   0     1.510552129096     0.00000000     0.00000000
 C      2   1   0     1.533544364897   111.75687916     0.00000000
 H      2   1   3     1.103353485939   109.39159872   241.43788546
 H      2   1   3     1.095569246633   110.68359941   122.87971893
 C      1   2   3     1.478308087432   114.22197936    50.39386386
 C      6   1   2     1.512087026142   114.45296013   312.17459566
 C      3   2   1     1.524487926231   110.30938856   305.02244076
 H      7   6   1     1.100631140406   108.37040071   289.88875049
 H      7   6   1     1.095103180853   110.20714159   172.70071216
 H      8   3   2     1.096365403638   109.70180939   179.18125037
 H      8   3   2     1.100499099928   108.66438790   296.64753621
 O      3   2   1     1.433691330056   111.22170263   180.31495265
 H      3   2   1     1.099025776838   109.02906734    65.15441495
 C      1   2   3     1.354182662703   120.84552597   232.51990363
 C      6   1   2     1.337999716079   123.37232223   129.96375461
 H     16   6   1     1.086457534672   121.40307215     0.64876080
 H     16   6   1     1.087434635530   120.93032987   181.35150717
 C     15   1   2     1.444490085446   126.49834421   175.24532749
 H     15   1   2     1.089144654645   116.13832906   357.93536654
 C     19  15   1     1.350430770405   126.38275397   175.97420096
 H     19  15   1     1.087603296155   115.92625055   355.26837067
 C     21  19  15     1.507647004440   125.69690346   357.17662163
 C     23  21  19     1.540043508215   111.77350650   127.72277622
 H     23  21  19     1.093426086085   112.34898497     3.63176197
 H     23  21  19     1.101867511048   107.75107246   246.40313531
 C     24  23  21     1.534865053515   112.68905470    50.90476097
 H     24  23  21     1.097340205580   109.04142869   288.83481554
 H     24  23  21     1.096916371472   109.17177293   172.85296825
 C     27  24  23     1.535360331680   111.84725686   306.14391982
 H     27  24  23     1.094711090535   108.88115898   182.60725174
 H     27  24  23     1.100508126779   109.23009384    66.12860180
 C     21  19  15     1.498146732160   122.82177491   177.75034472
 H     33  21  19     1.105804097468   106.27334931   124.12682439
 C     33  21  19     1.525248576052   121.03313607     1.96585709
 H     13   3   2     0.966586086442   107.56930369    62.73940643
 C     35  33  21     1.548654772120   103.56235381   196.49050228
 H     35  33  21     1.095053687679   112.12371113    74.52867208
 H     35  33  21     1.095682459050   110.76435877   314.88740233
 C     30  27  24     1.554526562291   116.05968996   166.08226554
 H     37  35  33     1.094816982686   111.77189981   248.93774933
 H     37  35  33     1.096693764095   110.48897340   130.36515167
 H     40  30  27     1.102052609265   106.42914107   320.44382621
 C     40  30  27     1.548350015644   118.92671318    80.65721435
 C     30  27  24     1.534215389456   111.13095758   294.16321892
 H     45  30  27     1.094312178364   111.40861123    66.38130208
 H     45  30  27     1.095601202143   110.65159356   306.28075927
 H     45  30  27     1.094615241662   111.65870299   186.38339692
 H     44  40  30     1.102522743397   106.97805076    61.67095672
 C     44  40  30     1.528412818771   113.32175511   302.46613076
 C     44  40  30     1.510584806528   108.37724432   176.59037459
 C     51  44  40     1.332707491637   126.79041698   110.23388061
 H     51  44  40     1.091590021409   115.45866765   292.86457295
 H     52  51  44     1.092704074503   120.09133181     2.22107062
 C     52  51  44     1.503682296130   124.91954688   182.40323155
 C     55  52  51     1.536502474131   109.35630772   239.30696499
 C     55  52  51     1.550160939737   110.69331625   115.12151924
 H     55  52  51     1.101815822749   108.39961604   357.57927713
 H     57  55  52     1.102235921137   107.19364018    58.17525913
 C     57  55  52     1.531252759572   110.95066590   300.02662673
 C     57  55  52     1.531484641989   112.12691285   176.88368262
 H     56  55  52     1.094940333208   110.35172334    52.25965807
 H     56  55  52     1.097425797100   110.53467829   292.98909409
 H     56  55  52     1.093810625321   111.89175358   172.41995308
 H     60  57  55     1.095563516976   110.80886365   179.22444223
 H     60  57  55     1.094209390629   111.69176198    58.27554391
 H     60  57  55     1.098040088393   110.26138637   298.55249477
 H     61  57  55     1.097862871471   110.45977562    56.16155817
 H     61  57  55     1.093632625784   112.44576109   295.32436148
 H     61  57  55     1.095635636058   110.35360030   175.16681215
 H     50  44  40     1.095334872889   110.58841533   188.25428313
 H     50  44  40     1.091946552447   111.07290995    68.69211067
 H     50  44  40     1.096340622202   111.36890827   308.40040954

---------------------------
INTERNAL COORDINATES (A.U.)
---------------------------
 C      0   0   0     0.000000000000     0.00000000     0.00000000
 C      1   0   0     2.854529835003     0.00000000     0.00000000
 C      2   1   0     2.897978863873   111.75687916     0.00000000
 H      2   1   3     2.085035917331   109.39159872   241.43788546
 H      2   1   3     2.070325836883   110.68359941   122.87971893
 C      1   2   3     2.793597426807   114.22197936    50.39386386
 C      6   1   2     2.857430370063   114.45296013   312.17459566
 C      3   2   1     2.880864675046   110.30938856   305.02244076
 H      7   6   1     2.079891429832   108.37040071   289.88875049
 H      7   6   1     2.069445100197   110.20714159   172.70071216
 H      8   3   2     2.071830355582   109.70180939   179.18125037
 H      8   3   2     2.079641909490   108.66438790   296.64753621
 O      3   2   1     2.709283974383   111.22170263   180.31495265
 H      3   2   1     2.076857732343   109.02906734    65.15441495
 C      1   2   3     2.559034367813   120.84552597   232.51990363
 C      6   1   2     2.528453030654   123.37232223   129.96375461
 H     16   6   1     2.053107196665   121.40307215     0.64876080
 H     16   6   1     2.054953649692   120.93032987   181.35150717
 C     15   1   2     2.729690664657   126.49834421   175.24532749
 H     15   1   2     2.058185117502   116.13832906   357.93536654
 C     19  15   1     2.551944318885   126.38275397   175.97420096
 H     19  15   1     2.055272372083   115.92625055   355.26837067
 C     21  19  15     2.849039945018   125.69690346   357.17662163
 C     23  21  19     2.910260464850   111.77350650   127.72277622
 H     23  21  19     2.066275850386   112.34898497     3.63176197
 H     23  21  19     2.082227831746   107.75107246   246.40313531
 C     24  23  21     2.900474603669   112.68905470    50.90476097
 H     24  23  21     2.073672464287   109.04142869   288.83481554
 H     24  23  21     2.072871533896   109.17177293   172.85296825
 C     27  24  23     2.901410543762   111.84725686   306.14391982
 H     27  24  23     2.068704156877   108.88115898   182.60725174
 H     27  24  23     2.079658967767   109.23009384    66.12860180
 C     21  19  15     2.831087032212   122.82177491   177.75034472
 H     33  21  19     2.089666901983   106.27334931   124.12682439
 C     33  21  19     2.882302094891   121.03313607     1.96585709
 H     13   3   2     1.826582988233   107.56930369    62.73940643
 C     35  33  21     2.926533395298   103.56235381   196.49050228
 H     35  33  21     2.069351571654   112.12371113    74.52867208
 H     35  33  21     2.070539777346   110.76435877   314.88740233
 C     30  27  24     2.937629470637   116.05968996   166.08226554
 H     37  35  33     2.068904264042   111.77189981   248.93774933
 H     37  35  33     2.072450866919   110.48897340   130.36515167
 H     40  30  27     2.082577616685   106.42914107   320.44382621
 C     40  30  27     2.925957489020   118.92671318    80.65721435
 C     30  27  24     2.899246916519   111.13095758   294.16321892
 H     45  30  27     2.067950322122   111.40861123    66.38130208
 H     45  30  27     2.070386224045   110.65159356   306.28075927
 H     45  30  27     2.068523028757   111.65870299   186.38339692
 H     44  40  30     2.083466041440   106.97805076    61.67095672
 C     44  40  30     2.888281647052   113.32175511   302.46613076
 C     44  40  30     2.854591586400   108.37724432   176.59037459
 C     51  44  40     2.518452175818   126.79041698   110.23388061
 H     51  44  40     2.062806190985   115.45866765   292.86457295
 H     52  51  44     2.064911446230   120.09133181     2.22107062
 C     52  51  44     2.841547732112   124.91954688   182.40323155
 C     55  52  51     2.903568880200   109.35630772   239.30696499
 C     55  52  51     2.929379639605   110.69331625   115.12151924
 H     55  52  51     2.082130155016   108.39961604   357.57927713
 H     57  55  52     2.082924025919   107.19364018    58.17525913
 C     57  55  52     2.893648357402   110.95066590   300.02662673
 C     57  55  52     2.894086551665   112.12691285   176.88368262
 H     56  55  52     2.069137362747   110.35172334    52.25965807
 H     56  55  52     2.073834208820   110.53467829   292.98909409
 H     56  55  52     2.067002524229   111.89175358   172.41995308
 H     60  57  55     2.070315009400   110.80886365   179.22444223
 H     60  57  55     2.067756081454   111.69176198    58.27554391
 H     60  57  55     2.074995051130   110.26138637   298.55249477
 H     61  57  55     2.074660159681   110.45977562    56.16155817
 H     61  57  55     2.066666153853   112.44576109   295.32436148
 H     61  57  55     2.070451294714   110.35360030   175.16681215
 H     50  44  40     2.069882934693   110.58841533   188.25428313
 H     50  44  40     2.063479937004   111.07290995    68.69211067
 H     50  44  40     2.071783525454   111.36890827   308.40040954

---------------------
BASIS SET INFORMATION
---------------------
There are 3 groups of distinct atoms

 Group   1 Type C   : 8s5p1d contracted to 3s3p1d pattern {521/311/1}
 Group   2 Type H   : 4s2p contracted to 2s1p pattern {31/2}
 Group   3 Type O   : 8s5p1d contracted to 3s3p1d pattern {521/311/1}

Atom   0C    basis set group =>   1
Atom   1C    basis set group =>   1
Atom   2C    basis set group =>   1
Atom   3H    basis set group =>   2
Atom   4H    basis set group =>   2
Atom   5C    basis set group =>   1
Atom   6C    basis set group =>   1
Atom   7C    basis set group =>   1
Atom   8H    basis set group =>   2
Atom   9H    basis set group =>   2
Atom  10H    basis set group =>   2
Atom  11H    basis set group =>   2
Atom  12O    basis set group =>   3
Atom  13H    basis set group =>   2
Atom  14C    basis set group =>   1
Atom  15C    basis set group =>   1
Atom  16H    basis set group =>   2
Atom  17H    basis set group =>   2
Atom  18C    basis set group =>   1
Atom  19H    basis set group =>   2
Atom  20C    basis set group =>   1
Atom  21H    basis set group =>   2
Atom  22C    basis set group =>   1
Atom  23C    basis set group =>   1
Atom  24H    basis set group =>   2
Atom  25H    basis set group =>   2
Atom  26C    basis set group =>   1
Atom  27H    basis set group =>   2
Atom  28H    basis set group =>   2
Atom  29C    basis set group =>   1
Atom  30H    basis set group =>   2
Atom  31H    basis set group =>   2
Atom  32C    basis set group =>   1
Atom  33H    basis set group =>   2
Atom  34C    basis set group =>   1
Atom  35H    basis set group =>   2
Atom  36C    basis set group =>   1
Atom  37H    basis set group =>   2
Atom  38H    basis set group =>   2
Atom  39C    basis set group =>   1
Atom  40H    basis set group =>   2
Atom  41H    basis set group =>   2
Atom  42H    basis set group =>   2
Atom  43C    basis set group =>   1
Atom  44C    basis set group =>   1
Atom  45H    basis set group =>   2
Atom  46H    basis set group =>   2
Atom  47H    basis set group =>   2
Atom  48H    basis set group =>   2
Atom  49C    basis set group =>   1
Atom  50C    basis set group =>   1
Atom  51C    basis set group =>   1
Atom  52H    basis set group =>   2
Atom  53H    basis set group =>   2
Atom  54C    basis set group =>   1
Atom  55C    basis set group =>   1
Atom  56C    basis set group =>   1
Atom  57H    basis set group =>   2
Atom  58H    basis set group =>   2
Atom  59C    basis set group =>   1
Atom  60C    basis set group =>   1
Atom  61H    basis set group =>   2
Atom  62H    basis set group =>   2
Atom  63H    basis set group =>   2
Atom  64H    basis set group =>   2
Atom  65H    basis set group =>   2
Atom  66H    basis set group =>   2
Atom  67H    basis set group =>   2
Atom  68H    basis set group =>   2
Atom  69H    basis set group =>   2
Atom  70H    basis set group =>   2
Atom  71H    basis set group =>   2
Atom  72H    basis set group =>   2

-------------------------
BASIS SET IN INPUT FORMAT
-------------------------

 # Basis set for element : H 
 NewGTO H 
 S 3 
   1      12.2518000000      0.0372173893
   2       1.8687100000      0.2538082070
   3       0.4182080000      0.7973867639
 S 1 
   1       0.1061000000      1.0000000000
 P 2 
   1       9.0000000000      0.0402678705
   2       1.0000000000      0.9880231245
  end;

 # Basis set for element : C 
 NewGTO C 
 S 5 
   1    1243.2000000000      0.0056300977
   2     187.1450000000      0.0419506039
   3      42.5126000000      0.1846643605
   4      11.7393000000      0.4665574214
   5       3.5054800000      0.4482347783
 S 2 
   1       5.3908900000     -0.1481148174
   2       0.4933410000      1.0519817143
 S 1 
   1       0.1497410000      1.0000000000
 P 3 
   1      59.6736000000      0.0113906672
   2       9.1805600000      0.1672414929
   3       1.9365800000      0.9041087436
 P 1 
   1       0.5262960000      1.0000000000
 P 1 
   1       0.1363190000      1.0000000000
 D 1 
   1       0.8000000000      1.0000000000
  end;

 # Basis set for element : O 
 NewGTO O 
 S 5 
   1    2288.6400000000      0.0054511382
   2     344.4160000000      0.0407189228
   3      78.2538000000      0.1813694209
   4      21.7195000000      0.4655368202
   5       6.5590700000      0.4512113212
 S 2 
   1      10.4656000000     -0.1502112012
   2       0.9643510000      1.0528679834
 S 1 
   1       0.2851270000      1.0000000000
 P 3 
   1     110.8840000000      0.0113058003
   2      17.0590000000      0.1699226452
   3       3.6899900000      0.9008060328
 P 1 
   1       0.9929960000      1.0000000000
 P 1 
   1       0.2449240000      1.0000000000
 D 1 
   1       1.0000000000      1.0000000000
  end;

---------------------------------
AUXILIARY/J BASIS SET INFORMATION
---------------------------------
There are 3 groups of distinct atoms

 Group   1 Type C   : 12s5p4d2f1g contracted to 6s4p3d1f1g pattern {711111/2111/211/2/1}
 Group   2 Type H   : 5s2p1d contracted to 3s1p1d pattern {311/2/1}
 Group   3 Type O   : 12s5p4d2f1g contracted to 6s4p3d1f1g pattern {711111/2111/211/2/1}

Atom   0C    basis set group =>   1
Atom   1C    basis set group =>   1
Atom   2C    basis set group =>   1
Atom   3H    basis set group =>   2
Atom   4H    basis set group =>   2
Atom   5C    basis set group =>   1
Atom   6C    basis set group =>   1
Atom   7C    basis set group =>   1
Atom   8H    basis set group =>   2
Atom   9H    basis set group =>   2
Atom  10H    basis set group =>   2
Atom  11H    basis set group =>   2
Atom  12O    basis set group =>   3
Atom  13H    basis set group =>   2
Atom  14C    basis set group =>   1
Atom  15C    basis set group =>   1
Atom  16H    basis set group =>   2
Atom  17H    basis set group =>   2
Atom  18C    basis set group =>   1
Atom  19H    basis set group =>   2
Atom  20C    basis set group =>   1
Atom  21H    basis set group =>   2
Atom  22C    basis set group =>   1
Atom  23C    basis set group =>   1
Atom  24H    basis set group =>   2
Atom  25H    basis set group =>   2
Atom  26C    basis set group =>   1
Atom  27H    basis set group =>   2
Atom  28H    basis set group =>   2
Atom  29C    basis set group =>   1
Atom  30H    basis set group =>   2
Atom  31H    basis set group =>   2
Atom  32C    basis set group =>   1
Atom  33H    basis set group =>   2
Atom  34C    basis set group =>   1
Atom  35H    basis set group =>   2
Atom  36C    basis set group =>   1
Atom  37H    basis set group =>   2
Atom  38H    basis set group =>   2
Atom  39C    basis set group =>   1
Atom  40H    basis set group =>   2
Atom  41H    basis set group =>   2
Atom  42H    basis set group =>   2
Atom  43C    basis set group =>   1
Atom  44C    basis set group =>   1
Atom  45H    basis set group =>   2
Atom  46H    basis set group =>   2
Atom  47H    basis set group =>   2
Atom  48H    basis set group =>   2
Atom  49C    basis set group =>   1
Atom  50C    basis set group =>   1
Atom  51C    basis set group =>   1
Atom  52H    basis set group =>   2
Atom  53H    basis set group =>   2
Atom  54C    basis set group =>   1
Atom  55C    basis set group =>   1
Atom  56C    basis set group =>   1
Atom  57H    basis set group =>   2
Atom  58H    basis set group =>   2
Atom  59C    basis set group =>   1
Atom  60C    basis set group =>   1
Atom  61H    basis set group =>   2
Atom  62H    basis set group =>   2
Atom  63H    basis set group =>   2
Atom  64H    basis set group =>   2
Atom  65H    basis set group =>   2
Atom  66H    basis set group =>   2
Atom  67H    basis set group =>   2
Atom  68H    basis set group =>   2
Atom  69H    basis set group =>   2
Atom  70H    basis set group =>   2
Atom  71H    basis set group =>   2
Atom  72H    basis set group =>   2

-------------------------------------
AUXILIARY/J BASIS SET IN INPUT FORMAT
-------------------------------------

 # Auxiliary/J basis set for element : H 
 NewAuxJGTO H 
 S 3 
   1      15.6752927000      0.1007184237
   2       3.6063578000      0.3404257499
   3       1.2080016000      0.6491996172
 S 1 
   1       0.4726794000      1.0000000000
 S 1 
   1       0.2018100000      1.0000000000
 P 2 
   1       2.0281365000      0.5596620919
   2       0.5358730000      0.5596620919
 D 1 
   1       2.2165124000      1.0000000000
  end;

 # Auxiliary/J basis set for element : C 
 NewAuxJGTO C 
 S 7 
   1    1861.0916331000      0.0134602335
   2     642.9939764000      0.0299160374
   3     235.1105725000      0.1008649584
   4      90.7028894000      0.2370970548
   5      36.7794552000      0.3924037254
   6      15.6046273000      0.3195862154
   7       6.8907294000      0.0530104441
 S 1 
   1       3.1478850000     -1.0000000000
 S 1 
   1       1.4777287000      1.0000000000
 S 1 
   1       0.7076466000      1.0000000000
 S 1 
   1       0.3430122000      1.0000000000
 S 1 
   1       0.1669453000      1.0000000000
 P 2 
   1      13.5472892000     -0.6769313712
   2       5.4669419000     -0.3779500978
 P 1 
   1       2.1751721000      1.0000000000
 P 1 
   1       0.8582194000      1.0000000000
 P 1 
   1       0.3376720000      1.0000000000
 D 2 
   1       5.9287253000     -0.3533329857
   2       1.9809209000     -0.7456525731
 D 1 
   1       0.8055417000     -1.0000000000
 D 1 
   1       0.3531244000     -1.0000000000
 F 2 
   1       1.6755626000      0.6311076882
   2       0.5997536000      0.4968166032
 G 1 
   1       1.0024600000     -1.0000000000
  end;

 # Auxiliary/J basis set for element : O 
 NewAuxJGTO O 
 S 7 
   1    2876.8216605000      0.0168151159
   2    1004.7443032000      0.0340137548
   3     369.7579954000      0.1194951309
   4     142.9442404000      0.2664627624
   5      57.8366425000      0.4202764046
   6      24.3864983000      0.2765077335
   7      10.6622662000      0.0057008815
 S 1 
   1       4.8070437000     -1.0000000000
 S 1 
   1       2.2210770000      1.0000000000
 S 1 
   1       1.0447795000      1.0000000000
 S 1 
   1       0.4968425000      1.0000000000
 S 1 
   1       0.2371384000      1.0000000000
 P 2 
   1      64.2613382000     -0.2731534179
   2      16.3006076000     -0.8168011598
 P 1 
   1       4.3550542000      1.0000000000
 P 1 
   1       1.2019554000      1.0000000000
 P 1 
   1       0.3354196000      1.0000000000
 D 2 
   1       9.2146611000     -0.4661230638
   2       2.8435251000     -0.6600908911
 D 1 
   1       0.9955759000     -1.0000000000
 D 1 
   1       0.3649441000     -1.0000000000
 F 2 
   1       2.6420115000      0.5931563945
   2       0.7345613000      0.5931563945
 G 1 
   1       1.3931000000     -1.0000000000
  end;



           ************************************************************
           *        Program running with 4 parallel MPI-processes     *
           *              working on a common directory               *
           ************************************************************
------------------------------------------------------------------------------
                           ORCA GTO INTEGRAL CALCULATION
                           -- RI-GTO INTEGRALS CHOSEN --
------------------------------------------------------------------------------
------------------------------------------------------------------------------
                   ___                                                        
                  /   \      - P O W E R E D   B Y -                         
                 /     \                                                     
                 |  |  |   _    _      __       _____    __    __             
                 |  |  |  | |  | |    /  \     |  _  \  |  |  /  |          
                  \  \/   | |  | |   /    \    | | | |  |  | /  /          
                 / \  \   | |__| |  /  /\  \   | |_| |  |  |/  /          
                |  |  |   |  __  | /  /__\  \  |    /   |      \           
                |  |  |   | |  | | |   __   |  |    \   |  |\   \          
                \     /   | |  | | |  |  |  |  | |\  \  |  | \   \       
                 \___/    |_|  |_| |__|  |__|  |_| \__\ |__|  \__/        
                                                                              
                      - O R C A' S   B I G   F R I E N D -                    
                                      &                                       
                       - I N T E G R A L  F E E D E R -                       
                                                                              
 v1 FN, 2020, v2 2021                                                         
------------------------------------------------------------------------------


Reading SHARK input file inpS.SHARKINP.tmp ... ok
----------------------
SHARK INTEGRAL PACKAGE
----------------------

Number of atoms                             ...     73
Number of basis functions                   ...    713
Number of shells                            ...    335
Maximum angular momentum                    ...      2
Integral batch strategy                     ... SHARK/LIBINT Hybrid
RI-J (if used) integral strategy            ... SPLIT-RIJ (Revised 2003 algorithm where possible)
Printlevel                                  ...      1
Contraction scheme used                     ... SEGMENTED contraction
Coulomb Range Separation                    ... NOT USED
Exchange Range Separation                   ... NOT USED
Finite Nucleus Model                        ... NOT USED
Auxiliary Coulomb fitting basis             ... AVAILABLE
   # of basis functions in Aux-J            ...   1905
   # of shells in Aux-J                     ...    655
   Maximum angular momentum in Aux-J        ...      4
Auxiliary J/K fitting basis                 ... NOT available
Auxiliary Correlation fitting basis         ... NOT available
Auxiliary 'external' fitting basis          ... NOT available
Integral threshold                          ...     3.000000e-11
Primitive cut-off                           ...     1.000000e-12
Primitive pair pre-selection threshold      ...     1.000000e-12

Calculating pre-screening integrals         ... done (  0.0 sec) Dimension = 335
Organizing shell pair data                  ... done (  0.1 sec)
Shell pair information
Total number of shell pairs                 ...     56280
Shell pairs after pre-screening             ...     31489
Total number of primitive shell pairs       ...    225367
Primitive shell pairs kept                  ...     74035
          la=0 lb=0:   9623 shell pairs
          la=1 lb=0:  12953 shell pairs
          la=1 lb=1:   4220 shell pairs
          la=2 lb=0:   2754 shell pairs
          la=2 lb=1:   1744 shell pairs
          la=2 lb=2:    195 shell pairs

Calculating one electron integrals          ... done (  0.1 sec)
Calculating RI/J V-Matrix + Cholesky decomp.... done (  0.1 sec)
Calculating Nuclear repulsion               ... done (  0.0 sec) ENN=   2762.965631719105 Eh

SHARK setup successfully completed in   0.6 seconds

Maximum memory used throughout the entire GTOINT-calculation: 61.0 MB


           ************************************************************
           *        Program running with 4 parallel MPI-processes     *
           *              working on a common directory               *
           ************************************************************
-------------------------------------------------------------------------------
                                 ORCA SCF
-------------------------------------------------------------------------------

------------
SCF SETTINGS
------------
Hamiltonian:
 Density Functional     Method          .... DFT(GTOs)
 Exchange Functional    Exchange        .... revTPSS
 Correlation Functional Correlation     .... revTPSS
 LDA part of GGA corr.  LDAOpt          .... PW91-LDA
 Gradients option       PostSCFGGA      .... off
   Density functional embedding theory  .... OFF
 RI-approximation to the Coulomb term is turned on
   Number of AuxJ basis functions       .... 1905


General Settings:
 Integral files         IntName         .... inpS
 Hartree-Fock type      HFTyp           .... RHF
 Total Charge           Charge          ....    0
 Multiplicity           Mult            ....    1
 Number of Electrons    NEL             ....  220
 Basis Dimension        Dim             ....  713
 Nuclear Repulsion      ENuc            ....   2762.9656317191 Eh

Convergence Acceleration:
 DIIS                   CNVDIIS         .... on
   Start iteration      DIISMaxIt       ....    12
   Startup error        DIISStart       ....  0.200000
   # of expansion vecs  DIISMaxEq       ....     5
   Bias factor          DIISBfac        ....   1.050
   Max. coefficient     DIISMaxC        ....  10.000
 Trust-Rad. Augm. Hess. CNVTRAH         .... auto
   Auto Start mean grad. ratio tolernc. ....  1.125000
   Auto Start start iteration           ....    20
   Auto Start num. interpolation iter.  ....    10
   Max. Number of Micro iterations      ....    16
   Max. Number of Macro iterations      .... Maxiter - #DIIS iter
   Number of Davidson start vectors     ....     2
   Converg. threshold I  (grad. norm)   ....   1.000e-04
   Converg. threshold II (energy diff.) ....   1.000e-07
   Grad. Scal. Fac. for Micro threshold ....   0.100
   Minimum threshold for Micro iter.    ....   0.010
   NR start threshold (gradient norm)   ....   0.001
   Initial trust radius                 ....   0.400
   Minimum AH scaling param. (alpha)    ....   1.000
   Maximum AH scaling param. (alpha)    .... 1000.000
   Orbital update algorithm             .... Taylor
   White noise on init. David. guess    .... on
   Maximum white noise                  ....   0.010
   Quad. conv. algorithm                .... NR
 SOSCF                  CNVSOSCF        .... off
 Level Shifting         CNVShift        .... on
   Level shift para.    LevelShift      ....    0.2500
   Turn off err/grad.   ShiftErr        ....    0.0010
 Zerner damping         CNVZerner       .... off
 Static damping         CNVDamp         .... on
   Fraction old density DampFac         ....    0.7000
   Max. Damping (<1)    DampMax         ....    0.9800
   Min. Damping (>=0)   DampMin         ....    0.0000
   Turn off err/grad.   DampErr         ....    0.1000
 Fernandez-Rico         CNVRico         .... off

SCF Procedure:
 Maximum # iterations   MaxIter         ....   125
 SCF integral mode      SCFMode         .... Direct
   Integral package                     .... SHARK and LIBINT hybrid scheme
 Reset frequency        DirectResetFreq ....    20
 Integral Threshold     Thresh          ....  3.000e-11 Eh
 Primitive CutOff       TCut            ....  1.000e-12 Eh

Convergence Tolerance:
 Convergence Check Mode ConvCheckMode   .... Total+1el-Energy
 Convergence forced     ConvForced      .... 0
 Energy Change          TolE            ....  1.000e-07 Eh
 1-El. energy change                    ....  1.000e-04 Eh
 DIIS Error             TolErr          ....  1.000e-07


Diagonalization of the overlap matrix:
Smallest eigenvalue                        ... 5.061e-04
Time for diagonalization                   ...    0.078 sec
Threshold for overlap eigenvalues          ... 1.000e-08
Number of eigenvalues below threshold      ... 0
Time for construction of square roots      ...    0.085 sec
Total time needed                          ...    0.166 sec

Time for model grid setup =    0.806 sec

------------------------------
INITIAL GUESS: MODEL POTENTIAL
------------------------------
Loading Hartree-Fock densities                     ... done
Calculating cut-offs                               ... done
Initializing the effective Hamiltonian             ... done
Setting up the integral package (SHARK)            ... done
Starting the Coulomb interaction                   ... done (   0.9 sec)
Reading the grid                                   ... done
Mapping shells                                     ... done
Starting the XC term evaluation                    ... done (   0.3 sec)
  promolecular density results
     # of electrons  =    219.983020448
     EX              =   -164.432128301
     EC              =     -7.324805951
     EX+EC           =   -171.756934252
Transforming the Hamiltonian                       ... done (   0.0 sec)
Diagonalizing the Hamiltonian                      ... done (   0.1 sec)
Back transforming the eigenvectors                 ... done (   0.0 sec)
Now organizing SCF variables                       ... done
                      ------------------
                      INITIAL GUESS DONE (   2.1 sec)
                      ------------------
-------------------
DFT GRID GENERATION
-------------------

General Integration Accuracy     IntAcc      ... 4.388
Radial Grid Type                 RadialGrid  ... OptM3 with GC (2021)
Angular Grid (max. ang.)         AngularGrid ... 4 (Lebedev-302)
Angular grid pruning method      GridPruning ... 4 (adaptive)
Weight generation scheme         WeightScheme... Becke
Basis function cutoff            BFCut       ... 1.0000e-11
Integration weight cutoff        WCut        ... 1.0000e-14
Angular grids for H and He will be reduced by one unit
Partially contracted basis set               ... off
Rotationally invariant grid construction     ... off

Total number of grid points                  ...   309882
Total number of batches                      ...     4874
Average number of points per batch           ...       63
Average number of grid points per atom       ...     4245
Time for grid setup =    2.994 sec


--------------------
CPCM SOLVATION MODEL
--------------------
CPCM parameters:
  Epsilon                                         ...       4.9000
  Refrac                                          ...       1.4500
  Rsolv                                           ...       1.3000
  Surface type                                    ... GAUSSIAN VDW
  Epsilon function type                           ...         CPCM
Radii:
 Radius for C  used is    3.8550 Bohr (=   2.0400 Ang.)
 Radius for H  used is    2.4944 Bohr (=   1.3200 Ang.)
 Radius for O  used is    3.4469 Bohr (=   1.8240 Ang.)
Calculating surface                               ...        done! (  0.0s)
GEPOL surface points                              ...         3630
GEPOL Volume                                      ...    3588.2980
GEPOL Surface-area                                ...    1786.4667
Calculating surface distance matrix               ...        done! (  0.1s)
Performing Cholesky decomposition & store         ...        done! (  0.5s)
Overall time for CPCM initialization              ...                 0.6s
--------------
SCF ITERATIONS
--------------
ITER       Energy         Delta-E        Max-DP      RMS-DP      [F,P]     Damp
               ***  Starting incremental Fock matrix formation  ***

  HOMO= 109 E= -1.862 eV LUMO=  7.824 eV gap=   9.686 eV
  0  -1167.5251415915   0.000000000000 0.05340776  0.00082870  0.2619468 0.7000

  HOMO= 109 E= -3.348 eV LUMO=  6.711 eV gap=  10.059 eV
  1  -1167.8977640015  -0.372622410010 0.02891416  0.00061222  0.1022150 0.7000
                               ***Turning on DIIS***

  HOMO= 109 E= -4.325 eV LUMO=  5.821 eV gap=  10.145 eV
  2  -1168.0442851120  -0.146521110529 0.05168663  0.00101094  0.0308276 0.0000

  HOMO= 109 E= -4.952 eV LUMO=  5.229 eV gap=  10.181 eV
  3  -1168.2409763207  -0.196691208708 0.02318141  0.00047116  0.0551355 0.0000

  HOMO= 109 E= -4.989 eV LUMO=  5.193 eV gap=  10.181 eV
  4  -1168.3081858433  -0.067209522553 0.00754925  0.00015271  0.0104431 0.0000

  HOMO= 109 E= -4.941 eV LUMO=  5.248 eV gap=  10.189 eV
  5  -1168.3112846827  -0.003098839420 0.00311034  0.00005689  0.0094212 0.0000

  HOMO= 109 E= -4.921 eV LUMO=  5.265 eV gap=  10.186 eV
  6  -1168.3115627266  -0.000278043873 0.00120018  0.00001928  0.0027165 0.0000

  HOMO= 109 E= -4.923 eV LUMO= -1.540 eV gap=   3.383 eV
  7  -1168.3115819902  -0.000019263583 0.00071525  0.00001170  0.0005897 0.0000

  HOMO= 109 E= -4.921 eV LUMO= -1.538 eV gap=   3.383 eV
  8  -1168.3115850736  -0.000003083414 0.00025874  0.00000283  0.0003909 0.0000

  HOMO= 109 E= -4.919 eV LUMO= -1.536 eV gap=   3.383 eV
  9  -1168.3115856513  -0.000000577719 0.00016230  0.00000158  0.0002715 0.0000

  HOMO= 109 E= -4.919 eV LUMO= -1.537 eV gap=   3.383 eV
 10  -1168.3115859154  -0.000000264112 0.00006721  0.00000072  0.0001002 0.0000

  HOMO= 109 E= -4.920 eV LUMO= -1.537 eV gap=   3.383 eV
 11  -1168.3115859502  -0.000000034807 0.00002730  0.00000029  0.0000380 0.0000

  HOMO= 109 E= -4.920 eV LUMO= -1.537 eV gap=   3.383 eV
 12  -1168.3115859315   0.000000018710 0.00001415  0.00000013  0.0000197 0.0000

  HOMO= 109 E= -4.920 eV LUMO= -1.537 eV gap=   3.383 eV
 13  -1168.3115859715  -0.000000039949 0.00000670  0.00000006  0.0000083 0.0000
                 **** Energy Check signals convergence ****

               *****************************************************
               *                     SUCCESS                       *
               *           SCF CONVERGED AFTER  14 CYCLES          *
               *****************************************************


----------------
TOTAL SCF ENERGY
----------------

Total Energy       :        -1168.31158600 Eh          -31791.37450 eV

Components:
Nuclear Repulsion  :         2762.96563172 Eh           75184.11713 eV
Electronic Energy  :        -3931.27721772 Eh         -106975.49162 eV
One Electron Energy:        -7072.26161745 Eh         -192446.02238 eV
Two Electron Energy:         3140.98439973 Eh           85470.53075 eV
CPCM Dielectric    :           -0.01022445 Eh              -0.27822 eV

Virial components:
Potential Energy   :        -2330.42020577 Eh          -63413.95770 eV
Kinetic Energy     :         1162.10861977 Eh           31622.58321 eV
Virial Ratio       :            2.00533768


DFT components:
N(Alpha)           :      110.000200416524 electrons
N(Beta)            :      110.000200416524 electrons
N(Total)           :      220.000400833048 electrons
E(X)               :     -169.583978486081 Eh       
E(C)               :       -7.441950476485 Eh       
E(XC)              :     -177.025928962566 Eh       
DFET-embed. en.    :        0.000000000000 Eh       
CPCM Solvation Model Properties:
Surface-charge          :           -0.04554018
Charge-correction       :           -0.00002003 Eh              -0.00055 eV
Free-energy (cav+disp)  :  This term is not implemented in the current solvation scheme

---------------
SCF CONVERGENCE
---------------

  Last Energy change         ...   -2.9564e-08  Tolerance :   1.0000e-07
  Last MAX-Density change    ...    2.9768e-06  Tolerance :   1.0000e-05
  Last RMS-Density change    ...    2.8683e-08  Tolerance :   1.0000e-06
  Last DIIS Error            ...    3.6595e-06  Tolerance :   1.0000e-07

             **** THE GBW FILE WAS UPDATED (inpS.gbw) ****
             **** DENSITY inpS.scfp WAS UPDATED ****
             **** ENERGY FILE WAS UPDATED (inpS.en.tmp) ****
             **** THE GBW FILE WAS UPDATED (inpS.gbw) ****
             **** DENSITY inpS.scfp WAS UPDATED ****
----------------
ORBITAL ENERGIES
----------------

  NO   OCC          E(Eh)            E(eV) 
   0   2.0000     -18.905660      -514.4492 
   1   2.0000     -10.057147      -273.6689 
   2   2.0000     -10.015981      -272.5487 
   3   2.0000     -10.013518      -272.4817 
   4   2.0000     -10.013478      -272.4806 
   5   2.0000     -10.011722      -272.4328 
   6   2.0000     -10.011546      -272.4280 
   7   2.0000     -10.010306      -272.3943 
   8   2.0000     -10.008754      -272.3521 
   9   2.0000     -10.008584      -272.3474 
  10   2.0000     -10.007893      -272.3286 
  11   2.0000     -10.007505      -272.3181 
  12   2.0000     -10.007059      -272.3059 
  13   2.0000     -10.006798      -272.2988 
  14   2.0000     -10.006673      -272.2954 
  15   2.0000     -10.005989      -272.2768 
  16   2.0000     -10.004222      -272.2287 
  17   2.0000     -10.001091      -272.1435 
  18   2.0000     -10.000401      -272.1247 
  19   2.0000     -10.000277      -272.1214 
  20   2.0000      -9.999774      -272.1077 
  21   2.0000      -9.998638      -272.0768 
  22   2.0000      -9.997204      -272.0377 
  23   2.0000      -9.996801      -272.0268 
  24   2.0000      -9.995866      -272.0013 
  25   2.0000      -9.995697      -271.9967 
  26   2.0000      -9.995623      -271.9947 
  27   2.0000      -9.995269      -271.9851 
  28   2.0000      -9.993333      -271.9324 
  29   2.0000      -0.955897       -26.0113 
  30   2.0000      -0.807543       -21.9744 
  31   2.0000      -0.791121       -21.5275 
  32   2.0000      -0.770317       -20.9614 
  33   2.0000      -0.756807       -20.5938 
  34   2.0000      -0.734400       -19.9840 
  35   2.0000      -0.727983       -19.8094 
  36   2.0000      -0.708663       -19.2837 
  37   2.0000      -0.708125       -19.2691 
  38   2.0000      -0.693129       -18.8610 
  39   2.0000      -0.675912       -18.3925 
  40   2.0000      -0.659147       -17.9363 
  41   2.0000      -0.653519       -17.7832 
  42   2.0000      -0.635825       -17.3017 
  43   2.0000      -0.626579       -17.0501 
  44   2.0000      -0.623364       -16.9626 
  45   2.0000      -0.616490       -16.7755 
  46   2.0000      -0.590546       -16.0696 
  47   2.0000      -0.585269       -15.9260 
  48   2.0000      -0.558900       -15.2084 
  49   2.0000      -0.549171       -14.9437 
  50   2.0000      -0.547733       -14.9046 
  51   2.0000      -0.537212       -14.6183 
  52   2.0000      -0.527190       -14.3456 
  53   2.0000      -0.507260       -13.8032 
  54   2.0000      -0.497752       -13.5445 
  55   2.0000      -0.481222       -13.0947 
  56   2.0000      -0.472664       -12.8618 
  57   2.0000      -0.464250       -12.6329 
  58   2.0000      -0.451315       -12.2809 
  59   2.0000      -0.444601       -12.0982 
  60   2.0000      -0.431623       -11.7451 
  61   2.0000      -0.429414       -11.6850 
  62   2.0000      -0.415294       -11.3007 
  63   2.0000      -0.414495       -11.2790 
  64   2.0000      -0.413059       -11.2399 
  65   2.0000      -0.408524       -11.1165 
  66   2.0000      -0.401449       -10.9240 
  67   2.0000      -0.396654       -10.7935 
  68   2.0000      -0.395649       -10.7662 
  69   2.0000      -0.390792       -10.6340 
  70   2.0000      -0.386538       -10.5182 
  71   2.0000      -0.383869       -10.4456 
  72   2.0000      -0.377959       -10.2848 
  73   2.0000      -0.374951       -10.2029 
  74   2.0000      -0.371500       -10.1090 
  75   2.0000      -0.368363       -10.0237 
  76   2.0000      -0.358635        -9.7590 
  77   2.0000      -0.357051        -9.7158 
  78   2.0000      -0.353446        -9.6178 
  79   2.0000      -0.346927        -9.4404 
  80   2.0000      -0.345132        -9.3915 
  81   2.0000      -0.344267        -9.3680 
  82   2.0000      -0.343021        -9.3341 
  83   2.0000      -0.337927        -9.1955 
  84   2.0000      -0.330810        -9.0018 
  85   2.0000      -0.326742        -8.8911 
  86   2.0000      -0.325099        -8.8464 
  87   2.0000      -0.320586        -8.7236 
  88   2.0000      -0.316293        -8.6068 
  89   2.0000      -0.312078        -8.4921 
  90   2.0000      -0.309429        -8.4200 
  91   2.0000      -0.307740        -8.3740 
  92   2.0000      -0.299775        -8.1573 
  93   2.0000      -0.295923        -8.0525 
  94   2.0000      -0.289724        -7.8838 
  95   2.0000      -0.287908        -7.8344 
  96   2.0000      -0.286626        -7.7995 
  97   2.0000      -0.284447        -7.7402 
  98   2.0000      -0.281269        -7.6537 
  99   2.0000      -0.279491        -7.6053 
 100   2.0000      -0.276584        -7.5262 
 101   2.0000      -0.272479        -7.4145 
 102   2.0000      -0.272352        -7.4111 
 103   2.0000      -0.267014        -7.2658 
 104   2.0000      -0.261301        -7.1104 
 105   2.0000      -0.249796        -6.7973 
 106   2.0000      -0.233529        -6.3546 
 107   2.0000      -0.227399        -6.1878 
 108   2.0000      -0.211596        -5.7578 
 109   2.0000      -0.180794        -4.9197 
 110   0.0000      -0.056474        -1.5367 
 111   0.0000      -0.013139        -0.3575 
 112   0.0000      -0.003815        -0.1038 
 113   0.0000       0.029952         0.8150 
 114   0.0000       0.042087         1.1453 
 115   0.0000       0.042743         1.1631 
 116   0.0000       0.047721         1.2985 
 117   0.0000       0.048460         1.3187 
 118   0.0000       0.052674         1.4333 
 119   0.0000       0.053325         1.4511 
 120   0.0000       0.059056         1.6070 
 121   0.0000       0.066022         1.7966 
 122   0.0000       0.071664         1.9501 
 123   0.0000       0.072766         1.9801 
 124   0.0000       0.074718         2.0332 
 125   0.0000       0.076691         2.0869 
 126   0.0000       0.084540         2.3005 
 127   0.0000       0.086738         2.3603 
 128   0.0000       0.088591         2.4107 
 129   0.0000       0.091872         2.5000 
 130   0.0000       0.099408         2.7050 
 131   0.0000       0.102075         2.7776 
 132   0.0000       0.105024         2.8578 
 133   0.0000       0.105905         2.8818 
 134   0.0000       0.109014         2.9664 
 135   0.0000       0.113366         3.0848 
 136   0.0000       0.116684         3.1751 
 137   0.0000       0.120892         3.2896 
 138   0.0000       0.123280         3.3546 
 139   0.0000       0.123640         3.3644 
 140   0.0000       0.126304         3.4369 
 141   0.0000       0.127808         3.4778 
 142   0.0000       0.130007         3.5377 
 143   0.0000       0.130789         3.5590 
 144   0.0000       0.134887         3.6705 
 145   0.0000       0.138335         3.7643 
 146   0.0000       0.143150         3.8953 
 147   0.0000       0.145306         3.9540 
 148   0.0000       0.145484         3.9588 
 149   0.0000       0.149337         4.0637 
 150   0.0000       0.150562         4.0970 
 151   0.0000       0.155135         4.2214 
 152   0.0000       0.156025         4.2457 
 153   0.0000       0.158801         4.3212 
 154   0.0000       0.167720         4.5639 
 155   0.0000       0.169955         4.6247 
 156   0.0000       0.173034         4.7085 
 157   0.0000       0.176484         4.8024 
 158   0.0000       0.183133         4.9833 
 159   0.0000       0.185053         5.0356 
 160   0.0000       0.189524         5.1572 
 161   0.0000       0.192411         5.2358 
 162   0.0000       0.197346         5.3701 
 163   0.0000       0.199026         5.4158 
 164   0.0000       0.201916         5.4944 
 165   0.0000       0.206386         5.6161 
 166   0.0000       0.209669         5.7054 
 167   0.0000       0.214264         5.8304 
 168   0.0000       0.215142         5.8543 
 169   0.0000       0.217660         5.9228 
 170   0.0000       0.221101         6.0165 
 171   0.0000       0.224789         6.1168 
 172   0.0000       0.229154         6.2356 
 173   0.0000       0.230162         6.2630 
 174   0.0000       0.232783         6.3343 
 175   0.0000       0.243437         6.6243 
 176   0.0000       0.252838         6.8801 
 177   0.0000       0.259966         7.0740 
 178   0.0000       0.266689         7.2570 
 179   0.0000       0.270713         7.3665 
 180   0.0000       0.275326         7.4920 
 181   0.0000       0.287106         7.8126 
 182   0.0000       0.287784         7.8310 
 183   0.0000       0.294348         8.0096 
 184   0.0000       0.296857         8.0779 
 185   0.0000       0.325966         8.8700 
 186   0.0000       0.332309         9.0426 
 187   0.0000       0.341426         9.2907 
 188   0.0000       0.345545         9.4027 
 189   0.0000       0.349762         9.5175 
 190   0.0000       0.357415         9.7257 
 191   0.0000       0.359661         9.7869 
 192   0.0000       0.363181         9.8827 
 193   0.0000       0.369135        10.0447 
 194   0.0000       0.372296        10.1307 
 195   0.0000       0.377535        10.2733 
 196   0.0000       0.383105        10.4248 
 197   0.0000       0.385418        10.4878 
 198   0.0000       0.395566        10.7639 
 199   0.0000       0.398499        10.8437 
 200   0.0000       0.404515        11.0074 
 201   0.0000       0.410338        11.1659 
 202   0.0000       0.411368        11.1939 
 203   0.0000       0.413487        11.2515 
 204   0.0000       0.421339        11.4652 
 205   0.0000       0.431092        11.7306 
 206   0.0000       0.435862        11.8604 
 207   0.0000       0.441006        12.0004 
 208   0.0000       0.447640        12.1809 
 209   0.0000       0.456878        12.4323 
 210   0.0000       0.461627        12.5615 
 211   0.0000       0.468691        12.7537 
 212   0.0000       0.471523        12.8308 
 213   0.0000       0.473331        12.8800 
 214   0.0000       0.476652        12.9704 
 215   0.0000       0.480944        13.0872 
 216   0.0000       0.488508        13.2930 
 217   0.0000       0.489913        13.3312 
 218   0.0000       0.500402        13.6166 
 219   0.0000       0.503281        13.6950 
 220   0.0000       0.506224        13.7751 
 221   0.0000       0.509919        13.8756 
 222   0.0000       0.515575        14.0295 
 223   0.0000       0.528495        14.3811 
 224   0.0000       0.533024        14.5043 
 225   0.0000       0.534304        14.5392 
 226   0.0000       0.539766        14.6878 
 227   0.0000       0.541041        14.7225 
 228   0.0000       0.545870        14.8539 
 229   0.0000       0.550179        14.9711 
 230   0.0000       0.553943        15.0736 
 231   0.0000       0.556364        15.1394 
 232   0.0000       0.561507        15.2794 
 233   0.0000       0.563002        15.3201 
 234   0.0000       0.566048        15.4029 
 235   0.0000       0.569681        15.5018 
 236   0.0000       0.570227        15.5167 
 237   0.0000       0.574216        15.6252 
 238   0.0000       0.576791        15.6953 
 239   0.0000       0.580088        15.7850 
 240   0.0000       0.583167        15.8688 
 241   0.0000       0.585520        15.9328 
 242   0.0000       0.589312        16.0360 
 243   0.0000       0.591270        16.0893 
 244   0.0000       0.592539        16.1238 
 245   0.0000       0.593487        16.1496 
 246   0.0000       0.597779        16.2664 
 247   0.0000       0.600290        16.3347 
 248   0.0000       0.603916        16.4334 
 249   0.0000       0.605111        16.4659 
 250   0.0000       0.606824        16.5125 
 251   0.0000       0.608981        16.5712 
 252   0.0000       0.611689        16.6449 
 253   0.0000       0.613742        16.7008 
 254   0.0000       0.615426        16.7466 
 255   0.0000       0.620225        16.8772 
 256   0.0000       0.622936        16.9509 
 257   0.0000       0.626225        17.0405 
 258   0.0000       0.626876        17.0582 
 259   0.0000       0.628730        17.1086 
 260   0.0000       0.629702        17.1351 
 261   0.0000       0.632977        17.2242 
 262   0.0000       0.638384        17.3713 
 263   0.0000       0.641774        17.4636 
 264   0.0000       0.643860        17.5203 
 265   0.0000       0.647807        17.6277 
 266   0.0000       0.651012        17.7149 
 267   0.0000       0.652225        17.7479 
 268   0.0000       0.653881        17.7930 
 269   0.0000       0.655857        17.8468 
 270   0.0000       0.661304        17.9950 
 271   0.0000       0.663422        18.0526 
 272   0.0000       0.665125        18.0990 
 273   0.0000       0.671757        18.2794 
 274   0.0000       0.672353        18.2957 
 275   0.0000       0.675316        18.3763 
 276   0.0000       0.677073        18.4241 
 277   0.0000       0.685798        18.6615 
 278   0.0000       0.687474        18.7071 
 279   0.0000       0.690507        18.7896 
 280   0.0000       0.694005        18.8848 
 281   0.0000       0.697189        18.9715 
 282   0.0000       0.699778        19.0419 
 283   0.0000       0.704328        19.1657 
 284   0.0000       0.706346        19.2206 
 285   0.0000       0.710739        19.3402 
 286   0.0000       0.714278        19.4365 
 287   0.0000       0.724266        19.7083 
 288   0.0000       0.726846        19.7785 
 289   0.0000       0.730653        19.8821 
 290   0.0000       0.743848        20.2411 
 291   0.0000       0.747357        20.3366 
 292   0.0000       0.749315        20.3899 
 293   0.0000       0.756018        20.5723 
 294   0.0000       0.767407        20.8822 
 295   0.0000       0.769294        20.9336 
 296   0.0000       0.771465        20.9926 
 297   0.0000       0.775594        21.1050 
 298   0.0000       0.784539        21.3484 
 299   0.0000       0.790606        21.5135 
 300   0.0000       0.798505        21.7284 
 301   0.0000       0.803499        21.8643 
 302   0.0000       0.807348        21.9691 
 303   0.0000       0.834203        22.6998 
 304   0.0000       0.838670        22.8214 
 305   0.0000       0.848541        23.0900 
 306   0.0000       0.853315        23.2199 
 307   0.0000       0.878410        23.9027 
 308   0.0000       0.885712        24.1015 
 309   0.0000       0.901255        24.5244 
 310   0.0000       0.916211        24.9314 
 311   0.0000       0.923547        25.1310 
 312   0.0000       0.944180        25.6925 
 313   0.0000       0.954383        25.9701 
 314   0.0000       0.959826        26.1182 
 315   0.0000       0.974670        26.5221 
 316   0.0000       0.986922        26.8555 
 317   0.0000       1.023988        27.8641 
 318   0.0000       1.035938        28.1893 
 319   0.0000       1.039766        28.2935 
 320   0.0000       1.055239        28.7145 
 321   0.0000       1.069130        29.0925 
 322   0.0000       1.083185        29.4750 
 323   0.0000       1.113380        30.2966 
 324   0.0000       1.123846        30.5814 
 325   0.0000       1.142362        31.0852 
 326   0.0000       1.148722        31.2583 
 327   0.0000       1.162470        31.6324 
 328   0.0000       1.180335        32.1185 
 329   0.0000       1.199112        32.6295 
 330   0.0000       1.200414        32.6649 
 331   0.0000       1.209397        32.9094 
 332   0.0000       1.231159        33.5015 
 333   0.0000       1.249819        34.0093 
 334   0.0000       1.252039        34.0697 
 335   0.0000       1.266513        34.4636 
 336   0.0000       1.275600        34.7108 
 337   0.0000       1.285248        34.9734 
 338   0.0000       1.305727        35.5306 
 339   0.0000       1.315777        35.8041 
 340   0.0000       1.328945        36.1624 
 341   0.0000       1.340660        36.4812 
 342   0.0000       1.347836        36.6765 
 343   0.0000       1.352020        36.7903 
 344   0.0000       1.361728        37.0545 
 345   0.0000       1.373379        37.3715 
 346   0.0000       1.379305        37.5328 
 347   0.0000       1.383753        37.6538 
 348   0.0000       1.403954        38.2035 
 349   0.0000       1.412359        38.4322 
 350   0.0000       1.420370        38.6502 
 351   0.0000       1.431391        38.9501 
 352   0.0000       1.436068        39.0774 
 353   0.0000       1.452345        39.5203 
 354   0.0000       1.456809        39.6418 
 355   0.0000       1.461886        39.7799 
 356   0.0000       1.467599        39.9354 
 357   0.0000       1.494607        40.6703 
 358   0.0000       1.503595        40.9149 
 359   0.0000       1.511528        41.1308 
 360   0.0000       1.517057        41.2812 
 361   0.0000       1.521384        41.3990 
 362   0.0000       1.527930        41.5771 
 363   0.0000       1.537251        41.8307 
 364   0.0000       1.549159        42.1548 
 365   0.0000       1.564913        42.5835 
 366   0.0000       1.574538        42.8454 
 367   0.0000       1.577339        42.9216 
 368   0.0000       1.591939        43.3189 
 369   0.0000       1.599397        43.5218 
 370   0.0000       1.609098        43.7858 
 371   0.0000       1.619430        44.0669 
 372   0.0000       1.628497        44.3137 
 373   0.0000       1.634626        44.4804 
 374   0.0000       1.642707        44.7003 
 375   0.0000       1.650849        44.9219 
 376   0.0000       1.664458        45.2922 
 377   0.0000       1.667023        45.3620 
 378   0.0000       1.675501        45.5927 
 379   0.0000       1.684603        45.8404 
 380   0.0000       1.687751        45.9260 
 381   0.0000       1.693190        46.0740 
 382   0.0000       1.702446        46.3259 
 383   0.0000       1.704788        46.3896 
 384   0.0000       1.709359        46.5140 
 385   0.0000       1.719144        46.7803 
 386   0.0000       1.722988        46.8849 
 387   0.0000       1.729180        47.0534 
 388   0.0000       1.734380        47.1949 
 389   0.0000       1.737874        47.2899 
 390   0.0000       1.740622        47.3647 
 391   0.0000       1.750136        47.6236 
 392   0.0000       1.763891        47.9979 
 393   0.0000       1.768638        48.1271 
 394   0.0000       1.770699        48.1832 
 395   0.0000       1.776041        48.3285 
 396   0.0000       1.781225        48.4696 
 397   0.0000       1.782240        48.4972 
 398   0.0000       1.787716        48.6462 
 399   0.0000       1.789620        48.6980 
 400   0.0000       1.796838        48.8944 
 401   0.0000       1.803037        49.0631 
 402   0.0000       1.806799        49.1655 
 403   0.0000       1.812093        49.3095 
 404   0.0000       1.817956        49.4691 
 405   0.0000       1.824716        49.6530 
 406   0.0000       1.828948        49.7682 
 407   0.0000       1.834744        49.9259 
 408   0.0000       1.839825        50.0642 
 409   0.0000       1.849644        50.3314 
 410   0.0000       1.854557        50.4651 
 411   0.0000       1.867530        50.8181 
 412   0.0000       1.873585        50.9828 
 413   0.0000       1.881133        51.1882 
 414   0.0000       1.887483        51.3610 
 415   0.0000       1.891891        51.4810 
 416   0.0000       1.898521        51.6614 
 417   0.0000       1.905498        51.8512 
 418   0.0000       1.906196        51.8702 
 419   0.0000       1.916346        52.1464 
 420   0.0000       1.923848        52.3506 
 421   0.0000       1.934905        52.6515 
 422   0.0000       1.939332        52.7719 
 423   0.0000       1.946004        52.9535 
 424   0.0000       1.948967        53.0341 
 425   0.0000       1.952617        53.1334 
 426   0.0000       1.959671        53.3254 
 427   0.0000       1.970117        53.6096 
 428   0.0000       1.971606        53.6501 
 429   0.0000       1.978545        53.8389 
 430   0.0000       1.981939        53.9313 
 431   0.0000       1.987890        54.0932 
 432   0.0000       1.990359        54.1604 
 433   0.0000       1.993931        54.2576 
 434   0.0000       1.998965        54.3946 
 435   0.0000       2.008069        54.6423 
 436   0.0000       2.011303        54.7303 
 437   0.0000       2.013498        54.7901 
 438   0.0000       2.015515        54.8450 
 439   0.0000       2.019904        54.9644 
 440   0.0000       2.024242        55.0824 
 441   0.0000       2.030849        55.2622 
 442   0.0000       2.035678        55.3936 
 443   0.0000       2.042310        55.5741 
[...]

 --------------
 Nucleus  47H :
 --------------

Diamagnetic contribution to the shielding tensor (ppm) : 
            31.294          3.745        -0.748
             1.270         45.172        -5.193
            -1.356         -4.838        45.057

Paramagnetic contribution to the shielding tensor (ppm): 
            -2.880         -3.695         1.630
            -0.828        -11.464         1.886
             1.655          1.399       -13.363

Total shielding tensor (ppm): 
            28.413          0.050         0.882
             0.442         33.708        -3.307
             0.299         -3.438        31.694


 Diagonalized sT*s matrix:
 
 sDSO            32.930           38.736           49.856  iso=      40.508
 sPSO            -4.865           -9.210          -13.633  iso=      -9.236
        ---------------  ---------------  ---------------
 Total           28.066           29.526           36.224  iso=      31.272

 --------------
 Nucleus  48H :
 --------------

Diamagnetic contribution to the shielding tensor (ppm) : 
            36.169         -0.409        -2.332
             0.176         28.313        -8.387
            -9.981         -7.666        52.679

Paramagnetic contribution to the shielding tensor (ppm): 
            -5.478          0.735         2.442
            -0.342         -0.116         6.098
            11.055          4.939       -22.037

Total shielding tensor (ppm): 
            30.691          0.326         0.109
            -0.166         28.198        -2.289
             1.074         -2.727        30.641


 Diagonalized sT*s matrix:
 
 sDSO            28.825           39.222           49.114  iso=      39.054
 sPSO            -2.231           -8.625          -16.775  iso=      -9.210
        ---------------  ---------------  ---------------
 Total           26.594           30.597           32.339  iso=      29.843

 --------------
 Nucleus  52H :
 --------------

Diamagnetic contribution to the shielding tensor (ppm) : 
            41.239          0.084        -2.628
             3.581         39.936        -6.782
            -5.112         -2.726        37.455

Paramagnetic contribution to the shielding tensor (ppm): 
            -9.021          0.616         4.322
            -2.502        -17.793         6.355
             6.684          2.212       -14.090

Total shielding tensor (ppm): 
            32.217          0.700         1.694
             1.079         22.143        -0.427
             1.572         -0.514        23.365


 Diagonalized sT*s matrix:
 
 sDSO            35.973           42.697           39.960  iso=      39.543
 sPSO           -14.187          -19.327           -7.390  iso=     -13.635
        ---------------  ---------------  ---------------
 Total           21.786           23.370           32.569  iso=      25.909

 --------------
 Nucleus  53H :
 --------------

Diamagnetic contribution to the shielding tensor (ppm) : 
            39.275         -5.483        -0.717
             1.785         42.103         0.434
            -7.613         -2.082        45.844

Paramagnetic contribution to the shielding tensor (ppm): 
            -7.526          5.895         3.786
             0.383        -19.662         1.517
            10.606          3.177       -19.960

Total shielding tensor (ppm): 
            31.748          0.411         3.069
             2.168         22.441         1.951
             2.992          1.094        25.884


 Diagonalized sT*s matrix:
 
 sDSO            43.049           47.387           36.785  iso=      42.407
 sPSO           -21.184          -22.503           -3.462  iso=     -15.716
        ---------------  ---------------  ---------------
 Total           21.866           24.884           33.323  iso=      26.691

 --------------
 Nucleus  57H :
 --------------

Diamagnetic contribution to the shielding tensor (ppm) : 
            37.661          0.105         0.150
            -4.201         46.277        -0.966
            -8.438         -1.862        25.901

Paramagnetic contribution to the shielding tensor (ppm): 
            -6.445         -0.363         0.641
             2.786        -14.569         0.014
             9.002          1.236         2.352

Total shielding tensor (ppm): 
            31.216         -0.258         0.791
            -1.415         31.708        -0.953
             0.565         -0.626        28.254


 Diagonalized sT*s matrix:
 
 sDSO            27.786           38.754           43.301  iso=      36.613
 sPSO             0.217           -8.162          -10.717  iso=      -6.221
        ---------------  ---------------  ---------------
 Total           28.003           30.592           32.583  iso=      30.393

 --------------
 Nucleus  58H :
 --------------

Diamagnetic contribution to the shielding tensor (ppm) : 
            29.366         -3.108         1.324
            -1.684         44.223        -7.112
            16.468          0.681        28.539

Paramagnetic contribution to the shielding tensor (ppm): 
             0.148          2.318        -0.740
             0.593         -9.880         7.111
           -15.187         -1.102        -0.110

Total shielding tensor (ppm): 
            29.515         -0.790         0.583
            -1.090         34.343        -0.001
             1.281         -0.421        28.429


 Diagonalized sT*s matrix:
 
 sDSO            21.163           35.869           45.095  iso=      34.042
 sPSO             6.716           -6.006          -10.552  iso=      -3.280
        ---------------  ---------------  ---------------
 Total           27.880           29.863           34.543  iso=      30.762

 --------------
 Nucleus  61H :
 --------------

Diamagnetic contribution to the shielding tensor (ppm) : 
            34.455         -0.540        -1.463
             3.776         24.539        -4.502
           -28.441         -5.486        26.954

Paramagnetic contribution to the shielding tensor (ppm): 
            -4.053          0.908        -0.569
            -3.229          1.916         2.749
            26.459          3.320         8.953

Total shielding tensor (ppm): 
            30.402          0.368        -2.032
             0.546         26.455        -1.753
            -1.982         -2.165        35.907


 Diagonalized sT*s matrix:
 
 sDSO            22.751           25.311           37.886  iso=      28.649
 sPSO             3.314            4.444           -0.942  iso=       2.272
        ---------------  ---------------  ---------------
 Total           26.065           29.755           36.944  iso=      30.921

 --------------
 Nucleus  62H :
 --------------

Diamagnetic contribution to the shielding tensor (ppm) : 
            35.369         -6.216        -0.073
            -8.940         38.376         2.311
           -13.602         -2.431         9.380

Paramagnetic contribution to the shielding tensor (ppm): 
            -3.700          2.224        -1.271
             5.687         -5.695        -0.804
            11.672          4.446        19.257

Total shielding tensor (ppm): 
            31.669         -3.991        -1.344
            -3.253         32.681         1.506
            -1.930          2.015        28.637


 Diagonalized sT*s matrix:
 
 sDSO             8.857           30.112           44.156  iso=      27.708
 sPSO            19.042           -1.585           -7.595  iso=       3.287
        ---------------  ---------------  ---------------
 Total           27.899           28.527           36.561  iso=      30.996

 --------------
 Nucleus  63H :
 --------------

Diamagnetic contribution to the shielding tensor (ppm) : 
            42.842          6.818         4.358
            10.868         35.687        -1.726
           -10.013         -4.137         0.861

Paramagnetic contribution to the shielding tensor (ppm): 
            -7.804         -2.327        -4.242
            -6.932         -8.911         2.286
             8.799          4.786        28.301

Total shielding tensor (ppm): 
            35.038          4.491         0.116
             3.936         26.776         0.561
            -1.214          0.649        29.162


 Diagonalized sT*s matrix:
 
 sDSO            29.982            1.148           48.261  iso=      26.464
 sPSO            -5.114           28.144          -11.445  iso=       3.862
        ---------------  ---------------  ---------------
 Total           24.868           29.292           36.816  iso=      30.325

 --------------
 Nucleus  64H :
 --------------

Diamagnetic contribution to the shielding tensor (ppm) : 
            20.516         -1.229        -5.488
            -1.797         32.990        -3.135
            23.091         -0.649        52.108

Paramagnetic contribution to the shielding tensor (ppm): 
             8.883          1.539         3.639
             2.215         -6.360         0.861
           -23.759         -1.906       -15.299

Total shielding tensor (ppm): 
            29.399          0.309        -1.849
             0.418         26.631        -2.274
            -0.667         -2.554        36.809


 Diagonalized sT*s matrix:
 
 sDSO            33.075           23.902           48.637  iso=      35.205
 sPSO            -6.990            5.289          -11.076  iso=      -4.259
        ---------------  ---------------  ---------------
 Total           26.085           29.192           37.561  iso=      30.946

 --------------
 Nucleus  65H :
 --------------

Diamagnetic contribution to the shielding tensor (ppm) : 
            40.130          2.104        -5.569
             6.774         27.504         2.749
            15.361          7.685        54.873

Paramagnetic contribution to the shielding tensor (ppm): 
            -4.573          1.509         8.173
            -3.808         -2.706        -1.969
           -13.627         -6.784       -24.155

Total shielding tensor (ppm): 
            35.557          3.614         2.604
             2.965         24.798         0.780
             1.733          0.902        30.718


 Diagonalized sT*s matrix:
 
 sDSO            25.878           49.655           46.974  iso=      40.836
 sPSO            -2.014          -19.744           -9.676  iso=     -10.478
        ---------------  ---------------  ---------------
 Total           23.864           29.911           37.298  iso=      30.358

 --------------
 Nucleus  66H :
 --------------

Diamagnetic contribution to the shielding tensor (ppm) : 
            28.334         -5.035        -7.536
            -0.082         42.466         2.069
            14.683          6.452        44.934

Paramagnetic contribution to the shielding tensor (ppm): 
             2.991          1.836         7.052
            -2.582         -9.635        -0.129
           -14.841         -3.753       -15.179

Total shielding tensor (ppm): 
            31.325         -3.199        -0.484
            -2.664         32.831         1.940
            -0.157          2.699        29.754


 Diagonalized sT*s matrix:
 
 sDSO            33.925           39.978           41.831  iso=      38.578
 sPSO            -5.979           -9.822           -6.023  iso=      -7.274
        ---------------  ---------------  ---------------
 Total           27.946           30.157           35.808  iso=      31.304

 --------------
 Nucleus  67H :
 --------------

Diamagnetic contribution to the shielding tensor (ppm) : 
            26.435          3.092         7.595
            10.182         39.508         5.568
            15.496          0.157        11.716

Paramagnetic contribution to the shielding tensor (ppm): 
             3.218         -0.186        -5.952
            -7.756         -4.274        -3.915
           -13.985          1.895        17.145

Total shielding tensor (ppm): 
            29.652          2.906         1.642
             2.426         35.234         1.653
             1.512          2.052        28.861


 Diagonalized sT*s matrix:
 
 sDSO             6.376           27.514           43.770  iso=      25.886
 sPSO            21.248            1.645           -6.805  iso=       5.363
        ---------------  ---------------  ---------------
 Total           27.623           29.159           36.965  iso=      31.249

 --------------
 Nucleus  68H :
 --------------

Diamagnetic contribution to the shielding tensor (ppm) : 
            39.905         -0.426         6.507
            -5.095         26.687        -1.203
            10.524         -2.760        -0.348

Paramagnetic contribution to the shielding tensor (ppm): 
            -3.094         -0.688        -6.848
             4.690         -1.550         2.020
            -9.686          3.967        29.606

Total shielding tensor (ppm): 
            36.811         -1.114        -0.341
            -0.405         25.137         0.818
             0.838          1.207        29.258


 Diagonalized sT*s matrix:
 
 sDSO            25.544            0.223           40.476  iso=      22.081
 sPSO            -0.695           29.270           -3.613  iso=       8.321
        ---------------  ---------------  ---------------
 Total           24.849           29.493           36.864  iso=      30.402

 --------------
 Nucleus  69H :
 --------------

Diamagnetic contribution to the shielding tensor (ppm) : 
            20.973         -0.386         9.157
            -2.569         16.559        -2.962
            29.688          0.887        27.098

Paramagnetic contribution to the shielding tensor (ppm): 
             9.048          0.761        -5.068
             2.967          9.817         2.123
           -26.234         -2.218         8.969

Total shielding tensor (ppm): 
            30.021          0.375         4.089
             0.398         26.375        -0.839
             3.454         -1.331        36.067


 Diagonalized sT*s matrix:
 
 sDSO            15.422            8.215           40.992  iso=      21.543
 sPSO            10.593           20.299           -3.058  iso=       9.278
        ---------------  ---------------  ---------------
 Total           26.015           28.514           37.934  iso=      30.821

 --------------
 Nucleus  70H :
 --------------

Diamagnetic contribution to the shielding tensor (ppm) : 
            35.472         -7.670        -8.821
            -7.159         22.340         6.012
           -22.169          1.842        41.549

Paramagnetic contribution to the shielding tensor (ppm): 
            -1.316          6.366         4.851
             5.417          5.298        -3.052
            17.914          1.870       -11.077

Total shielding tensor (ppm): 
            34.156         -1.304        -3.970
            -1.742         27.638         2.960
            -4.255          3.711        30.472


 Diagonalized sT*s matrix:
 
 sDSO            25.119           19.824           54.419  iso=      33.121
 sPSO             0.157            9.369          -16.621  iso=      -2.365
        ---------------  ---------------  ---------------
 Total           25.276           29.193           37.798  iso=      30.755

 --------------
 Nucleus  71H :
 --------------

Diamagnetic contribution to the shielding tensor (ppm) : 
            32.075          2.244         4.928
            -3.267         34.436        10.056
            -4.571          6.174        44.274

Paramagnetic contribution to the shielding tensor (ppm): 
             1.001         -1.571        -4.117
             4.468         -5.285        -5.127
             5.611         -1.450       -15.549

Total shielding tensor (ppm): 
            33.077          0.673         0.811
             1.201         29.151         4.929
             1.040          4.724        28.724


 Diagonalized sT*s matrix:
 
 sDSO            31.446           38.017           41.321  iso=      36.928
 sPSO            -7.340           -5.956           -6.537  iso=      -6.611
        ---------------  ---------------  ---------------
 Total           24.106           32.061           34.784  iso=      30.317

 --------------
 Nucleus  72H :
 --------------

Diamagnetic contribution to the shielding tensor (ppm) : 
            28.574         -6.197        -0.631
            -6.137         37.815        -0.648
            -3.282         -8.623        46.119

Paramagnetic contribution to the shielding tensor (ppm): 
             2.624          4.903         1.590
             4.580         -4.729        -1.957
             3.896          6.206       -17.782

Total shielding tensor (ppm): 
            31.198         -1.294         0.958
            -1.557         33.085        -2.605
             0.614         -2.417        28.337


 Diagonalized sT*s matrix:
 
 sDSO            41.934           26.658           43.915  iso=      37.502
 sPSO           -14.685            3.832           -9.034  iso=      -6.629
        ---------------  ---------------  ---------------
 Total           27.248           30.491           34.881  iso=      30.873



--------------------------------
CHEMICAL SHIELDING SUMMARY (ppm)
--------------------------------


  Nucleus  Element    Isotropic     Anisotropy
  -------  -------  ------------   ------------
      3       H           29.636          5.419 
      4       H           29.132          5.317 
      8       H           29.565          6.407 
      9       H           29.423          7.774 
     10       H           29.629          8.810 
     11       H           30.530          6.229 
     13       H           28.185          2.733 
     16       H           26.852          5.133 
     17       H           26.513          5.018 
     19       H           25.448         10.822 
     21       H           25.694         15.052 
     24       H           28.890         10.030 
     25       H           30.002          9.317 
     27       H           30.225          7.200 
     28       H           30.148         11.713 
     30       H           29.722          8.272 
     31       H           30.436          6.673 
     33       H           29.851          3.887 
     35       H           31.119         14.868 
     37       H           30.339         10.772 
     38       H           30.227          9.687 
     40       H           29.852         10.239 
     41       H           30.249          7.833 
     42       H           30.719          6.245 
     45       H           31.053          8.297 
     46       H           31.299          9.322 
     47       H           31.272          7.428 
     48       H           29.843          3.744 
     52       H           25.909          9.991 
     53       H           26.691          9.949 
     57       H           30.393          3.286 
     58       H           30.762          5.672 
     61       H           30.921          9.034 
     62       H           30.996          8.348 
     63       H           30.325          9.737 
     64       H           30.946          9.923 
     65       H           30.358         10.410 
     66       H           31.304          6.757 
     67       H           31.249          8.574 
     68       H           30.402          9.692 
     69       H           30.821         10.670 
     70       H           30.755         10.564 
     71       H           30.317          6.701 
     72       H           30.873          6.011 



Maximum memory used throughout the entire EPRNMR-calculation: 140.5 MB

Timings for individual modules:

Sum of individual times         ...      140.536 sec (=   2.342 min)
GTO integral calculation        ...        0.817 sec (=   0.014 min)   0.6 %
SCF iterations                  ...       90.506 sec (=   1.508 min)  64.4 %
EPR/NMR calculation             ...       49.212 sec (=   0.820 min)  35.0 %
                             ****ORCA TERMINATED NORMALLY****
TOTAL RUN TIME: 0 days 0 hours 2 minutes 21 seconds 57 msec
