
                                 *****************
                                 * O   R   C   A *
                                 *****************

                                            #,                                       
                                            ###                                      
                                            ####                                     
                                            #####                                    
                                            ######                                   
                                           ########,                                 
                                     ,,################,,,,,                         
                               ,,#################################,,                 
                          ,,##########################################,,             
                       ,#########################################, ''#####,          
                    ,#############################################,,   '####,        
                  ,##################################################,,,,####,       
                ,###########''''           ''''###############################       
              ,#####''   ,,,,##########,,,,          '''####'''          '####       
            ,##' ,,,,###########################,,,                        '##       
           ' ,,###''''                  '''############,,,                           
         ,,##''                                '''############,,,,        ,,,,,,###''
      ,#''                                            '''#######################'''  
     '                                                          ''''####''''         
             ,#######,   #######,   ,#######,      ##                                
            ,#'     '#,  ##    ##  ,#'     '#,    #''#        ######   ,####,        
            ##       ##  ##   ,#'  ##            #'  '#       #        #'  '#        
            ##       ##  #######   ##           ,######,      #####,   #    #        
            '#,     ,#'  ##    ##  '#,     ,#' ,#      #,         ##   #,  ,#        
             '#######'   ##     ##  '#######'  #'      '#     #####' # '####'        



                  #######################################################
                  #                        -***-                        #
                  #          Department of theory and spectroscopy      #
                  #    Directorship and core code : Frank Neese         #
                  #        Max Planck Institute fuer Kohlenforschung    #
                  #                Kaiser Wilhelm Platz 1               #
                  #                 D-45470 Muelheim/Ruhr               #
                  #                      Germany                        #
                  #                                                     #
                  #                  All rights reserved                #
                  #                        -***-                        #
                  #######################################################


                         Program Version 5.0.2 -  RELEASE  -


 With contributions from (in alphabetic order):
   Daniel Aravena         : Magnetic Suceptibility
   Michael Atanasov       : Ab Initio Ligand Field Theory (pilot matlab implementation)
   Alexander A. Auer      : GIAO ZORA, VPT2 properties, NMR spectrum
   Ute Becker             : Parallelization
   Giovanni Bistoni       : ED, misc. LED, open-shell LED, HFLD
   Martin Brehm           : Molecular dynamics
   Dmytro Bykov           : SCF Hessian
   Vijay G. Chilkuri      : MRCI spin determinant printing, contributions to CSF-ICE
   Dipayan Datta          : RHF DLPNO-CCSD density
   Achintya Kumar Dutta   : EOM-CC, STEOM-CC
   Dmitry Ganyushin       : Spin-Orbit,Spin-Spin,Magnetic field MRCI
   Miquel Garcia          : C-PCM and meta-GGA Hessian, CC/C-PCM, Gaussian charge scheme
   Yang Guo               : DLPNO-NEVPT2, F12-NEVPT2, CIM, IAO-localization
   Andreas Hansen         : Spin unrestricted coupled pair/coupled cluster methods
   Benjamin Helmich-Paris : MC-RPA, TRAH-SCF, COSX integrals
   Lee Huntington         : MR-EOM, pCC
   Robert Izsak           : Overlap fitted RIJCOSX, COSX-SCS-MP3, EOM
   Marcus Kettner         : VPT2
   Christian Kollmar      : KDIIS, OOCD, Brueckner-CCSD(T), CCSD density, CASPT2, CASPT2-K
   Simone Kossmann        : Meta GGA functionals, TD-DFT gradient, OOMP2, MP2 Hessian
   Martin Krupicka        : Initial AUTO-CI
   Lucas Lang             : DCDCAS
   Marvin Lechner         : AUTO-CI (C++ implementation), FIC-MRCC
   Dagmar Lenk            : GEPOL surface, SMD
   Dimitrios Liakos       : Extrapolation schemes; Compound Job, initial MDCI parallelization
   Dimitrios Manganas     : Further ROCIS development; embedding schemes
   Dimitrios Pantazis     : SARC Basis sets
   Anastasios Papadopoulos: AUTO-CI, single reference methods and gradients
   Taras Petrenko         : DFT Hessian,TD-DFT gradient, ASA, ECA, R-Raman, ABS, FL, XAS/XES, NRVS
   Peter Pinski           : DLPNO-MP2, DLPNO-MP2 Gradient
   Christoph Reimann      : Effective Core Potentials
   Marius Retegan         : Local ZFS, SOC
   Christoph Riplinger    : Optimizer, TS searches, QM/MM, DLPNO-CCSD(T), (RO)-DLPNO pert. Triples
   Tobias Risthaus        : Range-separated hybrids, TD-DFT gradient, RPA, STAB
   Michael Roemelt        : Original ROCIS implementation
   Masaaki Saitow         : Open-shell DLPNO-CCSD energy and density
   Barbara Sandhoefer     : DKH picture change effects
   Avijit Sen             : IP-ROCIS
   Kantharuban Sivalingam : CASSCF convergence, NEVPT2, FIC-MRCI
   Bernardo de Souza      : ESD, SOC TD-DFT
   Georgi Stoychev        : AutoAux, RI-MP2 NMR, DLPNO-MP2 response
   Willem Van den Heuvel  : Paramagnetic NMR
   Boris Wezisla          : Elementary symmetry handling
   Frank Wennmohs         : Technical directorship


 We gratefully acknowledge several colleagues who have allowed us to
 interface, adapt or use parts of their codes:
   Stefan Grimme, W. Hujo, H. Kruse, P. Pracht,  : VdW corrections, initial TS optimization,
                  C. Bannwarth, S. Ehlert          DFT functionals, gCP, sTDA/sTD-DF
   Ed Valeev, F. Pavosevic, A. Kumar             : LibInt (2-el integral package), F12 methods
   Garnet Chan, S. Sharma, J. Yang, R. Olivares  : DMRG
   Ulf Ekstrom                                   : XCFun DFT Library
   Mihaly Kallay                                 : mrcc  (arbitrary order and MRCC methods)
   Jiri Pittner, Ondrej Demel                    : Mk-CCSD
   Frank Weinhold                                : gennbo (NPA and NBO analysis)
   Christopher J. Cramer and Donald G. Truhlar   : smd solvation model
   Lars Goerigk                                  : TD-DFT with DH, B97 family of functionals
   V. Asgeirsson, H. Jonsson                     : NEB implementation
   FAccTs GmbH                                   : IRC, NEB, NEB-TS, DLPNO-Multilevel, CI-OPT
                                                   MM, QMMM, 2- and 3-layer-ONIOM, Crystal-QMMM,
                                                   LR-CPCM, SF, NACMEs, symmetry and pop. for TD-DFT,
                                                   nearIR, NL-DFT gradient (VV10), updates on ESD,
                                                   ML-optimized integration grids
   S Lehtola, MJT Oliveira, MAL Marques          : LibXC Library
   Liviu Ungur et al                             : ANISO software


 Your calculation uses the libint2 library for the computation of 2-el integrals
 For citations please refer to: http://libint.valeyev.net

 Your ORCA version has been built with support for libXC version: 5.1.0
 For citations please refer to: https://tddft.org/programs/libxc/

 This ORCA versions uses:
   CBLAS   interface :  Fast vector & matrix operations
   LAPACKE interface :  Fast linear algebra routines
   SCALAPACK package :  Parallel linear algebra routines
   Shared memory     :  Shared parallel matrices
   BLAS/LAPACK       :  OpenBLAS 0.3.15  USE64BITINT DYNAMIC_ARCH NO_AFFINITY Zen SINGLE_THREADED
        Core in use  :  Zen
   Copyright (c) 2011-2014, The OpenBLAS Project


Your calculation utilizes the atom-pairwise dispersion correction
based on tight binding partial charges (D4)
Cite in your paper:
E.Caldeweyher, C.Bannwarth, S.Grimme, J.Chem.Phys., (2017), 147, 034112.
E.Caldeweyher, S.Ehlert, A.Hansen, H.Neugebauer, S.Grimme, J.Chem.Phys., (2018), in progress.
   

================================================================================

----- Orbital basis set information -----
Your calculation utilizes the basis: pcJ-0
   F. Jensen, Theor. Chem. Acc. 126, 371 (2010).

----- AuxJ basis set information -----
Your calculation utilizes the auxiliary basis: def2/J
   F. Weigend, Phys. Chem. Chem. Phys. 8, 1057 (2006).

================================================================================
                                        WARNINGS
                       Please study these warnings very carefully!
================================================================================


INFO   : the flag for use of the SHARK integral package has been found!

================================================================================
                                       INPUT FILE
================================================================================
NAME = inpJ
|  1> ! pbe0
|  2> ! D4
|  3> ! pcJ-0
|  4> ! def2/J RIJCOSX
|  5> ! DEFGRID2
|  6> ! scfconv7
|  7> ! smallprint printgap noloewdin
|  8> ! NOSOSCF
|  9> %MaxCore 4000
| 10> %output
| 11>        print[P_BondOrder_M] 1
| 12>        print[P_Mayer] 1
| 13>        print[P_basis] 2
| 14> end
| 15> %pal
| 16>     nprocs 4
| 17> end
| 18> ! CPCM(chloroform)
| 19> *xyz 0 1
| 20> C   -4.9869763600   0.3541546200   0.2859717200
| 21> C   -6.3950427700  -0.0865285800  -0.0383126900
| 22> C   -6.9445350600   0.6324292400  -1.2763302200
| 23> H   -7.0603906700   0.1630340100   0.8057538300
| 24> H   -6.4364847200  -1.1711388300  -0.1867449500
| 25> C   -4.8089644300   1.8204964600   0.3470291000
| 26> C   -5.4065112100   2.5744522000  -0.8194843800
| 27> C   -6.8534133400   2.1431356900  -1.0952447900
| 28> H   -4.8041619800   2.3614017400  -1.7157749900
| 29> H   -5.3526231900   3.6533260800  -0.6396425300
| 30> H   -7.2357299800   2.6469206500  -1.9907669900
| 31> H   -7.4933623700   2.4354856100  -0.2489415800
| 32> O   -8.2826400300   0.2100020200  -1.5696649900
| 33> H   -6.3546622800   0.3344418500  -2.1545499700
| 34> C   -3.9964008500  -0.5535834100   0.4543277600
| 35> C   -4.2105148000   2.4460984900   1.3672161600
| 36> H   -3.8090199600   1.8940606000   2.2123671900
| 37> H   -4.1191983500   3.5295822500   1.3831113700
| 38> C   -2.5964834200  -0.2670639900   0.6662046100
| 39> H   -4.2863977100  -1.6006869900   0.3786819200
| 40> C   -1.6226894600  -1.1680113300   0.9184606200
| 41> H   -2.3109213600   0.7804665800   0.6015354500
| 42> C   -1.8227732400  -2.6517437600   1.0990459200
| 43> C   -0.8848369500  -3.4754448300   0.1966395600
| 44> H   -2.8602753200  -2.9541985900   0.9322256100
| 45> H   -1.5883984500  -2.8950720200   2.1479770200
| 46> C    0.5812260700  -3.0351305100   0.3075878900
| 47> H   -1.2198163600  -3.3886281800  -0.8446307500
| 48> H   -0.9704860800  -4.5361545900   0.4628870500
| 49> C    0.7445586300  -1.5292949600   0.0579143900
| 50> H    1.1831041400  -3.6235328900  -0.3928439700
| 51> H    0.9523255300  -3.2615717200   1.3185589300
| 52> C   -0.1826980000  -0.7845274300   1.0703906000
| 53> H    0.1348151000  -1.1595991100   2.0612967200
| 54> C    0.2581432400   0.6731228800   0.9796615500
| 55> H   -8.8378700600   0.4597392000  -0.8189377500
| 56> C    1.7878139500   0.5767045600   0.7574298800
| 57> H   -0.0067021600   1.2406905000   1.8780333400
| 58> H   -0.2216003400   1.1715253800   0.1298482500
| 59> C    2.1149966400  -0.9169295100   0.4583940800
| 60> H    2.3516213000   0.9283598000   1.6271936100
| 61> H    2.1014314600   1.2031193900  -0.0860570000
| 62> H    2.4092610700  -1.4085699800   1.4002387700
| 63> C    3.3050364800  -1.0493192100  -0.5140900200
| 64> C    0.3813243400  -1.1680083500  -1.3883111500
| 65> H   -0.6839722300  -1.3262606700  -1.5822209800
| 66> H    0.9486670800  -1.7834493100  -2.0950998100
| 67> H    0.6008297100  -0.1188432000  -1.6107268500
| 68> H    3.0479894700  -0.5227768200  -1.4452901000
| 69> C    3.6632893200  -2.5037142500  -0.8528893300
| 70> C    4.5091557800  -0.3704127000   0.0838349100
| 71> C    5.1231037800   0.6906415800  -0.4388485300
| 72> H    4.8783116100  -0.8163121300   1.0107174800
| 73> H    4.7211665100   1.1021375300  -1.3664902400
| 74> C    6.3145023400   1.4165823000   0.1361224900
| 75> C    7.1028584700   0.5674862500   1.1369143300
| 76> C    5.8859717700   2.7787603000   0.7509301700
| 77> H    6.9820699300   1.6570656300  -0.7091154100
| 78> H    5.2465782800   2.5460978600   1.6176652200
| 79> C    5.0686225300   3.6224513200  -0.2321407800
| 80> C    7.0926016100   3.5854412500   1.2396391800
| 81> H    7.3026279200  -0.4282508300   0.7279720300
| 82> H    6.5480354000   0.4430347300   2.0746334400
| 83> H    8.0638847900   1.0294442000   1.3767115000
| 84> H    4.8333893900   4.5985949100   0.2058270000
| 85> H    4.1238706700   3.1406611100  -0.5004567400
| 86> H    5.6357980500   3.7983831100  -1.1556159300
| 87> H    7.7962220900   3.7600077500   0.4150276800
| 88> H    7.6333803100   3.0827289000   2.0462272400
| 89> H    6.7706172000   4.5627765400   1.6156733100
| 90> H    4.5937260300  -2.5390315100  -1.4298018100
| 91> H    2.8828391800  -2.9862268000  -1.4466223600
| 92> H    3.8091131000  -3.0924403800   0.0611515800
| 93> *
| 94> %eprnmr
| 95>  Nuclei = all H { ssfc }
| 96>  SpinSpinRThresh 8.0
| 97> end
| 98> 
| 99>                          ****END OF INPUT****
================================================================================

                       ****************************
                       * Single Point Calculation *
                       ****************************

---------------------------------
CARTESIAN COORDINATES (ANGSTROEM)
---------------------------------
  C     -4.986976    0.354155    0.285972
  C     -6.395043   -0.086529   -0.038313
  C     -6.944535    0.632429   -1.276330
  H     -7.060391    0.163034    0.805754
  H     -6.436485   -1.171139   -0.186745
  C     -4.808964    1.820496    0.347029
  C     -5.406511    2.574452   -0.819484
  C     -6.853413    2.143136   -1.095245
  H     -4.804162    2.361402   -1.715775
  H     -5.352623    3.653326   -0.639643
  H     -7.235730    2.646921   -1.990767
  H     -7.493362    2.435486   -0.248942
  O     -8.282640    0.210002   -1.569665
  H     -6.354662    0.334442   -2.154550
  C     -3.996401   -0.553583    0.454328
  C     -4.210515    2.446098    1.367216
  H     -3.809020    1.894061    2.212367
  H     -4.119198    3.529582    1.383111
  C     -2.596483   -0.267064    0.666205
  H     -4.286398   -1.600687    0.378682
  C     -1.622689   -1.168011    0.918461
  H     -2.310921    0.780467    0.601535
  C     -1.822773   -2.651744    1.099046
  C     -0.884837   -3.475445    0.196640
  H     -2.860275   -2.954199    0.932226
  H     -1.588398   -2.895072    2.147977
  C      0.581226   -3.035131    0.307588
  H     -1.219816   -3.388628   -0.844631
  H     -0.970486   -4.536155    0.462887
  C      0.744559   -1.529295    0.057914
  H      1.183104   -3.623533   -0.392844
  H      0.952326   -3.261572    1.318559
  C     -0.182698   -0.784527    1.070391
  H      0.134815   -1.159599    2.061297
  C      0.258143    0.673123    0.979662
  H     -8.837870    0.459739   -0.818938
  C      1.787814    0.576705    0.757430
  H     -0.006702    1.240690    1.878033
  H     -0.221600    1.171525    0.129848
  C      2.114997   -0.916930    0.458394
  H      2.351621    0.928360    1.627194
  H      2.101431    1.203119   -0.086057
  H      2.409261   -1.408570    1.400239
  C      3.305036   -1.049319   -0.514090
  C      0.381324   -1.168008   -1.388311
  H     -0.683972   -1.326261   -1.582221
  H      0.948667   -1.783449   -2.095100
  H      0.600830   -0.118843   -1.610727
  H      3.047989   -0.522777   -1.445290
  C      3.663289   -2.503714   -0.852889
  C      4.509156   -0.370413    0.083835
  C      5.123104    0.690642   -0.438849
  H      4.878312   -0.816312    1.010717
  H      4.721167    1.102138   -1.366490
  C      6.314502    1.416582    0.136122
  C      7.102858    0.567486    1.136914
  C      5.885972    2.778760    0.750930
  H      6.982070    1.657066   -0.709115
  H      5.246578    2.546098    1.617665
  C      5.068623    3.622451   -0.232141
  C      7.092602    3.585441    1.239639
  H      7.302628   -0.428251    0.727972
  H      6.548035    0.443035    2.074633
  H      8.063885    1.029444    1.376712
  H      4.833389    4.598595    0.205827
  H      4.123871    3.140661   -0.500457
  H      5.635798    3.798383   -1.155616
  H      7.796222    3.760008    0.415028
  H      7.633380    3.082729    2.046227
  H      6.770617    4.562777    1.615673
  H      4.593726   -2.539032   -1.429802
  H      2.882839   -2.986227   -1.446622
  H      3.809113   -3.092440    0.061152

----------------------------
CARTESIAN COORDINATES (A.U.)
----------------------------
  NO LB      ZA    FRAG     MASS         X           Y           Z
   0 C     6.0000    0    12.011   -9.424020    0.669255    0.540408
   1 C     6.0000    0    12.011  -12.084879   -0.163515   -0.072400
   2 C     6.0000    0    12.011  -13.123269    1.195118   -2.411915
   3 H     1.0000    0     1.008  -13.342205    0.308090    1.522654
   4 H     1.0000    0     1.008  -12.163193   -2.213132   -0.352897
   5 C     6.0000    0    12.011   -9.087626    3.440240    0.655790
   6 C     6.0000    0    12.011  -10.216826    4.865010   -1.548601
   7 C     6.0000    0    12.011  -12.951074    4.049940   -2.069713
   8 H     1.0000    0     1.008   -9.078550    4.462403   -3.242345
   9 H     1.0000    0     1.008  -10.114992    6.903786   -1.208749
  10 H     1.0000    0     1.008  -13.673548    5.001955   -3.762004
  11 H     1.0000    0     1.008  -14.160403    4.602401   -0.470431
  12 O     8.0000    0    15.999  -15.651921    0.396846   -2.966237
  13 H     1.0000    0     1.008  -12.008571    0.632004   -4.071509
  14 C     6.0000    0    12.011   -7.552103   -1.046121    0.858555
  15 C     6.0000    0    12.011   -7.956720    4.622456    2.583664
  16 H     1.0000    0     1.008   -7.198005    3.579256    4.180768
  17 H     1.0000    0     1.008   -7.784157    6.669944    2.613702
  18 C     6.0000    0    12.011   -4.906643   -0.504678    1.258944
  19 H     1.0000    0     1.008   -8.100118   -3.024860    0.715605
  20 C     6.0000    0    12.011   -3.066439   -2.207222    1.735639
  21 H     1.0000    0     1.008   -4.367008    1.474868    1.136737
  22 C     6.0000    0    12.011   -3.444542   -5.011069    2.076896
  23 C     6.0000    0    12.011   -1.672100   -6.567639    0.371595
  24 H     1.0000    0     1.008   -5.405137   -5.582626    1.761651
  25 H     1.0000    0     1.008   -3.001638   -5.470893    4.059088
  26 C     6.0000    0    12.011    1.098358   -5.735565    0.581257
  27 H     1.0000    0     1.008   -2.305119   -6.403579   -1.596121
  28 H     1.0000    0     1.008   -1.833953   -8.572090    0.874730
  29 C     6.0000    0    12.011    1.407012   -2.889949    0.109442
  30 H     1.0000    0     1.008    2.235743   -6.847485   -0.742368
  31 H     1.0000    0     1.008    1.799634   -6.163477    2.491715
  32 C     6.0000    0    12.011   -0.345249   -1.482542    2.022745
  33 H     1.0000    0     1.008    0.254764   -2.191325    3.895286
  34 C     6.0000    0    12.011    0.487820    1.272018    1.851292
  35 H     1.0000    0     1.008  -16.701154    0.868781   -1.547568
  36 C     6.0000    0    12.011    3.378479    1.089814    1.431335
  37 H     1.0000    0     1.008   -0.012665    2.344565    3.548969
  38 H     1.0000    0     1.008   -0.418764    2.213862    0.245378
  39 C     6.0000    0    12.011    3.996764   -1.732746    0.866239
  40 H     1.0000    0     1.008    4.443920    1.754346    3.074950
  41 H     1.0000    0     1.008    3.971130    2.273566   -0.162624
  42 H     1.0000    0     1.008    4.552844   -2.661812    2.646068
  43 C     6.0000    0    12.011    6.245614   -1.982926   -0.971489
  44 C     6.0000    0    12.011    0.720599   -2.207216   -2.623528
  45 H     1.0000    0     1.008   -1.292520   -2.506269   -2.989964
  46 H     1.0000    0     1.008    1.792721   -3.370231   -3.959165
  47 H     1.0000    0     1.008    1.135404   -0.224581   -3.043833
  48 H     1.0000    0     1.008    5.759865   -0.987905   -2.731202
  49 C     6.0000    0    12.011    6.922614   -4.731334   -1.611727
  50 C     6.0000    0    12.011    8.521070   -0.699979    0.158425
  51 C     6.0000    0    12.011    9.681263    1.305123   -0.829304
  52 H     1.0000    0     1.008    9.218673   -1.542606    1.909979
  53 H     1.0000    0     1.008    8.921712    2.082738   -2.582292
  54 C     6.0000    0    12.011   11.932680    2.676953    0.257234
  55 C     6.0000    0    12.011   13.422457    1.072394    2.148457
  56 C     6.0000    0    12.011   11.122875    5.251096    1.419052
  57 H     1.0000    0     1.008   13.194200    3.131400   -1.340034
  58 H     1.0000    0     1.008    9.914596    4.811428    3.056944
  59 C     6.0000    0    12.011    9.578308    6.845441   -0.438682
  60 C     6.0000    0    12.011   13.403075    6.775502    2.342579
  61 H     1.0000    0     1.008   13.799967   -0.809277    1.375668
  62 H     1.0000    0     1.008   12.373994    0.837214    3.920489
  63 H     1.0000    0     1.008   15.238534    1.945368    2.601608
  64 H     1.0000    0     1.008    9.133782    8.690085    0.388957
  65 H     1.0000    0     1.008    7.792986    5.934989   -0.945726
  66 H     1.0000    0     1.008   10.650115    7.177904   -2.183798
  67 H     1.0000    0     1.008   14.732725    7.105385    0.784289
  68 H     1.0000    0     1.008   14.424998    5.825513    3.866809
  69 H     1.0000    0     1.008   12.794612    8.622398    3.053180
  70 H     1.0000    0     1.008    8.680884   -4.798074   -2.701934
  71 H     1.0000    0     1.008    5.447777   -5.643151   -2.733720
  72 H     1.0000    0     1.008    7.198181   -5.843865    0.115560

--------------------------------
INTERNAL COORDINATES (ANGSTROEM)
--------------------------------
 C      0   0   0     0.000000000000     0.00000000     0.00000000
 C      1   0   0     1.510633336155     0.00000000     0.00000000
 C      2   1   0     1.533469767650   111.74889685     0.00000000
 H      2   1   3     1.103366486960   109.38243893   241.47218623
 H      2   1   3     1.095503977826   110.68110981   122.90801995
 C      1   2   3     1.478368912893   114.23304260    50.33446367
 C      6   1   2     1.512040049466   114.52750465   312.35335507
 C      3   2   1     1.524247053101   110.32493043   304.95843270
 H      7   6   1     1.100705206203   108.38674555   289.67492226
 H      7   6   1     1.095087146604   110.18836582   172.53030010
 H      8   3   2     1.096323542498   109.72763457   179.22631583
 H      8   3   2     1.100560021070   108.65523605   296.68647769
 O      3   2   1     1.433532334559   111.19365646   180.25734560
 H      3   2   1     1.099097953084   109.00564725    65.06017540
 C      1   2   3     1.354094504946   120.86400492   232.37631194
 C      6   1   2     1.338021485993   123.30524540   130.16846608
 H     16   6   1     1.086381241578   121.39031233     0.66642611
 H     16   6   1     1.087441221366   120.96800689   181.34707235
 C     15   1   2     1.444560136658   126.45608691   175.02939131
 H     15   1   2     1.089149383312   116.17223819   357.81930783
 C     19  15   1     1.350412485342   126.43380981   175.48221406
 H     19  15   1     1.087680139311   115.89545290   354.69993336
 C     21  19  15     1.508014089267   125.66989357   356.63159449
 C     23  21  19     1.540306844556   112.03690369   128.39083431
 H     23  21  19     1.093489143075   112.31885367     4.11321793
 H     23  21  19     1.101996659182   107.63887615   247.05710635
 C     24  23  21     1.534772625159   112.69936822    50.39504833
 H     24  23  21     1.097265781080   109.13261963   288.22973777
 H     24  23  21     1.096963397001   109.10803268   172.30468789
 C     27  24  23     1.535107515910   111.79575912   306.35488226
 H     27  24  23     1.095024822750   108.94386950   182.82392565
 H     27  24  23     1.100478475263   109.23825536    66.30871945
 C     21  19  15     1.497904544774   122.77708950   177.42960500
 H     33  21  19     1.106068837127   106.26130696   123.79877264
 C     33  21  19     1.525554714077   121.09004521     1.52812690
 H     13   3   2     0.966561138349   107.52553648    62.61577592
 C     35  33  21     1.548733640306   103.55997201   196.56414660
 H     35  33  21     1.095147461414   112.11818506    74.57350678
 H     35  33  21     1.095783555003   110.74443290   314.97199155
 C     30  27  24     1.553536535042   116.01395777   166.53954109
 H     37  35  33     1.094545148341   112.00826941   249.15543684
 H     37  35  33     1.096458662492   110.93606205   130.56974112
 H     40  30  27     1.102439715625   106.25486214   321.02914494
 C     40  30  27     1.542545681076   118.96027468    81.81585591
 C     30  27  24     1.534286634415   111.04514308   294.55092806
 H     45  30  27     1.094304162932   111.31190286    66.46934248
 H     45  30  27     1.095534376358   110.68556497   306.37943116
 H     45  30  27     1.094714055377   111.69824335   186.42072700
 H     44  40  30     1.100206181954   108.19655265    62.26350921
 C     44  40  30     1.535706678439   113.59929035   301.44164722
 C     44  40  30     1.506098124250   109.13644775   179.40632628
 C     51  44  40     1.332653859883   124.85614093   243.41054506
 H     51  44  40     1.092800817655   115.01602269    63.81955487
 H     52  51  44     1.091513457550   117.63552094     0.32873246
 C     52  51  44     1.508977180598   126.67870187   178.85892099
 C     55  52  51     1.531030305659   112.88089135    20.30612540
 C     55  52  51     1.554720501085   110.76635550   254.23632255
 H     55  52  51     1.103587706901   106.89371958   138.98138807
 H     57  55  52     1.101900854406   106.61818172    66.21124166
 C     57  55  52     1.531764606619   112.07797357   308.05693957
 C     57  55  52     1.531511091154   111.74749991   184.61360951
 H     56  55  52     1.094821433097   110.74398495    48.26764930
 H     56  55  52     1.096646683802   111.18416521   288.22971847
 H     56  55  52     1.092922420870   111.20976732   168.12837028
 H     60  57  55     1.095448179865   110.41401939   183.42746534
 H     60  57  55     1.093924740472   112.06565117    63.28833108
 H     60  57  55     1.097928238952   110.63557369   302.58724806
 H     61  57  55     1.097970568244   110.42512608    57.81551990
 H     61  57  55     1.093501535322   112.51090334   296.97914489
 H     61  57  55     1.095563734471   110.35610973   176.79518683
 H     50  44  40     1.095348250443   110.17520181   187.85542770
 H     50  44  40     1.092904246879   111.80092811    67.96485541
 H     50  44  40     1.096965731512   110.82133169   307.29613312

---------------------------
INTERNAL COORDINATES (A.U.)
---------------------------
 C      0   0   0     0.000000000000     0.00000000     0.00000000
 C      1   0   0     2.854683294104     0.00000000     0.00000000
 C      2   1   0     2.897837895506   111.74889685     0.00000000
 H      2   1   3     2.085060485702   109.38243893   241.47218623
 H      2   1   3     2.070202496713   110.68110981   122.90801995
 C      1   2   3     2.793712370271   114.23304260    50.33446367
 C      6   1   2     2.857341597011   114.52750465   312.35335507
 C      3   2   1     2.880409490797   110.32493043   304.95843270
 H      7   6   1     2.080031393905   108.38674555   289.67492226
 H      7   6   1     2.069414799859   110.18836582   172.53030010
 H      8   3   2     2.071751249492   109.72763457   179.22631583
 H      8   3   2     2.079757033765   108.65523605   296.68647769
 O      3   2   1     2.708983516438   111.19365646   180.25734560
 H      3   2   1     2.076994125683   109.00564725    65.06017540
 C      1   2   3     2.558867773795   120.86400492   232.37631194
 C      6   1   2     2.528494169829   123.30524540   130.16846608
 H     16   6   1     2.052963023612   121.39031233     0.66642611
 H     16   6   1     2.054966095118   120.96800689   181.34707235
 C     15   1   2     2.729823042263   126.45608691   175.02939131
 H     15   1   2     2.058194053388   116.17223819   357.81930783
 C     19  15   1     2.551909765124   126.43380981   175.48221406
 H     19  15   1     2.055417584603   115.89545290   354.69993336
 C     21  19  15     2.849733634810   125.66989357   356.63159449
 C     23  21  19     2.910758098416   112.03690369   128.39083431
 H     23  21  19     2.066395010828   112.31885367     4.11321793
 H     23  21  19     2.082471886351   107.63887615   247.05710635
 C     24  23  21     2.900299939390   112.69936822    50.39504833
 H     24  23  21     2.073531822364   109.13261963   288.22973777
 H     24  23  21     2.072960399268   109.10803268   172.30468789
 C     27  24  23     2.900932791193   111.79575912   306.35488226
 H     27  24  23     2.069297024844   108.94386950   182.82392565
 H     27  24  23     2.079602934522   109.23825536    66.30871945
 C     21  19  15     2.830629364379   122.77708950   177.42960500
 H     33  21  19     2.090167187434   106.26130696   123.79877264
 C     33  21  19     2.882880611918   121.09004521     1.52812690
 H     13   3   2     1.826535843170   107.52553648    62.61577592
 C     35  33  21     2.926682434569   103.55997201   196.56414660
 H     35  33  21     2.069528778331   112.11818506    74.57350678
 H     35  33  21     2.070730821010   110.74443290   314.97199155
 C     30  27  24     2.935758590270   116.01395777   166.53954109
 H     37  35  33     2.068390571577   112.00826941   249.15543684
 H     37  35  33     2.072006589276   110.93606205   130.56974112
 H     40  30  27     2.083309141688   106.25486214   321.02914494
 C     40  30  27     2.914988886297   118.96027468    81.81585591
 C     30  27  24     2.899381549981   111.04514308   294.55092806
 H     45  30  27     2.067935175151   111.31190286    66.46934248
 H     45  30  27     2.070259941612   110.68556497   306.37943116
 H     45  30  27     2.068709759617   111.69824335   186.42072700
 H     44  40  30     2.079088374739   108.19655265    62.26350921
 C     44  40  30     2.902065044283   113.59929035   301.44164722
 C     44  40  30     2.846112985644   109.13644775   179.40632628
 C     51  44  40     2.518350826492   124.85614093   243.41054506
 H     51  44  40     2.065094264293   115.01602269    63.81955487
 H     52  51  44     2.062661506259   117.63552094     0.32873246
 C     52  51  44     2.851553613666   126.67870187   178.85892099
 C     55  52  51     2.893227980428   112.88089135    20.30612540
 C     55  52  51     2.937995961844   110.76635550   254.23632255
 H     55  52  51     2.085478530805   106.89371958   138.98138807
 H     57  55  52     2.082290841560   106.61818172    66.21124166
 C     57  55  52     2.894615608144   112.07797357   308.05693957
 C     57  55  52     2.894136533343   111.74749991   184.61360951
 H     56  55  52     2.068912674101   110.74398495    48.26764930
 H     56  55  52     2.072361898059   111.18416521   288.22971847
 H     56  55  52     2.065324061067   111.20976732   168.12837028
 H     60  57  55     2.070097053848   110.41401939   183.42746534
 H     60  57  55     2.067218170612   112.06565117    63.28833108
 H     60  57  55     2.074783686317   110.63557369   302.58724806
 H     61  57  55     2.074863677087   110.42512608    57.81551990
 H     61  57  55     2.066418428780   112.51090334   296.97914489
 H     61  57  55     2.070315420406   110.35610973   176.79518683
 H     50  44  40     2.069908214608   110.17520181   187.85542770
 H     50  44  40     2.065289717201   111.80092811    67.96485541
 H     50  44  40     2.072964810854   110.82133169   307.29613312

---------------------
BASIS SET INFORMATION
---------------------
There are 3 groups of distinct atoms

 Group   1 Type C   : 7s4p contracted to 4s3p pattern {4111/211}
 Group   2 Type H   : 5s contracted to 3s pattern {311}
 Group   3 Type O   : 7s4p contracted to 4s3p pattern {4111/211}

Atom   0C    basis set group =>   1
Atom   1C    basis set group =>   1
Atom   2C    basis set group =>   1
Atom   3H    basis set group =>   2
Atom   4H    basis set group =>   2
Atom   5C    basis set group =>   1
Atom   6C    basis set group =>   1
Atom   7C    basis set group =>   1
Atom   8H    basis set group =>   2
Atom   9H    basis set group =>   2
Atom  10H    basis set group =>   2
Atom  11H    basis set group =>   2
Atom  12O    basis set group =>   3
Atom  13H    basis set group =>   2
Atom  14C    basis set group =>   1
Atom  15C    basis set group =>   1
Atom  16H    basis set group =>   2
Atom  17H    basis set group =>   2
Atom  18C    basis set group =>   1
Atom  19H    basis set group =>   2
Atom  20C    basis set group =>   1
Atom  21H    basis set group =>   2
Atom  22C    basis set group =>   1
Atom  23C    basis set group =>   1
Atom  24H    basis set group =>   2
Atom  25H    basis set group =>   2
Atom  26C    basis set group =>   1
Atom  27H    basis set group =>   2
Atom  28H    basis set group =>   2
Atom  29C    basis set group =>   1
Atom  30H    basis set group =>   2
Atom  31H    basis set group =>   2
Atom  32C    basis set group =>   1
Atom  33H    basis set group =>   2
Atom  34C    basis set group =>   1
Atom  35H    basis set group =>   2
Atom  36C    basis set group =>   1
Atom  37H    basis set group =>   2
Atom  38H    basis set group =>   2
Atom  39C    basis set group =>   1
Atom  40H    basis set group =>   2
Atom  41H    basis set group =>   2
Atom  42H    basis set group =>   2
Atom  43C    basis set group =>   1
Atom  44C    basis set group =>   1
Atom  45H    basis set group =>   2
Atom  46H    basis set group =>   2
Atom  47H    basis set group =>   2
Atom  48H    basis set group =>   2
Atom  49C    basis set group =>   1
Atom  50C    basis set group =>   1
Atom  51C    basis set group =>   1
Atom  52H    basis set group =>   2
Atom  53H    basis set group =>   2
Atom  54C    basis set group =>   1
Atom  55C    basis set group =>   1
Atom  56C    basis set group =>   1
Atom  57H    basis set group =>   2
Atom  58H    basis set group =>   2
Atom  59C    basis set group =>   1
Atom  60C    basis set group =>   1
Atom  61H    basis set group =>   2
Atom  62H    basis set group =>   2
Atom  63H    basis set group =>   2
Atom  64H    basis set group =>   2
Atom  65H    basis set group =>   2
Atom  66H    basis set group =>   2
Atom  67H    basis set group =>   2
Atom  68H    basis set group =>   2
Atom  69H    basis set group =>   2
Atom  70H    basis set group =>   2
Atom  71H    basis set group =>   2
Atom  72H    basis set group =>   2

-------------------------
BASIS SET IN INPUT FORMAT
-------------------------

 # Basis set for element : H 
 NewGTO H 
 S 3 
   1    1357.7500000000      0.0012928364
   2      54.3100000000      0.0588280685
   3       4.3448000000      0.9761499708
 S 1 
   1       0.6604910000      1.0000000000
 S 1 
   1       0.1366870000      1.0000000000
  end;

 # Basis set for element : C 
 NewGTO C 
 S 4 
   1  139534.0000000000      0.0001655246
   2    5581.3600000000      0.0074486101
   3     446.5090000000      0.1285821065
   4      67.4620000000      0.9218029311
 S 1 
   1      15.0674000000      1.0000000000
 S 1 
   1       3.9387600000      1.0000000000
 S 1 
   1       0.2999150000      1.0000000000
 P 2 
   1      28.3900000000      0.0816325586
   2       4.3676900000      0.9660360576
 P 1 
   1       0.8698170000      1.0000000000
 P 1 
   1       0.1889340000      1.0000000000
  end;

 # Basis set for element : O 
 NewGTO O 
 S 4 
   1  253789.0000000000      0.0001641076
   2   10151.6000000000      0.0074010921
   3     812.1250000000      0.1277711901
   4     122.6930000000      0.9223372164
 S 1 
   1      27.5608000000      1.0000000000
 S 1 
   1       7.3172600000      1.0000000000
 S 1 
   1       0.5792400000      1.0000000000
 P 2 
   1      53.4157000000      0.0793786106
   2       8.2177900000      0.9670506337
 P 1 
   1       1.6754400000      1.0000000000
 P 1 
   1       0.3506720000      1.0000000000
  end;

---------------------------------
AUXILIARY/J BASIS SET INFORMATION
---------------------------------
There are 3 groups of distinct atoms

 Group   1 Type C   : 12s5p4d2f1g contracted to 6s4p3d1f1g pattern {711111/2111/211/2/1}
 Group   2 Type H   : 5s2p1d contracted to 3s1p1d pattern {311/2/1}
 Group   3 Type O   : 12s5p4d2f1g contracted to 6s4p3d1f1g pattern {711111/2111/211/2/1}

Atom   0C    basis set group =>   1
Atom   1C    basis set group =>   1
Atom   2C    basis set group =>   1
Atom   3H    basis set group =>   2
Atom   4H    basis set group =>   2
Atom   5C    basis set group =>   1
Atom   6C    basis set group =>   1
Atom   7C    basis set group =>   1
Atom   8H    basis set group =>   2
Atom   9H    basis set group =>   2
Atom  10H    basis set group =>   2
Atom  11H    basis set group =>   2
Atom  12O    basis set group =>   3
Atom  13H    basis set group =>   2
Atom  14C    basis set group =>   1
Atom  15C    basis set group =>   1
Atom  16H    basis set group =>   2
Atom  17H    basis set group =>   2
Atom  18C    basis set group =>   1
Atom  19H    basis set group =>   2
Atom  20C    basis set group =>   1
Atom  21H    basis set group =>   2
Atom  22C    basis set group =>   1
Atom  23C    basis set group =>   1
Atom  24H    basis set group =>   2
Atom  25H    basis set group =>   2
Atom  26C    basis set group =>   1
Atom  27H    basis set group =>   2
Atom  28H    basis set group =>   2
Atom  29C    basis set group =>   1
Atom  30H    basis set group =>   2
Atom  31H    basis set group =>   2
Atom  32C    basis set group =>   1
Atom  33H    basis set group =>   2
Atom  34C    basis set group =>   1
Atom  35H    basis set group =>   2
Atom  36C    basis set group =>   1
Atom  37H    basis set group =>   2
Atom  38H    basis set group =>   2
Atom  39C    basis set group =>   1
Atom  40H    basis set group =>   2
Atom  41H    basis set group =>   2
Atom  42H    basis set group =>   2
Atom  43C    basis set group =>   1
Atom  44C    basis set group =>   1
Atom  45H    basis set group =>   2
Atom  46H    basis set group =>   2
Atom  47H    basis set group =>   2
Atom  48H    basis set group =>   2
Atom  49C    basis set group =>   1
Atom  50C    basis set group =>   1
Atom  51C    basis set group =>   1
Atom  52H    basis set group =>   2
Atom  53H    basis set group =>   2
Atom  54C    basis set group =>   1
Atom  55C    basis set group =>   1
Atom  56C    basis set group =>   1
Atom  57H    basis set group =>   2
Atom  58H    basis set group =>   2
Atom  59C    basis set group =>   1
Atom  60C    basis set group =>   1
Atom  61H    basis set group =>   2
Atom  62H    basis set group =>   2
Atom  63H    basis set group =>   2
Atom  64H    basis set group =>   2
Atom  65H    basis set group =>   2
Atom  66H    basis set group =>   2
Atom  67H    basis set group =>   2
Atom  68H    basis set group =>   2
Atom  69H    basis set group =>   2
Atom  70H    basis set group =>   2
Atom  71H    basis set group =>   2
Atom  72H    basis set group =>   2

-------------------------------------
AUXILIARY/J BASIS SET IN INPUT FORMAT
-------------------------------------

 # Auxiliary/J basis set for element : H 
 NewAuxJGTO H 
 S 3 
   1      15.6752927000      0.1007184237
   2       3.6063578000      0.3404257499
   3       1.2080016000      0.6491996172
 S 1 
   1       0.4726794000      1.0000000000
 S 1 
   1       0.2018100000      1.0000000000
 P 2 
   1       2.0281365000      0.5596620919
   2       0.5358730000      0.5596620919
 D 1 
   1       2.2165124000      1.0000000000
  end;

 # Auxiliary/J basis set for element : C 
 NewAuxJGTO C 
 S 7 
   1    1861.0916331000      0.0134602335
   2     642.9939764000      0.0299160374
   3     235.1105725000      0.1008649584
   4      90.7028894000      0.2370970548
   5      36.7794552000      0.3924037254
   6      15.6046273000      0.3195862154
   7       6.8907294000      0.0530104441
 S 1 
   1       3.1478850000     -1.0000000000
 S 1 
   1       1.4777287000      1.0000000000
 S 1 
   1       0.7076466000      1.0000000000
 S 1 
   1       0.3430122000      1.0000000000
 S 1 
   1       0.1669453000      1.0000000000
 P 2 
   1      13.5472892000     -0.6769313712
   2       5.4669419000     -0.3779500978
 P 1 
   1       2.1751721000      1.0000000000
 P 1 
   1       0.8582194000      1.0000000000
 P 1 
   1       0.3376720000      1.0000000000
 D 2 
   1       5.9287253000     -0.3533329857
   2       1.9809209000     -0.7456525731
 D 1 
   1       0.8055417000     -1.0000000000
 D 1 
   1       0.3531244000     -1.0000000000
 F 2 
   1       1.6755626000      0.6311076882
   2       0.5997536000      0.4968166032
 G 1 
   1       1.0024600000     -1.0000000000
  end;

 # Auxiliary/J basis set for element : O 
 NewAuxJGTO O 
 S 7 
   1    2876.8216605000      0.0168151159
   2    1004.7443032000      0.0340137548
   3     369.7579954000      0.1194951309
   4     142.9442404000      0.2664627624
   5      57.8366425000      0.4202764046
   6      24.3864983000      0.2765077335
   7      10.6622662000      0.0057008815
 S 1 
   1       4.8070437000     -1.0000000000
 S 1 
   1       2.2210770000      1.0000000000
 S 1 
   1       1.0447795000      1.0000000000
 S 1 
   1       0.4968425000      1.0000000000
 S 1 
   1       0.2371384000      1.0000000000
 P 2 
   1      64.2613382000     -0.2731534179
   2      16.3006076000     -0.8168011598
 P 1 
   1       4.3550542000      1.0000000000
 P 1 
   1       1.2019554000      1.0000000000
 P 1 
   1       0.3354196000      1.0000000000
 D 2 
   1       9.2146611000     -0.4661230638
   2       2.8435251000     -0.6600908911
 D 1 
   1       0.9955759000     -1.0000000000
 D 1 
   1       0.3649441000     -1.0000000000
 F 2 
   1       2.6420115000      0.5931563945
   2       0.7345613000      0.5931563945
 G 1 
   1       1.3931000000     -1.0000000000
  end;



           ************************************************************
           *        Program running with 4 parallel MPI-processes     *
           *              working on a common directory               *
           ************************************************************
------------------------------------------------------------------------------
                           ORCA GTO INTEGRAL CALCULATION
                           -- RI-GTO INTEGRALS CHOSEN --
------------------------------------------------------------------------------
------------------------------------------------------------------------------
                   ___                                                        
                  /   \      - P O W E R E D   B Y -                         
                 /     \                                                     
                 |  |  |   _    _      __       _____    __    __             
                 |  |  |  | |  | |    /  \     |  _  \  |  |  /  |          
                  \  \/   | |  | |   /    \    | | | |  |  | /  /          
                 / \  \   | |__| |  /  /\  \   | |_| |  |  |/  /          
                |  |  |   |  __  | /  /__\  \  |    /   |      \           
                |  |  |   | |  | | |   __   |  |    \   |  |\   \          
                \     /   | |  | | |  |  |  |  | |\  \  |  | \   \       
                 \___/    |_|  |_| |__|  |__|  |_| \__\ |__|  \__/        
                                                                              
                      - O R C A' S   B I G   F R I E N D -                    
                                      &                                       
                       - I N T E G R A L  F E E D E R -                       
                                                                              
 v1 FN, 2020, v2 2021                                                         
------------------------------------------------------------------------------


Reading SHARK input file inpJ.SHARKINP.tmp ... ok
----------------------
SHARK INTEGRAL PACKAGE
----------------------

Number of atoms                             ...     73
Number of basis functions                   ...    509
Number of shells                            ...    335
Maximum angular momentum                    ...      1
Integral batch strategy                     ... SHARK/LIBINT Hybrid
RI-J (if used) integral strategy            ... SPLIT-RIJ (Revised 2003 algorithm where possible)
Printlevel                                  ...      1
Contraction scheme used                     ... SEGMENTED contraction
Coulomb Range Separation                    ... NOT USED
Exchange Range Separation                   ... NOT USED
Finite Nucleus Model                        ... NOT USED
Auxiliary Coulomb fitting basis             ... AVAILABLE
   # of basis functions in Aux-J            ...   1905
   # of shells in Aux-J                     ...    655
   Maximum angular momentum in Aux-J        ...      4
Auxiliary J/K fitting basis                 ... NOT available
Auxiliary Correlation fitting basis         ... NOT available
Auxiliary 'external' fitting basis          ... NOT available
Integral threshold                          ...     3.000000e-11
Primitive cut-off                           ...     1.000000e-12
Primitive pair pre-selection threshold      ...     1.000000e-12

Calculating pre-screening integrals         ... done (  0.0 sec) Dimension = 335
Organizing shell pair data                  ... done (  0.1 sec)
Shell pair information
Total number of shell pairs                 ...     56280
Shell pairs after pre-screening             ...     21764
Total number of primitive shell pairs       ...    145865
Primitive shell pairs kept                  ...     37391
          la=0 lb=0:  10954 shell pairs
          la=1 lb=0:   8951 shell pairs
          la=1 lb=1:   1859 shell pairs

Calculating one electron integrals          ... done (  0.0 sec)
Calculating RI/J V-Matrix + Cholesky decomp.... done (  0.1 sec)
Calculating Nuclear repulsion               ... done (  0.0 sec) ENN=   2774.087464780472 Eh

SHARK setup successfully completed in   0.4 seconds

Maximum memory used throughout the entire GTOINT-calculation: 46.2 MB


           ************************************************************
           *        Program running with 4 parallel MPI-processes     *
           *              working on a common directory               *
           ************************************************************
-------------------------------------------------------------------------------
                                 ORCA SCF
-------------------------------------------------------------------------------

------------
SCF SETTINGS
------------
Hamiltonian:
 Density Functional     Method          .... DFT(GTOs)
 Exchange Functional    Exchange        .... PBE
   PBE kappa parameter   XKappa         ....  0.804000
   PBE mue parameter    XMuePBE         ....  0.219520
 Correlation Functional Correlation     .... PBE
   PBE beta parameter  CBetaPBE         ....  0.066725
 LDA part of GGA corr.  LDAOpt          .... PW91-LDA
 Gradients option       PostSCFGGA      .... off
 Hybrid DFT is turned on
   Fraction HF Exchange ScalHFX         ....  0.250000
   Scaling of DF-GGA-X  ScalDFX         ....  0.750000
   Scaling of DF-GGA-C  ScalDFC         ....  1.000000
   Scaling of DF-LDA-C  ScalLDAC        ....  1.000000
   Perturbative correction              ....  0.000000
   Density functional embedding theory  .... OFF
   NL short-range parameter             ....  6.900000
 RI-approximation to the Coulomb term is turned on
   Number of AuxJ basis functions       .... 1905
   RIJ-COSX (HFX calculated with COS-X)).... on


General Settings:
 Integral files         IntName         .... inpJ
 Hartree-Fock type      HFTyp           .... RHF
 Total Charge           Charge          ....    0
 Multiplicity           Mult            ....    1
 Number of Electrons    NEL             ....  220
 Basis Dimension        Dim             ....  509
 Nuclear Repulsion      ENuc            ....   2774.0874647805 Eh

Convergence Acceleration:
 DIIS                   CNVDIIS         .... on
   Start iteration      DIISMaxIt       ....    12
   Startup error        DIISStart       ....  0.200000
   # of expansion vecs  DIISMaxEq       ....     5
   Bias factor          DIISBfac        ....   1.050
   Max. coefficient     DIISMaxC        ....  10.000
 Trust-Rad. Augm. Hess. CNVTRAH         .... auto
   Auto Start mean grad. ratio tolernc. ....  1.125000
   Auto Start start iteration           ....    20
   Auto Start num. interpolation iter.  ....    10
   Max. Number of Micro iterations      ....    16
   Max. Number of Macro iterations      .... Maxiter - #DIIS iter
   Number of Davidson start vectors     ....     2
   Converg. threshold I  (grad. norm)   ....   1.000e-04
   Converg. threshold II (energy diff.) ....   1.000e-07
   Grad. Scal. Fac. for Micro threshold ....   0.100
   Minimum threshold for Micro iter.    ....   0.010
   NR start threshold (gradient norm)   ....   0.001
   Initial trust radius                 ....   0.400
   Minimum AH scaling param. (alpha)    ....   1.000
   Maximum AH scaling param. (alpha)    .... 1000.000
   Orbital update algorithm             .... Taylor
   White noise on init. David. guess    .... on
   Maximum white noise                  ....   0.010
   Quad. conv. algorithm                .... NR
 SOSCF                  CNVSOSCF        .... off
 Level Shifting         CNVShift        .... on
   Level shift para.    LevelShift      ....    0.2500
   Turn off err/grad.   ShiftErr        ....    0.0010
 Zerner damping         CNVZerner       .... off
 Static damping         CNVDamp         .... on
   Fraction old density DampFac         ....    0.7000
   Max. Damping (<1)    DampMax         ....    0.9800
   Min. Damping (>=0)   DampMin         ....    0.0000
   Turn off err/grad.   DampErr         ....    0.1000
 Fernandez-Rico         CNVRico         .... off

SCF Procedure:
 Maximum # iterations   MaxIter         ....   125
 SCF integral mode      SCFMode         .... Direct
   Integral package                     .... SHARK and LIBINT hybrid scheme
 Reset frequency        DirectResetFreq ....    20
 Integral Threshold     Thresh          ....  3.000e-11 Eh
 Primitive CutOff       TCut            ....  1.000e-12 Eh

Convergence Tolerance:
 Convergence Check Mode ConvCheckMode   .... Total+1el-Energy
 Convergence forced     ConvForced      .... 0
 Energy Change          TolE            ....  1.000e-07 Eh
 1-El. energy change                    ....  1.000e-04 Eh
 DIIS Error             TolErr          ....  1.000e-07


Diagonalization of the overlap matrix:
Smallest eigenvalue                        ... 7.561e-03
Time for diagonalization                   ...    0.029 sec
Threshold for overlap eigenvalues          ... 1.000e-08
Number of eigenvalues below threshold      ... 0
Time for construction of square roots      ...    0.028 sec
Total time needed                          ...    0.058 sec

Time for model grid setup =    0.728 sec

------------------------------
INITIAL GUESS: MODEL POTENTIAL
------------------------------
Loading Hartree-Fock densities                     ... done
Calculating cut-offs                               ... done
Initializing the effective Hamiltonian             ... done
Setting up the integral package (SHARK)            ... done
Starting the Coulomb interaction                   ... done (   0.3 sec)
Reading the grid                                   ... done
Mapping shells                                     ... done
Starting the XC term evaluation                    ... done (   0.1 sec)
  promolecular density results
     # of electrons  =    219.979475789
     EX              =   -164.430413372
     EC              =     -7.324265277
     EX+EC           =   -171.754678649
Transforming the Hamiltonian                       ... done (   0.0 sec)
Diagonalizing the Hamiltonian                      ... done (   0.0 sec)
Back transforming the eigenvectors                 ... done (   0.0 sec)
Now organizing SCF variables                       ... done
                      ------------------
                      INITIAL GUESS DONE (   1.3 sec)
                      ------------------
-------------------
DFT GRID GENERATION
-------------------

General Integration Accuracy     IntAcc      ... 4.388
Radial Grid Type                 RadialGrid  ... OptM3 with GC (2021)
Angular Grid (max. ang.)         AngularGrid ... 4 (Lebedev-302)
Angular grid pruning method      GridPruning ... 4 (adaptive)
Weight generation scheme         WeightScheme... Becke
Basis function cutoff            BFCut       ... 1.0000e-11
Integration weight cutoff        WCut        ... 1.0000e-14
Angular grids for H and He will be reduced by one unit
Partially contracted basis set               ... off
Rotationally invariant grid construction     ... off

Total number of grid points                  ...   309936
Total number of batches                      ...     4880
Average number of points per batch           ...       63
Average number of grid points per atom       ...     4246
Time for grid setup =    2.870 sec

--------------------
COSX GRID GENERATION
--------------------

GRIDX 1
-------
General Integration Accuracy     IntAcc      ... 3.816
Radial Grid Type                 RadialGrid  ... OptM3 with GC (2021)
Angular Grid (max. ang.)         AngularGrid ... 1 (Lebedev-50)
Angular grid pruning method      GridPruning ... 4 (adaptive)
Weight generation scheme         WeightScheme... Becke
Basis function cutoff            BFCut       ... 1.0000e-11
Integration weight cutoff        WCut        ... 1.0000e-14
Angular grids for H and He will be reduced by one unit
Partially contracted basis set               ... on
Rotationally invariant grid construction     ... off

Total number of grid points                  ...    39438
Total number of batches                      ...      657
Average number of points per batch           ...       60
Average number of grid points per atom       ...      540
UseSFitting                                  ... on

GRIDX 2
-------
General Integration Accuracy     IntAcc      ... 4.020
Radial Grid Type                 RadialGrid  ... OptM3 with GC (2021)
Angular Grid (max. ang.)         AngularGrid ... 2 (Lebedev-110)
Angular grid pruning method      GridPruning ... 4 (adaptive)
Weight generation scheme         WeightScheme... Becke
Basis function cutoff            BFCut       ... 1.0000e-11
Integration weight cutoff        WCut        ... 1.0000e-14
Angular grids for H and He will be reduced by one unit
Partially contracted basis set               ... on
Rotationally invariant grid construction     ... off

Total number of grid points                  ...    81447
Total number of batches                      ...     1311
Average number of points per batch           ...       62
Average number of grid points per atom       ...     1116
UseSFitting                                  ... on

GRIDX 3
-------
General Integration Accuracy     IntAcc      ... 4.338
Radial Grid Type                 RadialGrid  ... OptM3 with GC (2021)
Angular Grid (max. ang.)         AngularGrid ... 3 (Lebedev-194)
Angular grid pruning method      GridPruning ... 4 (adaptive)
Weight generation scheme         WeightScheme... Becke
Basis function cutoff            BFCut       ... 1.0000e-11
Integration weight cutoff        WCut        ... 1.0000e-14
Angular grids for H and He will be reduced by one unit
Partially contracted basis set               ... on
Rotationally invariant grid construction     ... off

Total number of grid points                  ...   176386
Total number of batches                      ...     2794
Average number of points per batch           ...       63
Average number of grid points per atom       ...     2416
UseSFitting                                  ... on

Time for X-Grid setup             =    2.737 sec


--------------------
CPCM SOLVATION MODEL
--------------------
CPCM parameters:
  Epsilon                                         ...       4.9000
  Refrac                                          ...       1.4500
  Rsolv                                           ...       1.3000
  Surface type                                    ... GAUSSIAN VDW
  Epsilon function type                           ...         CPCM
Radii:
 Radius for C  used is    3.8550 Bohr (=   2.0400 Ang.)
 Radius for H  used is    2.4944 Bohr (=   1.3200 Ang.)
 Radius for O  used is    3.4469 Bohr (=   1.8240 Ang.)
Calculating surface                               ...        done! (  0.0s)
GEPOL surface points                              ...         3664
GEPOL Volume                                      ...    3602.8755
GEPOL Surface-area                                ...    1800.5065
Calculating surface distance matrix               ...        done! (  0.1s)
Performing Cholesky decomposition & store         ...        done! (  0.5s)
Overall time for CPCM initialization              ...                 0.6s
--------------
SCF ITERATIONS
--------------
ITER       Energy         Delta-E        Max-DP      RMS-DP      [F,P]     Damp
               ***  Starting incremental Fock matrix formation  ***

  HOMO= 109 E= -3.881 eV LUMO=  7.788 eV gap=  11.669 eV
  0  -1165.0085888195   0.000000000000 0.09781384  0.00105840  0.1932601 0.7000

  HOMO= 109 E= -4.731 eV LUMO=  7.091 eV gap=  11.823 eV
  1  -1165.2268419500  -0.218253130558 0.06560509  0.00078004  0.0939248 0.7000
                               ***Turning on DIIS***

  HOMO= 109 E= -5.331 eV LUMO=  6.534 eV gap=  11.865 eV
  2  -1165.3277982751  -0.100956325076 0.10352595  0.00138548  0.0376743 0.0000

  HOMO= 109 E= -5.899 eV LUMO=  5.990 eV gap=  11.889 eV
  3  -1165.4721462635  -0.144347988429 0.05175610  0.00056709  0.0453395 0.0000

  HOMO= 109 E= -5.978 eV LUMO=  5.911 eV gap=  11.889 eV
  4  -1165.5075758680  -0.035429604433 0.01163492  0.00013483  0.0062083 0.0000

  HOMO= 109 E= -5.925 eV LUMO=  5.971 eV gap=  11.896 eV
  5  -1165.5084501140  -0.000874246020 0.00283851  0.00003818  0.0044532 0.0000

  HOMO= 109 E= -5.912 eV LUMO=  5.985 eV gap=  11.896 eV
  6  -1165.5085277441  -0.000077630146 0.00115516  0.00001160  0.0010642 0.0000

  HOMO= 109 E= -5.913 eV LUMO= -0.819 eV gap=   5.094 eV
  7  -1165.5085326522  -0.000004908121 0.00051421  0.00000596  0.0002365 0.0000
               *** Restarting incremental Fock matrix formation ***
                                   *** Resetting DIIS ***

  HOMO= 109 E= -5.913 eV LUMO= -0.818 eV gap=   5.095 eV
  8  -1165.5086049754  -0.000072323119 0.00040054  0.00000277  0.0001152 0.0000

  HOMO= 109 E= -5.913 eV LUMO= -0.818 eV gap=   5.095 eV
  9  -1165.5086050156  -0.000000040212 0.00012757  0.00000123  0.0001477 0.0000

  HOMO= 109 E= -5.913 eV LUMO= -0.818 eV gap=   5.095 eV
 10  -1165.5086051333  -0.000000117725 0.00006160  0.00000039  0.0000375 0.0000

  HOMO= 109 E= -5.913 eV LUMO= -0.818 eV gap=   5.095 eV
 11  -1165.5086051731  -0.000000039780 0.00002404  0.00000017  0.0000213 0.0000

  HOMO= 109 E= -5.913 eV LUMO= -0.818 eV gap=   5.095 eV
 12  -1165.5086051483   0.000000024770 0.00000702  0.00000005  0.0000036 0.0000
                 **** Energy Check signals convergence ****

               *****************************************************
               *                     SUCCESS                       *
               *           SCF CONVERGED AFTER  13 CYCLES          *
               *****************************************************

Old exchange energy                            =    -42.067400752 Eh
New exchange energy                            =    -42.067427402 Eh
Exchange energy change after final integration =     -0.000026650 Eh
Total energy after final integration           =  -1165.508631804 Eh
Final COS-X integration done in                =    14.141 sec

----------------
TOTAL SCF ENERGY
----------------

Total Energy       :        -1165.50863180 Eh          -31715.10224 eV

Components:
Nuclear Repulsion  :         2774.08746478 Eh           75486.75759 eV
Electronic Energy  :        -3939.59609658 Eh         -107201.85983 eV
One Electron Energy:        -7090.22790979 Eh         -192934.91005 eV
Two Electron Energy:         3150.63181321 Eh           85733.05022 eV
Max COSX asymmetry :            0.00000239 Eh               0.00006 eV
CPCM Dielectric    :           -0.01534654 Eh              -0.41760 eV

Virial components:
Potential Energy   :        -2322.41167024 Eh          -63196.03437 eV
Kinetic Energy     :         1156.90303843 Eh           31480.93214 eV
Virial Ratio       :            2.00743847


DFT components:
N(Alpha)           :      110.000188849425 electrons
N(Beta)            :      110.000188849425 electrons
N(Total)           :      220.000377698851 electrons
E(X)               :     -125.745308766090 Eh       
E(C)               :       -7.326185266847 Eh       
E(XC)              :     -133.071494032937 Eh       
DFET-embed. en.    :        0.000000000000 Eh       
CPCM Solvation Model Properties:
Surface-charge          :           -0.03432189
Charge-correction       :           -0.00005755 Eh              -0.00157 eV
Free-energy (cav+disp)  :  This term is not implemented in the current solvation scheme

---------------
SCF CONVERGENCE
---------------

  Last Energy change         ...   -5.4335e-09  Tolerance :   1.0000e-07
  Last MAX-Density change    ...    0.0000e+00  Tolerance :   1.0000e-05
  Last RMS-Density change    ...    0.0000e+00  Tolerance :   1.0000e-06
  Last DIIS Error            ...    2.4029e-06  Tolerance :   1.0000e-07

             **** THE GBW FILE WAS UPDATED (inpJ.gbw) ****
             **** DENSITY inpJ.scfp WAS UPDATED ****
             **** ENERGY FILE WAS UPDATED (inpJ.en.tmp) ****
             **** THE GBW FILE WAS UPDATED (inpJ.gbw) ****
             **** DENSITY inpJ.scfp WAS UPDATED ****
----------------
ORBITAL ENERGIES
----------------

  NO   OCC          E(Eh)            E(eV) 
   0   2.0000     -19.214997      -522.8666 
   1   2.0000     -10.301264      -280.3116 
   2   2.0000     -10.269408      -279.4448 
   3   2.0000     -10.266593      -279.3682 
   4   2.0000     -10.261608      -279.2326 
   5   2.0000     -10.255898      -279.0772 
   6   2.0000     -10.253229      -279.0045 
   7   2.0000     -10.251357      -278.9536 
   8   2.0000     -10.250279      -278.9243 
   9   2.0000     -10.249531      -278.9039 
  10   2.0000     -10.249164      -278.8939 
  11   2.0000     -10.245962      -278.8068 
  12   2.0000     -10.245102      -278.7834 
  13   2.0000     -10.244527      -278.7677 
  14   2.0000     -10.243794      -278.7478 
  15   2.0000     -10.243127      -278.7297 
  16   2.0000     -10.242890      -278.7232 
  17   2.0000     -10.242333      -278.7080 
  18   2.0000     -10.241879      -278.6957 
  19   2.0000     -10.240982      -278.6713 
  20   2.0000     -10.239013      -278.6177 
  21   2.0000     -10.233741      -278.4742 
  22   2.0000     -10.233466      -278.4668 
  23   2.0000     -10.232410      -278.4380 
  24   2.0000     -10.225513      -278.2503 
  25   2.0000     -10.224665      -278.2273 
  26   2.0000     -10.224621      -278.2261 
  27   2.0000     -10.224198      -278.2146 
  28   2.0000     -10.220076      -278.1024 
  29   2.0000      -1.045799       -28.4576 
  30   2.0000      -0.900447       -24.5024 
  31   2.0000      -0.883511       -24.0416 
  32   2.0000      -0.859940       -23.4002 
  33   2.0000      -0.845605       -23.0101 
  34   2.0000      -0.822224       -22.3738 
  35   2.0000      -0.813637       -22.1402 
  36   2.0000      -0.794992       -21.6328 
  37   2.0000      -0.794706       -21.6251 
  38   2.0000      -0.777439       -21.1552 
  39   2.0000      -0.757243       -20.6056 
  40   2.0000      -0.739346       -20.1186 
  41   2.0000      -0.733630       -19.9631 
  42   2.0000      -0.713458       -19.4142 
  43   2.0000      -0.702328       -19.1113 
  44   2.0000      -0.698952       -19.0194 
  45   2.0000      -0.693285       -18.8652 
  46   2.0000      -0.668797       -18.1989 
  47   2.0000      -0.661944       -18.0124 
  48   2.0000      -0.629961       -17.1421 
  49   2.0000      -0.621537       -16.9129 
  50   2.0000      -0.619274       -16.8513 
  51   2.0000      -0.605321       -16.4716 
  52   2.0000      -0.596591       -16.2341 
  53   2.0000      -0.587037       -15.9741 
  54   2.0000      -0.558429       -15.1956 
  55   2.0000      -0.551589       -15.0095 
  56   2.0000      -0.539134       -14.6706 
  57   2.0000      -0.529588       -14.4108 
  58   2.0000      -0.514978       -14.0133 
  59   2.0000      -0.507046       -13.7974 
  60   2.0000      -0.497630       -13.5412 
  61   2.0000      -0.488980       -13.3058 
  62   2.0000      -0.479824       -13.0567 
  63   2.0000      -0.478434       -13.0189 
  64   2.0000      -0.475627       -12.9425 
  65   2.0000      -0.469528       -12.7765 
  66   2.0000      -0.464903       -12.6506 
  67   2.0000      -0.459395       -12.5008 
  68   2.0000      -0.456868       -12.4320 
  69   2.0000      -0.452115       -12.3027 
  70   2.0000      -0.449147       -12.2219 
  71   2.0000      -0.444235       -12.0883 
  72   2.0000      -0.434577       -11.8254 
  73   2.0000      -0.430362       -11.7107 
  74   2.0000      -0.425869       -11.5885 
  75   2.0000      -0.419700       -11.4206 
  76   2.0000      -0.415987       -11.3196 
  77   2.0000      -0.413882       -11.2623 
  78   2.0000      -0.407156       -11.0793 
  79   2.0000      -0.405127       -11.0241 
  80   2.0000      -0.401976       -10.9383 
  81   2.0000      -0.397766       -10.8238 
  82   2.0000      -0.396443       -10.7878 
  83   2.0000      -0.390179       -10.6173 
  84   2.0000      -0.387649       -10.5485 
  85   2.0000      -0.383598       -10.4382 
  86   2.0000      -0.378008       -10.2861 
  87   2.0000      -0.370982       -10.0949 
  88   2.0000      -0.367493       -10.0000 
  89   2.0000      -0.367000        -9.9866 
  90   2.0000      -0.361207        -9.8289 
  91   2.0000      -0.359501        -9.7825 
  92   2.0000      -0.349988        -9.5236 
  93   2.0000      -0.343323        -9.3423 
  94   2.0000      -0.340515        -9.2659 
  95   2.0000      -0.338921        -9.2225 
  96   2.0000      -0.336901        -9.1675 
  97   2.0000      -0.332763        -9.0549 
  98   2.0000      -0.331606        -9.0235 
  99   2.0000      -0.329000        -8.9525 
 100   2.0000      -0.326274        -8.8784 
 101   2.0000      -0.325014        -8.8441 
 102   2.0000      -0.316535        -8.6134 
 103   2.0000      -0.315947        -8.5973 
 104   2.0000      -0.311390        -8.4734 
 105   2.0000      -0.299380        -8.1465 
 106   2.0000      -0.279969        -7.6184 
 107   2.0000      -0.274671        -7.4742 
 108   2.0000      -0.256388        -6.9767 
 109   2.0000      -0.217300        -5.9130 
 110   0.0000      -0.030068        -0.8182 
 111   0.0000       0.021393         0.5821 
 112   0.0000       0.027968         0.7611 
 113   0.0000       0.079944         2.1754 
 114   0.0000       0.089638         2.4392 
 115   0.0000       0.100708         2.7404 
 116   0.0000       0.101993         2.7754 
 117   0.0000       0.107249         2.9184 
 118   0.0000       0.110166         2.9978 
 119   0.0000       0.114788         3.1235 
 120   0.0000       0.118727         3.2307 
 121   0.0000       0.123157         3.3513 
 122   0.0000       0.129060         3.5119 
 123   0.0000       0.129383         3.5207 
 124   0.0000       0.135824         3.6960 
 125   0.0000       0.138623         3.7721 
 126   0.0000       0.140229         3.8158 
 127   0.0000       0.142558         3.8792 
 128   0.0000       0.148075         4.0293 
 129   0.0000       0.153505         4.1771 
 130   0.0000       0.154161         4.1949 
 131   0.0000       0.157362         4.2820 
 132   0.0000       0.160665         4.3719 
 133   0.0000       0.164843         4.4856 
 134   0.0000       0.167252         4.5512 
 135   0.0000       0.169154         4.6029 
 136   0.0000       0.171226         4.6593 
 137   0.0000       0.174299         4.7429 
 138   0.0000       0.176160         4.7936 
 139   0.0000       0.176582         4.8051 
 140   0.0000       0.182687         4.9712 
 141   0.0000       0.183389         4.9903 
 142   0.0000       0.185198         5.0395 
 143   0.0000       0.188502         5.1294 
 144   0.0000       0.190059         5.1718 
 145   0.0000       0.191388         5.2079 
 146   0.0000       0.197722         5.3803 
 147   0.0000       0.200729         5.4621 
 148   0.0000       0.202336         5.5058 
 149   0.0000       0.206832         5.6282 
 150   0.0000       0.210782         5.7357 
 151   0.0000       0.216499         5.8912 
 152   0.0000       0.221421         6.0252 
 153   0.0000       0.230300         6.2668 
 154   0.0000       0.234876         6.3913 
 155   0.0000       0.240183         6.5357 
 156   0.0000       0.243754         6.6329 
 157   0.0000       0.247126         6.7246 
 158   0.0000       0.249494         6.7891 
 159   0.0000       0.254067         6.9135 
 160   0.0000       0.257975         7.0198 
 161   0.0000       0.259972         7.0742 
 162   0.0000       0.264701         7.2029 
 163   0.0000       0.265476         7.2240 
 164   0.0000       0.270330         7.3561 
 165   0.0000       0.275196         7.4885 
 166   0.0000       0.281861         7.6698 
 167   0.0000       0.286027         7.7832 
 168   0.0000       0.286364         7.7924 
 169   0.0000       0.292447         7.9579 
 170   0.0000       0.295772         8.0484 
 171   0.0000       0.297397         8.0926 
 172   0.0000       0.304748         8.2926 
 173   0.0000       0.306054         8.3282 
 174   0.0000       0.309445         8.4204 
 175   0.0000       0.319151         8.6845 
 176   0.0000       0.325592         8.8598 
 177   0.0000       0.339962         9.2508 
 178   0.0000       0.354878         9.6567 
 179   0.0000       0.357512         9.7284 
 180   0.0000       0.367290         9.9945 
 181   0.0000       0.374782        10.1983 
 182   0.0000       0.379472        10.3260 
 183   0.0000       0.402412        10.9502 
 184   0.0000       0.418820        11.3967 
 185   0.0000       0.462931        12.5970 
 186   0.0000       0.472510        12.8577 
 187   0.0000       0.490850        13.3567 
 188   0.0000       0.504912        13.7394 
 189   0.0000       0.521173        14.1818 
 190   0.0000       0.524502        14.2724 
 191   0.0000       0.532973        14.5029 
 192   0.0000       0.543068        14.7776 
 193   0.0000       0.553762        15.0686 
 194   0.0000       0.558841        15.2068 
 195   0.0000       0.566616        15.4184 
 196   0.0000       0.575823        15.6689 
 197   0.0000       0.583064        15.8660 
 198   0.0000       0.585465        15.9313 
 199   0.0000       0.595549        16.2057 
 200   0.0000       0.612692        16.6722 
 201   0.0000       0.620975        16.8976 
 202   0.0000       0.626185        17.0393 
 203   0.0000       0.630396        17.1540 
 204   0.0000       0.640200        17.4207 
 205   0.0000       0.641170        17.4471 
 206   0.0000       0.646461        17.5911 
 207   0.0000       0.655768        17.8444 
 208   0.0000       0.659292        17.9403 
 209   0.0000       0.666320        18.1315 
 210   0.0000       0.671809        18.2808 
 211   0.0000       0.686223        18.6731 
 212   0.0000       0.691271        18.8104 
 213   0.0000       0.696005        18.9393 
 214   0.0000       0.703885        19.1537 
 215   0.0000       0.709528        19.3072 
 216   0.0000       0.712282        19.3822 
 217   0.0000       0.717129        19.5141 
 218   0.0000       0.726323        19.7642 
 219   0.0000       0.728626        19.8269 
 220   0.0000       0.730842        19.8872 
 221   0.0000       0.734790        19.9947 
 222   0.0000       0.738188        20.0871 
 223   0.0000       0.741437        20.1755 
 224   0.0000       0.748275        20.3616 
 225   0.0000       0.749176        20.3861 
 226   0.0000       0.757046        20.6003 
 227   0.0000       0.760195        20.6860 
 228   0.0000       0.764681        20.8080 
 229   0.0000       0.766019        20.8444 
 230   0.0000       0.773827        21.0569 
 231   0.0000       0.775108        21.0918 
 232   0.0000       0.777806        21.1652 
 233   0.0000       0.779047        21.1989 
 234   0.0000       0.787002        21.4154 
 235   0.0000       0.796523        21.6745 
 236   0.0000       0.801750        21.8167 
 237   0.0000       0.806605        21.9488 
 238   0.0000       0.818517        22.2730 
 239   0.0000       0.822924        22.3929 
 240   0.0000       0.824416        22.4335 
 241   0.0000       0.827772        22.5248 
 242   0.0000       0.839069        22.8322 
 243   0.0000       0.842688        22.9307 
 244   0.0000       0.849938        23.1280 
 245   0.0000       0.855987        23.2926 
 246   0.0000       0.860668        23.4200 
 247   0.0000       0.863399        23.4943 
 248   0.0000       0.863825        23.5059 
 249   0.0000       0.867414        23.6035 
 250   0.0000       0.871584        23.7170 
 251   0.0000       0.874745        23.8030 
 252   0.0000       0.876933        23.8626 
 253   0.0000       0.878192        23.8968 
 254   0.0000       0.879570        23.9343 
 255   0.0000       0.880696        23.9650 
 256   0.0000       0.884474        24.0677 
 257   0.0000       0.891056        24.2469 
 258   0.0000       0.893517        24.3138 
 259   0.0000       0.898908        24.4605 
 260   0.0000       0.901697        24.5364 
 261   0.0000       0.909329        24.7441 
 262   0.0000       0.916024        24.9263 
 263   0.0000       0.917839        24.9757 
 264   0.0000       0.920439        25.0464 
 265   0.0000       0.924877        25.1672 
 266   0.0000       0.926740        25.2179 
 267   0.0000       0.930835        25.3293 
 268   0.0000       0.932459        25.3735 
 269   0.0000       0.940232        25.5850 
 270   0.0000       0.943773        25.6814 
 271   0.0000       0.945495        25.7282 
 272   0.0000       0.949462        25.8362 
 273   0.0000       0.953488        25.9457 
 274   0.0000       0.957947        26.0671 
 275   0.0000       0.964373        26.2419 
 276   0.0000       0.968790        26.3621 
 277   0.0000       0.970915        26.4199 
 278   0.0000       0.981066        26.6962 
 279   0.0000       0.984961        26.8021 
 280   0.0000       0.986218        26.8364 
 281   0.0000       0.999636        27.2015 
 282   0.0000       1.006648        27.3923 
 283   0.0000       1.011976        27.5373 
 284   0.0000       1.018937        27.7267 
 285   0.0000       1.019531        27.7428 
 286   0.0000       1.030532        28.0422 
 287   0.0000       1.039250        28.2794 
 288   0.0000       1.042840        28.3771 
 289   0.0000       1.058154        28.7938 
 290   0.0000       1.071036        29.1444 
 291   0.0000       1.079180        29.3660 
 292   0.0000       1.085156        29.5286 
 293   0.0000       1.091086        29.6900 
 294   0.0000       1.094510        29.7831 
 295   0.0000       1.106155        30.1000 
 296   0.0000       1.118289        30.4302 
 297   0.0000       1.130817        30.7711 
 298   0.0000       1.137985        30.9661 
 299   0.0000       1.146147        31.1882 
 300   0.0000       1.157037        31.4846 
 301   0.0000       1.171961        31.8907 
 302   0.0000       1.201314        32.6894 
 303   0.0000       1.212181        32.9851 
 304   0.0000       1.234114        33.5819 
 305   0.0000       1.244235        33.8574 
 306   0.0000       1.257107        34.2076 
 307   0.0000       1.286729        35.0137 
 308   0.0000       1.292543        35.1719 
 309   0.0000       1.305247        35.5176 
 310   0.0000       1.331758        36.2390 
 311   0.0000       1.334171        36.3046 
 312   0.0000       1.371058        37.3084 
 313   0.0000       1.378637        37.5146 
 314   0.0000       1.405346        38.2414 
 315   0.0000       1.512388        41.1542 
 316   0.0000       1.525819        41.5196 
 317   0.0000       1.573002        42.8036 
 318   0.0000       1.606015        43.7019 
 319   0.0000       1.657349        45.0988 
 320   0.0000       6.207854       168.9243 
 321   0.0000       6.239857       169.7951 
 322   0.0000       6.264270       170.4595 
 323   0.0000       6.270833       170.6380 
 324   0.0000       6.287805       171.0999 
 325   0.0000       6.299654       171.4223 
 326   0.0000       6.301307       171.4673 
 327   0.0000       6.308783       171.6707 
 328   0.0000       6.315722       171.8595 
 329   0.0000       6.322965       172.0566 
 330   0.0000       6.340776       172.5413 
 331   0.0000       6.349944       172.7908 
 332   0.0000       6.358453       173.0223 
 333   0.0000       6.373047       173.4194 
 334   0.0000       6.384784       173.7388 
 335   0.0000       6.391031       173.9088 
 336   0.0000       6.392924       173.9603 
 337   0.0000       6.404178       174.2665 
 338   0.0000       6.414898       174.5582 
 339   0.0000       6.421609       174.7409 
 340   0.0000       6.428333       174.9238 
 341   0.0000       6.438376       175.1971 
 342   0.0000       6.452122       175.5712 
 343   0.0000       6.460443       175.7976 
 344   0.0000       6.468051       176.0046 
 345   0.0000       6.472562       176.1274 
 346   0.0000       6.483752       176.4319 
 347   0.0000       6.493343       176.6928 
 348   0.0000       6.505262       177.0172 
 349   0.0000       6.512401       177.2114 
 350   0.0000       6.524131       177.5306 
 351   0.0000       6.532141       177.7486 
 352   0.0000       6.540930       177.9877 
 353   0.0000       6.543260       178.0512 
 354   0.0000       6.547734       178.1729 
 355   0.0000       6.551881       178.2857 
 356   0.0000       6.556914       178.4227 
 357   0.0000       6.561099       178.5366 
 358   0.0000       6.572474       178.8461 
 359   0.0000       6.574198       178.8930 
 360   0.0000       6.579622       179.0406 
 361   0.0000       6.585323       179.1958 
 362   0.0000       6.590103       179.3258 
 363   0.0000       6.600960       179.6212 
 364   0.0000       6.605401       179.7421 
 365   0.0000       6.608086       179.8152 
 366   0.0000       6.611740       179.9146 
 367   0.0000       6.615740       180.0234 
 368   0.0000       6.618783       180.1062 
 369   0.0000       6.618841       180.1078 
 370   0.0000       6.622312       180.2023 
 371   0.0000       6.624673       180.2665 
 372   0.0000       6.630587       180.4274 
 373   0.0000       6.637904       180.6266 
 374   0.0000       6.640856       180.7069 
[...]
     69 H        0.000      0.000      0.000      0.000      0.000      0.000
     70 H        0.000      0.000      0.000      0.000      0.003      0.036
     71 H        0.000      0.000      0.000     -0.000      0.001      0.020
     72 H        0.000      0.000      0.000      0.000      0.001      0.011
                 25 H       27 H       28 H       30 H       31 H       33 H  
      3 H        2.521     -0.103      0.060      0.000      0.000      2.423
      4 H        0.115     -0.004      0.003      0.000      0.000      0.101
      8 H       -0.350      0.012      0.000      0.000      0.000     -0.318
      9 H        0.000      0.000      0.000      0.000      0.000      0.132
     10 H        0.000      0.000      0.000      0.000      0.000      0.000
     11 H        0.000      0.000      0.000      0.000      0.000      0.000
     13 H       -0.102      0.004     -0.003      0.000      0.000     -0.105
     16 H       -0.380      0.012     -0.006     -0.022     -0.001     -0.348
     17 H       -0.377      0.011      0.000      0.000      0.000     -0.328
     19 H        0.962     -0.048      0.017      0.087      0.007      1.178
     21 H       -2.867      0.194      0.647     -0.215     -0.026     -2.627
     24 H      -14.190      4.412      2.234      0.724     -0.510     -0.130
     25 H        0.000     13.011      5.358     -0.639     -0.351     -2.394
     27 H       13.011      0.000    -13.649      4.031     12.997      0.070
     28 H        5.358    -13.649      0.000      2.621      4.157      0.282
     30 H       -0.639      4.031      2.621      0.000    -12.951      0.020
     31 H       -0.351     12.997      4.157    -12.951      0.000     -0.330
     33 H       -2.394      0.070      0.282      0.020     -0.330      0.000
     35 H        0.000      0.000      0.000      0.000      0.000      0.000
     37 H        0.271      0.006     -0.036      0.517     -0.037      6.517
     38 H        0.195      0.001     -0.030     -0.012      0.125     12.166
     40 H       -0.014      0.019      0.145     -0.003     -0.035     -0.239
     41 H        0.015      0.021     -0.025      0.014      0.078     -0.417
     42 H       -0.018      0.013     -0.008     -0.259     -0.373     -0.202
     45 H       -0.019     -0.226      0.020     -0.204     -0.468     -0.177
     46 H        0.013      0.044      0.068     -0.325      0.034      0.942
     47 H       -0.057     -0.120     -0.141     -0.150      1.848     -0.460
     48 H       -0.015      0.030      0.021      0.028      0.013      0.000
     52 H        0.001      0.001      0.002     -0.003      0.001      0.003
     53 H        0.000     -0.000      0.000      0.000     -0.002     -0.003
     57 H        0.000      0.000      0.000     -0.003      0.000      0.002
     58 H        0.000      0.000      0.000      0.000     -0.000     -0.000
     61 H        0.000      0.000      0.000     -0.000     -0.000     -0.000
     62 H        0.000      0.000      0.000      0.000     -0.000     -0.000
     63 H        0.000      0.000      0.000      0.000      0.000      0.000
     64 H        0.000      0.000      0.000      0.000      0.000      0.000
     65 H        0.000      0.000      0.000     -0.000      0.000     -0.000
     66 H        0.000      0.000      0.000      0.000      0.000      0.000
     67 H        0.000      0.000      0.000      0.000      0.000      0.000
     68 H        0.000      0.000      0.000      0.000      0.000      0.000
     69 H        0.000      0.000      0.000      0.000      0.000      0.000
     70 H        0.000     -0.009     -0.011      0.066     -0.047      0.005
     71 H        0.003     -0.008     -0.008     -0.450     -0.086      0.004
     72 H        0.000     -0.003     -0.004      0.061      0.008     -0.000
                 35 H       37 H       38 H       40 H       41 H       42 H  
      3 H       -0.077     -0.043     -0.039      0.000      0.000      0.000
      4 H       -0.166     -0.002     -0.002      0.000      0.000      0.000
      8 H        0.021      0.006      0.004      0.000      0.001      0.000
      9 H       -0.092     -0.002     -0.001      0.000     -0.000      0.000
     10 H       -0.181      0.000     -0.001      0.000      0.000      0.000
     11 H       -0.101     -0.000     -0.000      0.000      0.000      0.000
     13 H       13.760      0.002      0.001      0.000      0.000      0.000
     16 H        0.005      0.007      0.002     -0.001      0.001     -0.001
     17 H        0.007      0.005      0.005      0.000      0.002      0.000
     19 H       -0.005     -0.012      0.115      0.004     -0.009      0.006
     21 H       -0.004      0.040     -0.531     -0.011      0.059     -0.025
     24 H       -0.001     -0.053     -0.079     -0.019      0.067     -0.025
     25 H        0.000      0.271      0.195     -0.014      0.015     -0.018
     27 H        0.000      0.006      0.001      0.019      0.021      0.013
     28 H        0.000     -0.036     -0.030      0.145     -0.025     -0.008
     30 H        0.000      0.517     -0.012     -0.003      0.014     -0.259
     31 H        0.000     -0.037      0.125     -0.035      0.078     -0.373
     33 H        0.000      6.517     12.166     -0.239     -0.417     -0.202
     35 H        0.000      0.000      0.000      0.000      0.000      0.000
     37 H        0.000      0.000    -12.191      9.498      2.654     -0.262
     38 H        0.000    -12.191      0.000      6.696     11.584     -0.471
     40 H        0.000      9.498      6.696      0.000    -13.826      9.501
     41 H        0.000      2.654     11.584    -13.826      0.000      8.708
     42 H        0.000     -0.262     -0.471      9.501      8.708      0.000
     45 H        0.000      0.065      0.038     -0.083      0.004      1.114
     46 H        0.000     -0.167      0.010      0.049      0.045     -0.411
     47 H        0.000      0.068     -0.064     -0.113     -0.061     -0.096
     48 H        0.000      0.107     -0.010     -0.209     -0.452     10.354
     52 H        0.000      0.000      0.004      0.061     -0.026     -0.278
     53 H        0.000      0.002      0.007     -0.112      0.040      0.073
     57 H        0.000     -0.001      0.001      0.120     -0.017     -0.042
     58 H        0.000      0.001      0.001     -0.029      0.001      0.003
     61 H        0.000      0.000      0.000     -0.003      0.002      0.001
     62 H        0.000      0.000      0.000     -0.001     -0.000     -0.002
     63 H        0.000      0.000      0.000      0.000      0.001      0.008
     64 H        0.000     -0.000     -0.001     -0.000     -0.010     -0.001
     65 H        0.000      0.001     -0.000      0.001     -0.063     -0.001
     66 H        0.000      0.000      0.001      0.001     -0.010      0.000
     67 H        0.000      0.000      0.000      0.001      0.001      0.001
     68 H        0.000      0.000      0.000      0.000      0.001     -0.000
     69 H        0.000     -0.000      0.000      0.006      0.000     -0.007
     70 H        0.000      0.065      0.009     -0.020      0.017     -0.461
     71 H        0.000     -0.006      0.004      0.081      0.031     -0.192
     72 H        0.000     -0.020      0.037      0.024     -0.055     -0.346
                 45 H       46 H       47 H       48 H       52 H       53 H  
      3 H       -0.020      0.000      0.000      0.000      0.000      0.000
      4 H       -0.001     -0.001      0.001      0.000      0.000      0.000
      8 H        0.002      0.002     -0.003      0.000      0.000      0.000
      9 H       -0.001      0.000      0.001      0.000      0.000      0.000
     10 H       -0.001      0.000      0.000      0.000      0.000      0.000
     11 H       -0.000      0.000      0.000      0.000      0.000      0.000
     13 H        0.001      0.001     -0.001      0.000      0.000      0.000
     16 H        0.002      0.002     -0.003      0.000      0.000      0.000
     17 H        0.002      0.000     -0.004      0.000      0.000      0.000
     19 H       -0.009     -0.007      0.011      0.006      0.000      0.000
     21 H        0.032      0.015     -0.015     -0.016      0.001     -0.001
     24 H       -0.023     -0.017     -0.023      0.002      0.000      0.000
     25 H       -0.019      0.013     -0.057     -0.015      0.001      0.000
     27 H       -0.226      0.044     -0.120      0.030      0.001     -0.000
     28 H        0.020      0.068     -0.141      0.021      0.002      0.000
     30 H       -0.204     -0.325     -0.150      0.028     -0.003      0.000
     31 H       -0.468      0.034      1.848      0.013      0.001     -0.002
     33 H       -0.177      0.942     -0.460      0.000      0.003     -0.003
     35 H        0.000      0.000      0.000      0.000      0.000      0.000
     37 H        0.065     -0.167      0.068      0.107      0.000      0.002
     38 H        0.038      0.010     -0.064     -0.010      0.004      0.007
     40 H       -0.083      0.049     -0.113     -0.209      0.061     -0.112
     41 H        0.004      0.045     -0.061     -0.452     -0.026      0.040
     42 H        1.114     -0.411     -0.096     10.354     -0.278      0.073
     45 H        0.000    -12.848    -13.573     -0.097      0.238     -0.003
     46 H      -12.848      0.000    -12.971     -0.035      0.068     -0.002
     47 H      -13.573    -12.971      0.000     -0.167      0.071     -0.003
     48 H       -0.097     -0.035     -0.167      0.000      9.699     -0.631
     52 H        0.238      0.068      0.071      9.699      0.000     16.701
     53 H       -0.003     -0.002     -0.003     -0.631     16.701      0.000
     57 H        0.000      0.000      0.000      0.062     -1.956      5.718
     58 H       -0.000     -0.000     -0.000     -0.005      0.138     -0.186
     61 H        0.000      0.000      0.000      0.068     -0.097     -0.340
     62 H        0.000      0.000      0.000      0.096     -0.159     -0.539
     63 H        0.000      0.000      0.000      0.254     -0.194      0.791
     64 H        0.000     -0.000     -0.000     -0.003      0.106      0.166
     65 H       -0.000      0.000     -0.000     -0.001      0.021     -0.029
     66 H        0.000     -0.000     -0.000     -0.000      0.026     -0.041
     67 H        0.000      0.000      0.000     -0.003      0.019      0.003
     68 H        0.000      0.000      0.000     -0.001     -0.011      0.037
     69 H        0.000      0.000      0.000      0.003     -0.088      0.033
     70 H       -0.028     -0.015     -0.011      2.283     -0.155      0.107
     71 H       -0.050     -0.218     -0.022      4.448     -0.072     -0.373
     72 H       -0.032     -0.040      0.030     12.642     -0.274      0.106
                 57 H       58 H       61 H       62 H       63 H       64 H  
      3 H        0.000      0.000      0.000      0.000      0.000      0.000
      4 H        0.000      0.000      0.000      0.000      0.000      0.000
      8 H        0.000      0.000      0.000      0.000      0.000      0.000
      9 H        0.000      0.000      0.000      0.000      0.000      0.000
     10 H        0.000      0.000      0.000      0.000      0.000      0.000
     11 H        0.000      0.000      0.000      0.000      0.000      0.000
     13 H        0.000      0.000      0.000      0.000      0.000      0.000
     16 H        0.000      0.000      0.000      0.000      0.000      0.000
     17 H        0.000      0.000      0.000      0.000      0.000      0.000
     19 H        0.000      0.000      0.000      0.000      0.000      0.000
     21 H        0.000     -0.000      0.000      0.000      0.000      0.000
     24 H        0.000      0.000      0.000      0.000      0.000      0.000
     25 H        0.000      0.000      0.000      0.000      0.000      0.000
     27 H        0.000      0.000      0.000      0.000      0.000      0.000
     28 H        0.000      0.000      0.000      0.000      0.000      0.000
     30 H       -0.003      0.000     -0.000      0.000      0.000      0.000
     31 H        0.000     -0.000     -0.000     -0.000      0.000      0.000
     33 H        0.002     -0.000     -0.000     -0.000      0.000      0.000
     35 H        0.000      0.000      0.000      0.000      0.000      0.000
     37 H       -0.001      0.001      0.000      0.000      0.000     -0.000
     38 H        0.001      0.001      0.000      0.000      0.000     -0.001
     40 H        0.120     -0.029     -0.003     -0.001      0.000     -0.000
     41 H       -0.017      0.001      0.002     -0.000      0.001     -0.010
     42 H       -0.042      0.003      0.001     -0.002      0.008     -0.001
     45 H        0.000     -0.000      0.000      0.000      0.000      0.000
     46 H        0.000     -0.000      0.000      0.000      0.000     -0.000
     47 H        0.000     -0.000      0.000      0.000      0.000     -0.000
     48 H        0.062     -0.005      0.068      0.096      0.254     -0.003
     52 H       -1.956      0.138     -0.097     -0.159     -0.194      0.106
     53 H        5.718     -0.186     -0.340     -0.539      0.791      0.166
     57 H        0.000      9.769      1.972     12.757      5.101     -0.450
     58 H        9.769      0.000     -0.409     -0.399     -0.211      2.582
     61 H        1.972     -0.409      0.000    -12.452    -13.291      0.722
     62 H       12.757     -0.399    -12.452      0.000    -12.700     -0.023
     63 H        5.101     -0.211    -13.291    -12.700      0.000      0.003
     64 H       -0.450      2.582      0.722     -0.023      0.003      0.000
     65 H       -0.204      4.113      0.013      0.060      0.030    -13.006
     66 H       -0.389     12.711     -0.059      0.028      0.041    -12.703
     67 H       -0.366     12.777      0.019      0.071     -0.008     -0.222
     68 H       -0.242      4.146     -0.012     -0.024     -0.258      0.167
     69 H       -0.438      2.462     -0.090      0.017     -0.024     -0.273
     70 H       -0.004      0.002     -0.001     -0.002     -0.003      0.000
     71 H        0.623     -0.019     -0.011     -0.011     -0.010      0.000
     72 H       -0.073      0.003      0.003     -0.001     -0.000      0.000
                 65 H       66 H       67 H       68 H       69 H       70 H  
      3 H        0.000      0.000      0.000      0.000      0.000      0.000
      4 H        0.000      0.000      0.000      0.000      0.000      0.000
      8 H        0.000      0.000      0.000      0.000      0.000      0.000
      9 H        0.000      0.000      0.000      0.000      0.000      0.000
     10 H        0.000      0.000      0.000      0.000      0.000      0.000
     11 H        0.000      0.000      0.000      0.000      0.000      0.000
     13 H        0.000      0.000      0.000      0.000      0.000      0.000
     16 H        0.000      0.000      0.000      0.000      0.000      0.000
     17 H        0.000      0.000      0.000      0.000      0.000      0.000
     19 H        0.000      0.000      0.000      0.000      0.000      0.000
     21 H        0.000      0.000      0.000      0.000      0.000      0.003
     24 H        0.000      0.000      0.000      0.000      0.000      0.036
     25 H        0.000      0.000      0.000      0.000      0.000      0.000
     27 H        0.000      0.000      0.000      0.000      0.000     -0.009
     28 H        0.000      0.000      0.000      0.000      0.000     -0.011
     30 H       -0.000      0.000      0.000      0.000      0.000      0.066
     31 H        0.000      0.000      0.000      0.000      0.000     -0.047
     33 H       -0.000      0.000      0.000      0.000      0.000      0.005
     35 H        0.000      0.000      0.000      0.000      0.000      0.000
     37 H        0.001      0.000      0.000      0.000     -0.000      0.065
     38 H       -0.000      0.001      0.000      0.000      0.000      0.009
     40 H        0.001      0.001      0.001      0.000      0.006     -0.020
     41 H       -0.063     -0.010      0.001      0.001      0.000      0.017
     42 H       -0.001      0.000      0.001     -0.000     -0.007     -0.461
     45 H       -0.000      0.000      0.000      0.000      0.000     -0.028
     46 H        0.000     -0.000      0.000      0.000      0.000     -0.015
     47 H       -0.000     -0.000      0.000      0.000      0.000     -0.011
     48 H       -0.001     -0.000     -0.003     -0.001      0.003      2.283
     52 H        0.021      0.026      0.019     -0.011     -0.088     -0.155
     53 H       -0.029     -0.041      0.003      0.037      0.033      0.107
     57 H       -0.204     -0.389     -0.366     -0.242     -0.438     -0.004
     58 H        4.113     12.711     12.777      4.146      2.462      0.002
     61 H        0.013     -0.059      0.019     -0.012     -0.090     -0.001
     62 H        0.060      0.028      0.071     -0.024      0.017     -0.002
     63 H        0.030      0.041     -0.008     -0.258     -0.024     -0.003
     64 H      -13.006    -12.703     -0.222      0.167     -0.273      0.000
     65 H        0.000    -12.202     -0.365      2.878      0.136      0.001
     66 H      -12.202      0.000     -0.286     -0.381     -0.223     -0.001
     67 H       -0.365     -0.286      0.000    -12.112    -12.764      0.001
     68 H        2.878     -0.381    -12.112      0.000    -13.017      0.000
     69 H        0.136     -0.223    -12.764    -13.017      0.000      0.000
     70 H        0.001     -0.001      0.001      0.000      0.000      0.000
     71 H        0.002      0.001      0.000      0.000      0.000    -13.238
     72 H       -0.001     -0.000      0.000     -0.000      0.000    -12.564
                 71 H       72 H  
      3 H        0.000      0.000
      4 H        0.000      0.000
      8 H        0.000      0.000
      9 H        0.000      0.000
     10 H        0.000      0.000
     11 H        0.000      0.000
     13 H        0.000      0.000
     16 H        0.000      0.000
     17 H        0.000      0.000
     19 H       -0.000      0.000
     21 H        0.001      0.001
     24 H        0.020      0.011
     25 H        0.003      0.000
     27 H       -0.008     -0.003
     28 H       -0.008     -0.004
     30 H       -0.450      0.061
     31 H       -0.086      0.008
     33 H        0.004     -0.000
     35 H        0.000      0.000
     37 H       -0.006     -0.020
     38 H        0.004      0.037
     40 H        0.081      0.024
     41 H        0.031     -0.055
     42 H       -0.192     -0.346
     45 H       -0.050     -0.032
     46 H       -0.218     -0.040
     47 H       -0.022      0.030
     48 H        4.448     12.642
     52 H       -0.072     -0.274
     53 H       -0.373      0.106
     57 H        0.623     -0.073
     58 H       -0.019      0.003
     61 H       -0.011      0.003
     62 H       -0.011     -0.001
     63 H       -0.010     -0.000
     64 H        0.000      0.000
     65 H        0.002     -0.001
     66 H        0.001     -0.000
     67 H        0.000      0.000
     68 H        0.000     -0.000
     69 H        0.000      0.000
     70 H      -13.238    -12.564
     71 H        0.000    -12.407
     72 H      -12.407      0.000

Maximum memory used throughout the entire EPRNMR-calculation: 950.9 MB

Timings for individual modules:

Sum of individual times         ...      401.093 sec (=   6.685 min)
GTO integral calculation        ...        0.632 sec (=   0.011 min)   0.2 %
SCF iterations                  ...      104.335 sec (=   1.739 min)  26.0 %
EPR/NMR calculation             ...      296.126 sec (=   4.935 min)  73.8 %
                             ****ORCA TERMINATED NORMALLY****
TOTAL RUN TIME: 0 days 0 hours 6 minutes 41 seconds 569 msec
