
                                 *****************
                                 * O   R   C   A *
                                 *****************

                                            #,                                       
                                            ###                                      
                                            ####                                     
                                            #####                                    
                                            ######                                   
                                           ########,                                 
                                     ,,################,,,,,                         
                               ,,#################################,,                 
                          ,,##########################################,,             
                       ,#########################################, ''#####,          
                    ,#############################################,,   '####,        
                  ,##################################################,,,,####,       
                ,###########''''           ''''###############################       
              ,#####''   ,,,,##########,,,,          '''####'''          '####       
            ,##' ,,,,###########################,,,                        '##       
           ' ,,###''''                  '''############,,,                           
         ,,##''                                '''############,,,,        ,,,,,,###''
      ,#''                                            '''#######################'''  
     '                                                          ''''####''''         
             ,#######,   #######,   ,#######,      ##                                
            ,#'     '#,  ##    ##  ,#'     '#,    #''#        ######   ,####,        
            ##       ##  ##   ,#'  ##            #'  '#       #        #'  '#        
            ##       ##  #######   ##           ,######,      #####,   #    #        
            '#,     ,#'  ##    ##  '#,     ,#' ,#      #,         ##   #,  ,#        
             '#######'   ##     ##  '#######'  #'      '#     #####' # '####'        



                  #######################################################
                  #                        -***-                        #
                  #          Department of theory and spectroscopy      #
                  #    Directorship and core code : Frank Neese         #
                  #        Max Planck Institute fuer Kohlenforschung    #
                  #                Kaiser Wilhelm Platz 1               #
                  #                 D-45470 Muelheim/Ruhr               #
                  #                      Germany                        #
                  #                                                     #
                  #                  All rights reserved                #
                  #                        -***-                        #
                  #######################################################


                         Program Version 5.0.2 -  RELEASE  -


 With contributions from (in alphabetic order):
   Daniel Aravena         : Magnetic Suceptibility
   Michael Atanasov       : Ab Initio Ligand Field Theory (pilot matlab implementation)
   Alexander A. Auer      : GIAO ZORA, VPT2 properties, NMR spectrum
   Ute Becker             : Parallelization
   Giovanni Bistoni       : ED, misc. LED, open-shell LED, HFLD
   Martin Brehm           : Molecular dynamics
   Dmytro Bykov           : SCF Hessian
   Vijay G. Chilkuri      : MRCI spin determinant printing, contributions to CSF-ICE
   Dipayan Datta          : RHF DLPNO-CCSD density
   Achintya Kumar Dutta   : EOM-CC, STEOM-CC
   Dmitry Ganyushin       : Spin-Orbit,Spin-Spin,Magnetic field MRCI
   Miquel Garcia          : C-PCM and meta-GGA Hessian, CC/C-PCM, Gaussian charge scheme
   Yang Guo               : DLPNO-NEVPT2, F12-NEVPT2, CIM, IAO-localization
   Andreas Hansen         : Spin unrestricted coupled pair/coupled cluster methods
   Benjamin Helmich-Paris : MC-RPA, TRAH-SCF, COSX integrals
   Lee Huntington         : MR-EOM, pCC
   Robert Izsak           : Overlap fitted RIJCOSX, COSX-SCS-MP3, EOM
   Marcus Kettner         : VPT2
   Christian Kollmar      : KDIIS, OOCD, Brueckner-CCSD(T), CCSD density, CASPT2, CASPT2-K
   Simone Kossmann        : Meta GGA functionals, TD-DFT gradient, OOMP2, MP2 Hessian
   Martin Krupicka        : Initial AUTO-CI
   Lucas Lang             : DCDCAS
   Marvin Lechner         : AUTO-CI (C++ implementation), FIC-MRCC
   Dagmar Lenk            : GEPOL surface, SMD
   Dimitrios Liakos       : Extrapolation schemes; Compound Job, initial MDCI parallelization
   Dimitrios Manganas     : Further ROCIS development; embedding schemes
   Dimitrios Pantazis     : SARC Basis sets
   Anastasios Papadopoulos: AUTO-CI, single reference methods and gradients
   Taras Petrenko         : DFT Hessian,TD-DFT gradient, ASA, ECA, R-Raman, ABS, FL, XAS/XES, NRVS
   Peter Pinski           : DLPNO-MP2, DLPNO-MP2 Gradient
   Christoph Reimann      : Effective Core Potentials
   Marius Retegan         : Local ZFS, SOC
   Christoph Riplinger    : Optimizer, TS searches, QM/MM, DLPNO-CCSD(T), (RO)-DLPNO pert. Triples
   Tobias Risthaus        : Range-separated hybrids, TD-DFT gradient, RPA, STAB
   Michael Roemelt        : Original ROCIS implementation
   Masaaki Saitow         : Open-shell DLPNO-CCSD energy and density
   Barbara Sandhoefer     : DKH picture change effects
   Avijit Sen             : IP-ROCIS
   Kantharuban Sivalingam : CASSCF convergence, NEVPT2, FIC-MRCI
   Bernardo de Souza      : ESD, SOC TD-DFT
   Georgi Stoychev        : AutoAux, RI-MP2 NMR, DLPNO-MP2 response
   Willem Van den Heuvel  : Paramagnetic NMR
   Boris Wezisla          : Elementary symmetry handling
   Frank Wennmohs         : Technical directorship


 We gratefully acknowledge several colleagues who have allowed us to
 interface, adapt or use parts of their codes:
   Stefan Grimme, W. Hujo, H. Kruse, P. Pracht,  : VdW corrections, initial TS optimization,
                  C. Bannwarth, S. Ehlert          DFT functionals, gCP, sTDA/sTD-DF
   Ed Valeev, F. Pavosevic, A. Kumar             : LibInt (2-el integral package), F12 methods
   Garnet Chan, S. Sharma, J. Yang, R. Olivares  : DMRG
   Ulf Ekstrom                                   : XCFun DFT Library
   Mihaly Kallay                                 : mrcc  (arbitrary order and MRCC methods)
   Jiri Pittner, Ondrej Demel                    : Mk-CCSD
   Frank Weinhold                                : gennbo (NPA and NBO analysis)
   Christopher J. Cramer and Donald G. Truhlar   : smd solvation model
   Lars Goerigk                                  : TD-DFT with DH, B97 family of functionals
   V. Asgeirsson, H. Jonsson                     : NEB implementation
   FAccTs GmbH                                   : IRC, NEB, NEB-TS, DLPNO-Multilevel, CI-OPT
                                                   MM, QMMM, 2- and 3-layer-ONIOM, Crystal-QMMM,
                                                   LR-CPCM, SF, NACMEs, symmetry and pop. for TD-DFT,
                                                   nearIR, NL-DFT gradient (VV10), updates on ESD,
                                                   ML-optimized integration grids
   S Lehtola, MJT Oliveira, MAL Marques          : LibXC Library
   Liviu Ungur et al                             : ANISO software


 Your calculation uses the libint2 library for the computation of 2-el integrals
 For citations please refer to: http://libint.valeyev.net

 Your ORCA version has been built with support for libXC version: 5.1.0
 For citations please refer to: https://tddft.org/programs/libxc/

 This ORCA versions uses:
   CBLAS   interface :  Fast vector & matrix operations
   LAPACKE interface :  Fast linear algebra routines
   SCALAPACK package :  Parallel linear algebra routines
   Shared memory     :  Shared parallel matrices
   BLAS/LAPACK       :  OpenBLAS 0.3.15  USE64BITINT DYNAMIC_ARCH NO_AFFINITY Zen SINGLE_THREADED
        Core in use  :  Zen
   Copyright (c) 2011-2014, The OpenBLAS Project


Your calculation utilizes the atom-pairwise dispersion correction
based on tight binding partial charges (D4)
Cite in your paper:
E.Caldeweyher, C.Bannwarth, S.Grimme, J.Chem.Phys., (2017), 147, 034112.
E.Caldeweyher, S.Ehlert, A.Hansen, H.Neugebauer, S.Grimme, J.Chem.Phys., (2018), in progress.
   

================================================================================

----- Orbital basis set information -----
Your calculation utilizes the basis: pcSseg-1
   F. Jensen, J. Chem. Theory Comput. 11, 132 (2015).

----- AuxJ basis set information -----
Your calculation utilizes the auxiliary basis: def2/J
   F. Weigend, Phys. Chem. Chem. Phys. 8, 1057 (2006).

================================================================================
                                        WARNINGS
                       Please study these warnings very carefully!
================================================================================



WARNING: Found flag for RIJCOSX approximation but no HF exchange needed!
  ===> : RIJCOSX  will be disabled and Split-RI-J is turned on

INFO   : the flag for use of the SHARK integral package has been found!

================================================================================
                                       INPUT FILE
================================================================================
NAME = inpS
|  1> ! revTPSS
|  2> ! D4
|  3> ! pcSseg-1
|  4> ! def2/J RIJCOSX
|  5> ! DEFGRID2
|  6> ! scfconv7
|  7> ! smallprint printgap noloewdin
|  8> ! NOSOSCF
|  9> %MaxCore 4000
| 10> %output
| 11>        print[P_BondOrder_M] 1
| 12>        print[P_Mayer] 1
| 13>        print[P_basis] 2
| 14> end
| 15> %pal
| 16>     nprocs 4
| 17> end
| 18> ! CPCM(chloroform)
| 19> *xyz 0 1
| 20> C   -4.9869763600   0.3541546200   0.2859717200
| 21> C   -6.3950427700  -0.0865285800  -0.0383126900
| 22> C   -6.9445350600   0.6324292400  -1.2763302200
| 23> H   -7.0603906700   0.1630340100   0.8057538300
| 24> H   -6.4364847200  -1.1711388300  -0.1867449500
| 25> C   -4.8089644300   1.8204964600   0.3470291000
| 26> C   -5.4065112100   2.5744522000  -0.8194843800
| 27> C   -6.8534133400   2.1431356900  -1.0952447900
| 28> H   -4.8041619800   2.3614017400  -1.7157749900
| 29> H   -5.3526231900   3.6533260800  -0.6396425300
| 30> H   -7.2357299800   2.6469206500  -1.9907669900
| 31> H   -7.4933623700   2.4354856100  -0.2489415800
| 32> O   -8.2826400300   0.2100020200  -1.5696649900
| 33> H   -6.3546622800   0.3344418500  -2.1545499700
| 34> C   -3.9964008500  -0.5535834100   0.4543277600
| 35> C   -4.2105148000   2.4460984900   1.3672161600
| 36> H   -3.8090199600   1.8940606000   2.2123671900
| 37> H   -4.1191983500   3.5295822500   1.3831113700
| 38> C   -2.5964834200  -0.2670639900   0.6662046100
| 39> H   -4.2863977100  -1.6006869900   0.3786819200
| 40> C   -1.6226894600  -1.1680113300   0.9184606200
| 41> H   -2.3109213600   0.7804665800   0.6015354500
| 42> C   -1.8227732400  -2.6517437600   1.0990459200
| 43> C   -0.8848369500  -3.4754448300   0.1966395600
| 44> H   -2.8602753200  -2.9541985900   0.9322256100
| 45> H   -1.5883984500  -2.8950720200   2.1479770200
| 46> C    0.5812260700  -3.0351305100   0.3075878900
| 47> H   -1.2198163600  -3.3886281800  -0.8446307500
| 48> H   -0.9704860800  -4.5361545900   0.4628870500
| 49> C    0.7445586300  -1.5292949600   0.0579143900
| 50> H    1.1831041400  -3.6235328900  -0.3928439700
| 51> H    0.9523255300  -3.2615717200   1.3185589300
| 52> C   -0.1826980000  -0.7845274300   1.0703906000
| 53> H    0.1348151000  -1.1595991100   2.0612967200
| 54> C    0.2581432400   0.6731228800   0.9796615500
| 55> H   -8.8378700600   0.4597392000  -0.8189377500
| 56> C    1.7878139500   0.5767045600   0.7574298800
| 57> H   -0.0067021600   1.2406905000   1.8780333400
| 58> H   -0.2216003400   1.1715253800   0.1298482500
| 59> C    2.1149966400  -0.9169295100   0.4583940800
| 60> H    2.3516213000   0.9283598000   1.6271936100
| 61> H    2.1014314600   1.2031193900  -0.0860570000
| 62> H    2.4092610700  -1.4085699800   1.4002387700
| 63> C    3.3050364800  -1.0493192100  -0.5140900200
| 64> C    0.3813243400  -1.1680083500  -1.3883111500
| 65> H   -0.6839722300  -1.3262606700  -1.5822209800
| 66> H    0.9486670800  -1.7834493100  -2.0950998100
| 67> H    0.6008297100  -0.1188432000  -1.6107268500
| 68> H    3.0479894700  -0.5227768200  -1.4452901000
| 69> C    3.6632893200  -2.5037142500  -0.8528893300
| 70> C    4.5091557800  -0.3704127000   0.0838349100
| 71> C    5.1231037800   0.6906415800  -0.4388485300
| 72> H    4.8783116100  -0.8163121300   1.0107174800
| 73> H    4.7211665100   1.1021375300  -1.3664902400
| 74> C    6.3145023400   1.4165823000   0.1361224900
| 75> C    7.1028584700   0.5674862500   1.1369143300
| 76> C    5.8859717700   2.7787603000   0.7509301700
| 77> H    6.9820699300   1.6570656300  -0.7091154100
| 78> H    5.2465782800   2.5460978600   1.6176652200
| 79> C    5.0686225300   3.6224513200  -0.2321407800
| 80> C    7.0926016100   3.5854412500   1.2396391800
| 81> H    7.3026279200  -0.4282508300   0.7279720300
| 82> H    6.5480354000   0.4430347300   2.0746334400
| 83> H    8.0638847900   1.0294442000   1.3767115000
| 84> H    4.8333893900   4.5985949100   0.2058270000
| 85> H    4.1238706700   3.1406611100  -0.5004567400
| 86> H    5.6357980500   3.7983831100  -1.1556159300
| 87> H    7.7962220900   3.7600077500   0.4150276800
| 88> H    7.6333803100   3.0827289000   2.0462272400
| 89> H    6.7706172000   4.5627765400   1.6156733100
| 90> H    4.5937260300  -2.5390315100  -1.4298018100
| 91> H    2.8828391800  -2.9862268000  -1.4466223600
| 92> H    3.8091131000  -3.0924403800   0.0611515800
| 93> *
| 94> %eprnmr
| 95>  Nuclei = all H { shift }
| 96>  origin giao
| 97>  giao_2el giao_2el_same_as_scf
| 98>  giao_1el giao_1el_analytic
| 99> end
|100> 
|101>                          ****END OF INPUT****
================================================================================

                       ****************************
                       * Single Point Calculation *
                       ****************************

---------------------------------
CARTESIAN COORDINATES (ANGSTROEM)
---------------------------------
  C     -4.986976    0.354155    0.285972
  C     -6.395043   -0.086529   -0.038313
  C     -6.944535    0.632429   -1.276330
  H     -7.060391    0.163034    0.805754
  H     -6.436485   -1.171139   -0.186745
  C     -4.808964    1.820496    0.347029
  C     -5.406511    2.574452   -0.819484
  C     -6.853413    2.143136   -1.095245
  H     -4.804162    2.361402   -1.715775
  H     -5.352623    3.653326   -0.639643
  H     -7.235730    2.646921   -1.990767
  H     -7.493362    2.435486   -0.248942
  O     -8.282640    0.210002   -1.569665
  H     -6.354662    0.334442   -2.154550
  C     -3.996401   -0.553583    0.454328
  C     -4.210515    2.446098    1.367216
  H     -3.809020    1.894061    2.212367
  H     -4.119198    3.529582    1.383111
  C     -2.596483   -0.267064    0.666205
  H     -4.286398   -1.600687    0.378682
  C     -1.622689   -1.168011    0.918461
  H     -2.310921    0.780467    0.601535
  C     -1.822773   -2.651744    1.099046
  C     -0.884837   -3.475445    0.196640
  H     -2.860275   -2.954199    0.932226
  H     -1.588398   -2.895072    2.147977
  C      0.581226   -3.035131    0.307588
  H     -1.219816   -3.388628   -0.844631
  H     -0.970486   -4.536155    0.462887
  C      0.744559   -1.529295    0.057914
  H      1.183104   -3.623533   -0.392844
  H      0.952326   -3.261572    1.318559
  C     -0.182698   -0.784527    1.070391
  H      0.134815   -1.159599    2.061297
  C      0.258143    0.673123    0.979662
  H     -8.837870    0.459739   -0.818938
  C      1.787814    0.576705    0.757430
  H     -0.006702    1.240690    1.878033
  H     -0.221600    1.171525    0.129848
  C      2.114997   -0.916930    0.458394
  H      2.351621    0.928360    1.627194
  H      2.101431    1.203119   -0.086057
  H      2.409261   -1.408570    1.400239
  C      3.305036   -1.049319   -0.514090
  C      0.381324   -1.168008   -1.388311
  H     -0.683972   -1.326261   -1.582221
  H      0.948667   -1.783449   -2.095100
  H      0.600830   -0.118843   -1.610727
  H      3.047989   -0.522777   -1.445290
  C      3.663289   -2.503714   -0.852889
  C      4.509156   -0.370413    0.083835
  C      5.123104    0.690642   -0.438849
  H      4.878312   -0.816312    1.010717
  H      4.721167    1.102138   -1.366490
  C      6.314502    1.416582    0.136122
  C      7.102858    0.567486    1.136914
  C      5.885972    2.778760    0.750930
  H      6.982070    1.657066   -0.709115
  H      5.246578    2.546098    1.617665
  C      5.068623    3.622451   -0.232141
  C      7.092602    3.585441    1.239639
  H      7.302628   -0.428251    0.727972
  H      6.548035    0.443035    2.074633
  H      8.063885    1.029444    1.376712
  H      4.833389    4.598595    0.205827
  H      4.123871    3.140661   -0.500457
  H      5.635798    3.798383   -1.155616
  H      7.796222    3.760008    0.415028
  H      7.633380    3.082729    2.046227
  H      6.770617    4.562777    1.615673
  H      4.593726   -2.539032   -1.429802
  H      2.882839   -2.986227   -1.446622
  H      3.809113   -3.092440    0.061152

----------------------------
CARTESIAN COORDINATES (A.U.)
----------------------------
  NO LB      ZA    FRAG     MASS         X           Y           Z
   0 C     6.0000    0    12.011   -9.424020    0.669255    0.540408
   1 C     6.0000    0    12.011  -12.084879   -0.163515   -0.072400
   2 C     6.0000    0    12.011  -13.123269    1.195118   -2.411915
   3 H     1.0000    0     1.008  -13.342205    0.308090    1.522654
   4 H     1.0000    0     1.008  -12.163193   -2.213132   -0.352897
   5 C     6.0000    0    12.011   -9.087626    3.440240    0.655790
   6 C     6.0000    0    12.011  -10.216826    4.865010   -1.548601
   7 C     6.0000    0    12.011  -12.951074    4.049940   -2.069713
   8 H     1.0000    0     1.008   -9.078550    4.462403   -3.242345
   9 H     1.0000    0     1.008  -10.114992    6.903786   -1.208749
  10 H     1.0000    0     1.008  -13.673548    5.001955   -3.762004
  11 H     1.0000    0     1.008  -14.160403    4.602401   -0.470431
  12 O     8.0000    0    15.999  -15.651921    0.396846   -2.966237
  13 H     1.0000    0     1.008  -12.008571    0.632004   -4.071509
  14 C     6.0000    0    12.011   -7.552103   -1.046121    0.858555
  15 C     6.0000    0    12.011   -7.956720    4.622456    2.583664
  16 H     1.0000    0     1.008   -7.198005    3.579256    4.180768
  17 H     1.0000    0     1.008   -7.784157    6.669944    2.613702
  18 C     6.0000    0    12.011   -4.906643   -0.504678    1.258944
  19 H     1.0000    0     1.008   -8.100118   -3.024860    0.715605
  20 C     6.0000    0    12.011   -3.066439   -2.207222    1.735639
  21 H     1.0000    0     1.008   -4.367008    1.474868    1.136737
  22 C     6.0000    0    12.011   -3.444542   -5.011069    2.076896
  23 C     6.0000    0    12.011   -1.672100   -6.567639    0.371595
  24 H     1.0000    0     1.008   -5.405137   -5.582626    1.761651
  25 H     1.0000    0     1.008   -3.001638   -5.470893    4.059088
  26 C     6.0000    0    12.011    1.098358   -5.735565    0.581257
  27 H     1.0000    0     1.008   -2.305119   -6.403579   -1.596121
  28 H     1.0000    0     1.008   -1.833953   -8.572090    0.874730
  29 C     6.0000    0    12.011    1.407012   -2.889949    0.109442
  30 H     1.0000    0     1.008    2.235743   -6.847485   -0.742368
  31 H     1.0000    0     1.008    1.799634   -6.163477    2.491715
  32 C     6.0000    0    12.011   -0.345249   -1.482542    2.022745
  33 H     1.0000    0     1.008    0.254764   -2.191325    3.895286
  34 C     6.0000    0    12.011    0.487820    1.272018    1.851292
  35 H     1.0000    0     1.008  -16.701154    0.868781   -1.547568
  36 C     6.0000    0    12.011    3.378479    1.089814    1.431335
  37 H     1.0000    0     1.008   -0.012665    2.344565    3.548969
  38 H     1.0000    0     1.008   -0.418764    2.213862    0.245378
  39 C     6.0000    0    12.011    3.996764   -1.732746    0.866239
  40 H     1.0000    0     1.008    4.443920    1.754346    3.074950
  41 H     1.0000    0     1.008    3.971130    2.273566   -0.162624
  42 H     1.0000    0     1.008    4.552844   -2.661812    2.646068
  43 C     6.0000    0    12.011    6.245614   -1.982926   -0.971489
  44 C     6.0000    0    12.011    0.720599   -2.207216   -2.623528
  45 H     1.0000    0     1.008   -1.292520   -2.506269   -2.989964
  46 H     1.0000    0     1.008    1.792721   -3.370231   -3.959165
  47 H     1.0000    0     1.008    1.135404   -0.224581   -3.043833
  48 H     1.0000    0     1.008    5.759865   -0.987905   -2.731202
  49 C     6.0000    0    12.011    6.922614   -4.731334   -1.611727
  50 C     6.0000    0    12.011    8.521070   -0.699979    0.158425
  51 C     6.0000    0    12.011    9.681263    1.305123   -0.829304
  52 H     1.0000    0     1.008    9.218673   -1.542606    1.909979
  53 H     1.0000    0     1.008    8.921712    2.082738   -2.582292
  54 C     6.0000    0    12.011   11.932680    2.676953    0.257234
  55 C     6.0000    0    12.011   13.422457    1.072394    2.148457
  56 C     6.0000    0    12.011   11.122875    5.251096    1.419052
  57 H     1.0000    0     1.008   13.194200    3.131400   -1.340034
  58 H     1.0000    0     1.008    9.914596    4.811428    3.056944
  59 C     6.0000    0    12.011    9.578308    6.845441   -0.438682
  60 C     6.0000    0    12.011   13.403075    6.775502    2.342579
  61 H     1.0000    0     1.008   13.799967   -0.809277    1.375668
  62 H     1.0000    0     1.008   12.373994    0.837214    3.920489
  63 H     1.0000    0     1.008   15.238534    1.945368    2.601608
  64 H     1.0000    0     1.008    9.133782    8.690085    0.388957
  65 H     1.0000    0     1.008    7.792986    5.934989   -0.945726
  66 H     1.0000    0     1.008   10.650115    7.177904   -2.183798
  67 H     1.0000    0     1.008   14.732725    7.105385    0.784289
  68 H     1.0000    0     1.008   14.424998    5.825513    3.866809
  69 H     1.0000    0     1.008   12.794612    8.622398    3.053180
  70 H     1.0000    0     1.008    8.680884   -4.798074   -2.701934
  71 H     1.0000    0     1.008    5.447777   -5.643151   -2.733720
  72 H     1.0000    0     1.008    7.198181   -5.843865    0.115560

--------------------------------
INTERNAL COORDINATES (ANGSTROEM)
--------------------------------
 C      0   0   0     0.000000000000     0.00000000     0.00000000
 C      1   0   0     1.510633336155     0.00000000     0.00000000
 C      2   1   0     1.533469767650   111.74889685     0.00000000
 H      2   1   3     1.103366486960   109.38243893   241.47218623
 H      2   1   3     1.095503977826   110.68110981   122.90801995
 C      1   2   3     1.478368912893   114.23304260    50.33446367
 C      6   1   2     1.512040049466   114.52750465   312.35335507
 C      3   2   1     1.524247053101   110.32493043   304.95843270
 H      7   6   1     1.100705206203   108.38674555   289.67492226
 H      7   6   1     1.095087146604   110.18836582   172.53030010
 H      8   3   2     1.096323542498   109.72763457   179.22631583
 H      8   3   2     1.100560021070   108.65523605   296.68647769
 O      3   2   1     1.433532334559   111.19365646   180.25734560
 H      3   2   1     1.099097953084   109.00564725    65.06017540
 C      1   2   3     1.354094504946   120.86400492   232.37631194
 C      6   1   2     1.338021485993   123.30524540   130.16846608
 H     16   6   1     1.086381241578   121.39031233     0.66642611
 H     16   6   1     1.087441221366   120.96800689   181.34707235
 C     15   1   2     1.444560136658   126.45608691   175.02939131
 H     15   1   2     1.089149383312   116.17223819   357.81930783
 C     19  15   1     1.350412485342   126.43380981   175.48221406
 H     19  15   1     1.087680139311   115.89545290   354.69993336
 C     21  19  15     1.508014089267   125.66989357   356.63159449
 C     23  21  19     1.540306844556   112.03690369   128.39083431
 H     23  21  19     1.093489143075   112.31885367     4.11321793
 H     23  21  19     1.101996659182   107.63887615   247.05710635
 C     24  23  21     1.534772625159   112.69936822    50.39504833
 H     24  23  21     1.097265781080   109.13261963   288.22973777
 H     24  23  21     1.096963397001   109.10803268   172.30468789
 C     27  24  23     1.535107515910   111.79575912   306.35488226
 H     27  24  23     1.095024822750   108.94386950   182.82392565
 H     27  24  23     1.100478475263   109.23825536    66.30871945
 C     21  19  15     1.497904544774   122.77708950   177.42960500
 H     33  21  19     1.106068837127   106.26130696   123.79877264
 C     33  21  19     1.525554714077   121.09004521     1.52812690
 H     13   3   2     0.966561138349   107.52553648    62.61577592
 C     35  33  21     1.548733640306   103.55997201   196.56414660
 H     35  33  21     1.095147461414   112.11818506    74.57350678
 H     35  33  21     1.095783555003   110.74443290   314.97199155
 C     30  27  24     1.553536535042   116.01395777   166.53954109
 H     37  35  33     1.094545148341   112.00826941   249.15543684
 H     37  35  33     1.096458662492   110.93606205   130.56974112
 H     40  30  27     1.102439715625   106.25486214   321.02914494
 C     40  30  27     1.542545681076   118.96027468    81.81585591
 C     30  27  24     1.534286634415   111.04514308   294.55092806
 H     45  30  27     1.094304162932   111.31190286    66.46934248
 H     45  30  27     1.095534376358   110.68556497   306.37943116
 H     45  30  27     1.094714055377   111.69824335   186.42072700
 H     44  40  30     1.100206181954   108.19655265    62.26350921
 C     44  40  30     1.535706678439   113.59929035   301.44164722
 C     44  40  30     1.506098124250   109.13644775   179.40632628
 C     51  44  40     1.332653859883   124.85614093   243.41054506
 H     51  44  40     1.092800817655   115.01602269    63.81955487
 H     52  51  44     1.091513457550   117.63552094     0.32873246
 C     52  51  44     1.508977180598   126.67870187   178.85892099
 C     55  52  51     1.531030305659   112.88089135    20.30612540
 C     55  52  51     1.554720501085   110.76635550   254.23632255
 H     55  52  51     1.103587706901   106.89371958   138.98138807
 H     57  55  52     1.101900854406   106.61818172    66.21124166
 C     57  55  52     1.531764606619   112.07797357   308.05693957
 C     57  55  52     1.531511091154   111.74749991   184.61360951
 H     56  55  52     1.094821433097   110.74398495    48.26764930
 H     56  55  52     1.096646683802   111.18416521   288.22971847
 H     56  55  52     1.092922420870   111.20976732   168.12837028
 H     60  57  55     1.095448179865   110.41401939   183.42746534
 H     60  57  55     1.093924740472   112.06565117    63.28833108
 H     60  57  55     1.097928238952   110.63557369   302.58724806
 H     61  57  55     1.097970568244   110.42512608    57.81551990
 H     61  57  55     1.093501535322   112.51090334   296.97914489
 H     61  57  55     1.095563734471   110.35610973   176.79518683
 H     50  44  40     1.095348250443   110.17520181   187.85542770
 H     50  44  40     1.092904246879   111.80092811    67.96485541
 H     50  44  40     1.096965731512   110.82133169   307.29613312

---------------------------
INTERNAL COORDINATES (A.U.)
---------------------------
 C      0   0   0     0.000000000000     0.00000000     0.00000000
 C      1   0   0     2.854683294104     0.00000000     0.00000000
 C      2   1   0     2.897837895506   111.74889685     0.00000000
 H      2   1   3     2.085060485702   109.38243893   241.47218623
 H      2   1   3     2.070202496713   110.68110981   122.90801995
 C      1   2   3     2.793712370271   114.23304260    50.33446367
 C      6   1   2     2.857341597011   114.52750465   312.35335507
 C      3   2   1     2.880409490797   110.32493043   304.95843270
 H      7   6   1     2.080031393905   108.38674555   289.67492226
 H      7   6   1     2.069414799859   110.18836582   172.53030010
 H      8   3   2     2.071751249492   109.72763457   179.22631583
 H      8   3   2     2.079757033765   108.65523605   296.68647769
 O      3   2   1     2.708983516438   111.19365646   180.25734560
 H      3   2   1     2.076994125683   109.00564725    65.06017540
 C      1   2   3     2.558867773795   120.86400492   232.37631194
 C      6   1   2     2.528494169829   123.30524540   130.16846608
 H     16   6   1     2.052963023612   121.39031233     0.66642611
 H     16   6   1     2.054966095118   120.96800689   181.34707235
 C     15   1   2     2.729823042263   126.45608691   175.02939131
 H     15   1   2     2.058194053388   116.17223819   357.81930783
 C     19  15   1     2.551909765124   126.43380981   175.48221406
 H     19  15   1     2.055417584603   115.89545290   354.69993336
 C     21  19  15     2.849733634810   125.66989357   356.63159449
 C     23  21  19     2.910758098416   112.03690369   128.39083431
 H     23  21  19     2.066395010828   112.31885367     4.11321793
 H     23  21  19     2.082471886351   107.63887615   247.05710635
 C     24  23  21     2.900299939390   112.69936822    50.39504833
 H     24  23  21     2.073531822364   109.13261963   288.22973777
 H     24  23  21     2.072960399268   109.10803268   172.30468789
 C     27  24  23     2.900932791193   111.79575912   306.35488226
 H     27  24  23     2.069297024844   108.94386950   182.82392565
 H     27  24  23     2.079602934522   109.23825536    66.30871945
 C     21  19  15     2.830629364379   122.77708950   177.42960500
 H     33  21  19     2.090167187434   106.26130696   123.79877264
 C     33  21  19     2.882880611918   121.09004521     1.52812690
 H     13   3   2     1.826535843170   107.52553648    62.61577592
 C     35  33  21     2.926682434569   103.55997201   196.56414660
 H     35  33  21     2.069528778331   112.11818506    74.57350678
 H     35  33  21     2.070730821010   110.74443290   314.97199155
 C     30  27  24     2.935758590270   116.01395777   166.53954109
 H     37  35  33     2.068390571577   112.00826941   249.15543684
 H     37  35  33     2.072006589276   110.93606205   130.56974112
 H     40  30  27     2.083309141688   106.25486214   321.02914494
 C     40  30  27     2.914988886297   118.96027468    81.81585591
 C     30  27  24     2.899381549981   111.04514308   294.55092806
 H     45  30  27     2.067935175151   111.31190286    66.46934248
 H     45  30  27     2.070259941612   110.68556497   306.37943116
 H     45  30  27     2.068709759617   111.69824335   186.42072700
 H     44  40  30     2.079088374739   108.19655265    62.26350921
 C     44  40  30     2.902065044283   113.59929035   301.44164722
 C     44  40  30     2.846112985644   109.13644775   179.40632628
 C     51  44  40     2.518350826492   124.85614093   243.41054506
 H     51  44  40     2.065094264293   115.01602269    63.81955487
 H     52  51  44     2.062661506259   117.63552094     0.32873246
 C     52  51  44     2.851553613666   126.67870187   178.85892099
 C     55  52  51     2.893227980428   112.88089135    20.30612540
 C     55  52  51     2.937995961844   110.76635550   254.23632255
 H     55  52  51     2.085478530805   106.89371958   138.98138807
 H     57  55  52     2.082290841560   106.61818172    66.21124166
 C     57  55  52     2.894615608144   112.07797357   308.05693957
 C     57  55  52     2.894136533343   111.74749991   184.61360951
 H     56  55  52     2.068912674101   110.74398495    48.26764930
 H     56  55  52     2.072361898059   111.18416521   288.22971847
 H     56  55  52     2.065324061067   111.20976732   168.12837028
 H     60  57  55     2.070097053848   110.41401939   183.42746534
 H     60  57  55     2.067218170612   112.06565117    63.28833108
 H     60  57  55     2.074783686317   110.63557369   302.58724806
 H     61  57  55     2.074863677087   110.42512608    57.81551990
 H     61  57  55     2.066418428780   112.51090334   296.97914489
 H     61  57  55     2.070315420406   110.35610973   176.79518683
 H     50  44  40     2.069908214608   110.17520181   187.85542770
 H     50  44  40     2.065289717201   111.80092811    67.96485541
 H     50  44  40     2.072964810854   110.82133169   307.29613312

---------------------
BASIS SET INFORMATION
---------------------
There are 3 groups of distinct atoms

 Group   1 Type C   : 8s5p1d contracted to 3s3p1d pattern {521/311/1}
 Group   2 Type H   : 4s2p contracted to 2s1p pattern {31/2}
 Group   3 Type O   : 8s5p1d contracted to 3s3p1d pattern {521/311/1}

Atom   0C    basis set group =>   1
Atom   1C    basis set group =>   1
Atom   2C    basis set group =>   1
Atom   3H    basis set group =>   2
Atom   4H    basis set group =>   2
Atom   5C    basis set group =>   1
Atom   6C    basis set group =>   1
Atom   7C    basis set group =>   1
Atom   8H    basis set group =>   2
Atom   9H    basis set group =>   2
Atom  10H    basis set group =>   2
Atom  11H    basis set group =>   2
Atom  12O    basis set group =>   3
Atom  13H    basis set group =>   2
Atom  14C    basis set group =>   1
Atom  15C    basis set group =>   1
Atom  16H    basis set group =>   2
Atom  17H    basis set group =>   2
Atom  18C    basis set group =>   1
Atom  19H    basis set group =>   2
Atom  20C    basis set group =>   1
Atom  21H    basis set group =>   2
Atom  22C    basis set group =>   1
Atom  23C    basis set group =>   1
Atom  24H    basis set group =>   2
Atom  25H    basis set group =>   2
Atom  26C    basis set group =>   1
Atom  27H    basis set group =>   2
Atom  28H    basis set group =>   2
Atom  29C    basis set group =>   1
Atom  30H    basis set group =>   2
Atom  31H    basis set group =>   2
Atom  32C    basis set group =>   1
Atom  33H    basis set group =>   2
Atom  34C    basis set group =>   1
Atom  35H    basis set group =>   2
Atom  36C    basis set group =>   1
Atom  37H    basis set group =>   2
Atom  38H    basis set group =>   2
Atom  39C    basis set group =>   1
Atom  40H    basis set group =>   2
Atom  41H    basis set group =>   2
Atom  42H    basis set group =>   2
Atom  43C    basis set group =>   1
Atom  44C    basis set group =>   1
Atom  45H    basis set group =>   2
Atom  46H    basis set group =>   2
Atom  47H    basis set group =>   2
Atom  48H    basis set group =>   2
Atom  49C    basis set group =>   1
Atom  50C    basis set group =>   1
Atom  51C    basis set group =>   1
Atom  52H    basis set group =>   2
Atom  53H    basis set group =>   2
Atom  54C    basis set group =>   1
Atom  55C    basis set group =>   1
Atom  56C    basis set group =>   1
Atom  57H    basis set group =>   2
Atom  58H    basis set group =>   2
Atom  59C    basis set group =>   1
Atom  60C    basis set group =>   1
Atom  61H    basis set group =>   2
Atom  62H    basis set group =>   2
Atom  63H    basis set group =>   2
Atom  64H    basis set group =>   2
Atom  65H    basis set group =>   2
Atom  66H    basis set group =>   2
Atom  67H    basis set group =>   2
Atom  68H    basis set group =>   2
Atom  69H    basis set group =>   2
Atom  70H    basis set group =>   2
Atom  71H    basis set group =>   2
Atom  72H    basis set group =>   2

-------------------------
BASIS SET IN INPUT FORMAT
-------------------------

 # Basis set for element : H 
 NewGTO H 
 S 3 
   1      12.2518000000      0.0372173893
   2       1.8687100000      0.2538082070
   3       0.4182080000      0.7973867639
 S 1 
   1       0.1061000000      1.0000000000
 P 2 
   1       9.0000000000      0.0402678705
   2       1.0000000000      0.9880231245
  end;

 # Basis set for element : C 
 NewGTO C 
 S 5 
   1    1243.2000000000      0.0056300977
   2     187.1450000000      0.0419506039
   3      42.5126000000      0.1846643605
   4      11.7393000000      0.4665574214
   5       3.5054800000      0.4482347783
 S 2 
   1       5.3908900000     -0.1481148174
   2       0.4933410000      1.0519817143
 S 1 
   1       0.1497410000      1.0000000000
 P 3 
   1      59.6736000000      0.0113906672
   2       9.1805600000      0.1672414929
   3       1.9365800000      0.9041087436
 P 1 
   1       0.5262960000      1.0000000000
 P 1 
   1       0.1363190000      1.0000000000
 D 1 
   1       0.8000000000      1.0000000000
  end;

 # Basis set for element : O 
 NewGTO O 
 S 5 
   1    2288.6400000000      0.0054511382
   2     344.4160000000      0.0407189228
   3      78.2538000000      0.1813694209
   4      21.7195000000      0.4655368202
   5       6.5590700000      0.4512113212
 S 2 
   1      10.4656000000     -0.1502112012
   2       0.9643510000      1.0528679834
 S 1 
   1       0.2851270000      1.0000000000
 P 3 
   1     110.8840000000      0.0113058003
   2      17.0590000000      0.1699226452
   3       3.6899900000      0.9008060328
 P 1 
   1       0.9929960000      1.0000000000
 P 1 
   1       0.2449240000      1.0000000000
 D 1 
   1       1.0000000000      1.0000000000
  end;

---------------------------------
AUXILIARY/J BASIS SET INFORMATION
---------------------------------
There are 3 groups of distinct atoms

 Group   1 Type C   : 12s5p4d2f1g contracted to 6s4p3d1f1g pattern {711111/2111/211/2/1}
 Group   2 Type H   : 5s2p1d contracted to 3s1p1d pattern {311/2/1}
 Group   3 Type O   : 12s5p4d2f1g contracted to 6s4p3d1f1g pattern {711111/2111/211/2/1}

Atom   0C    basis set group =>   1
Atom   1C    basis set group =>   1
Atom   2C    basis set group =>   1
Atom   3H    basis set group =>   2
Atom   4H    basis set group =>   2
Atom   5C    basis set group =>   1
Atom   6C    basis set group =>   1
Atom   7C    basis set group =>   1
Atom   8H    basis set group =>   2
Atom   9H    basis set group =>   2
Atom  10H    basis set group =>   2
Atom  11H    basis set group =>   2
Atom  12O    basis set group =>   3
Atom  13H    basis set group =>   2
Atom  14C    basis set group =>   1
Atom  15C    basis set group =>   1
Atom  16H    basis set group =>   2
Atom  17H    basis set group =>   2
Atom  18C    basis set group =>   1
Atom  19H    basis set group =>   2
Atom  20C    basis set group =>   1
Atom  21H    basis set group =>   2
Atom  22C    basis set group =>   1
Atom  23C    basis set group =>   1
Atom  24H    basis set group =>   2
Atom  25H    basis set group =>   2
Atom  26C    basis set group =>   1
Atom  27H    basis set group =>   2
Atom  28H    basis set group =>   2
Atom  29C    basis set group =>   1
Atom  30H    basis set group =>   2
Atom  31H    basis set group =>   2
Atom  32C    basis set group =>   1
Atom  33H    basis set group =>   2
Atom  34C    basis set group =>   1
Atom  35H    basis set group =>   2
Atom  36C    basis set group =>   1
Atom  37H    basis set group =>   2
Atom  38H    basis set group =>   2
Atom  39C    basis set group =>   1
Atom  40H    basis set group =>   2
Atom  41H    basis set group =>   2
Atom  42H    basis set group =>   2
Atom  43C    basis set group =>   1
Atom  44C    basis set group =>   1
Atom  45H    basis set group =>   2
Atom  46H    basis set group =>   2
Atom  47H    basis set group =>   2
Atom  48H    basis set group =>   2
Atom  49C    basis set group =>   1
Atom  50C    basis set group =>   1
Atom  51C    basis set group =>   1
Atom  52H    basis set group =>   2
Atom  53H    basis set group =>   2
Atom  54C    basis set group =>   1
Atom  55C    basis set group =>   1
Atom  56C    basis set group =>   1
Atom  57H    basis set group =>   2
Atom  58H    basis set group =>   2
Atom  59C    basis set group =>   1
Atom  60C    basis set group =>   1
Atom  61H    basis set group =>   2
Atom  62H    basis set group =>   2
Atom  63H    basis set group =>   2
Atom  64H    basis set group =>   2
Atom  65H    basis set group =>   2
Atom  66H    basis set group =>   2
Atom  67H    basis set group =>   2
Atom  68H    basis set group =>   2
Atom  69H    basis set group =>   2
Atom  70H    basis set group =>   2
Atom  71H    basis set group =>   2
Atom  72H    basis set group =>   2

-------------------------------------
AUXILIARY/J BASIS SET IN INPUT FORMAT
-------------------------------------

 # Auxiliary/J basis set for element : H 
 NewAuxJGTO H 
 S 3 
   1      15.6752927000      0.1007184237
   2       3.6063578000      0.3404257499
   3       1.2080016000      0.6491996172
 S 1 
   1       0.4726794000      1.0000000000
 S 1 
   1       0.2018100000      1.0000000000
 P 2 
   1       2.0281365000      0.5596620919
   2       0.5358730000      0.5596620919
 D 1 
   1       2.2165124000      1.0000000000
  end;

 # Auxiliary/J basis set for element : C 
 NewAuxJGTO C 
 S 7 
   1    1861.0916331000      0.0134602335
   2     642.9939764000      0.0299160374
   3     235.1105725000      0.1008649584
   4      90.7028894000      0.2370970548
   5      36.7794552000      0.3924037254
   6      15.6046273000      0.3195862154
   7       6.8907294000      0.0530104441
 S 1 
   1       3.1478850000     -1.0000000000
 S 1 
   1       1.4777287000      1.0000000000
 S 1 
   1       0.7076466000      1.0000000000
 S 1 
   1       0.3430122000      1.0000000000
 S 1 
   1       0.1669453000      1.0000000000
 P 2 
   1      13.5472892000     -0.6769313712
   2       5.4669419000     -0.3779500978
 P 1 
   1       2.1751721000      1.0000000000
 P 1 
   1       0.8582194000      1.0000000000
 P 1 
   1       0.3376720000      1.0000000000
 D 2 
   1       5.9287253000     -0.3533329857
   2       1.9809209000     -0.7456525731
 D 1 
   1       0.8055417000     -1.0000000000
 D 1 
   1       0.3531244000     -1.0000000000
 F 2 
   1       1.6755626000      0.6311076882
   2       0.5997536000      0.4968166032
 G 1 
   1       1.0024600000     -1.0000000000
  end;

 # Auxiliary/J basis set for element : O 
 NewAuxJGTO O 
 S 7 
   1    2876.8216605000      0.0168151159
   2    1004.7443032000      0.0340137548
   3     369.7579954000      0.1194951309
   4     142.9442404000      0.2664627624
   5      57.8366425000      0.4202764046
   6      24.3864983000      0.2765077335
   7      10.6622662000      0.0057008815
 S 1 
   1       4.8070437000     -1.0000000000
 S 1 
   1       2.2210770000      1.0000000000
 S 1 
   1       1.0447795000      1.0000000000
 S 1 
   1       0.4968425000      1.0000000000
 S 1 
   1       0.2371384000      1.0000000000
 P 2 
   1      64.2613382000     -0.2731534179
   2      16.3006076000     -0.8168011598
 P 1 
   1       4.3550542000      1.0000000000
 P 1 
   1       1.2019554000      1.0000000000
 P 1 
   1       0.3354196000      1.0000000000
 D 2 
   1       9.2146611000     -0.4661230638
   2       2.8435251000     -0.6600908911
 D 1 
   1       0.9955759000     -1.0000000000
 D 1 
   1       0.3649441000     -1.0000000000
 F 2 
   1       2.6420115000      0.5931563945
   2       0.7345613000      0.5931563945
 G 1 
   1       1.3931000000     -1.0000000000
  end;



           ************************************************************
           *        Program running with 4 parallel MPI-processes     *
           *              working on a common directory               *
           ************************************************************
------------------------------------------------------------------------------
                           ORCA GTO INTEGRAL CALCULATION
                           -- RI-GTO INTEGRALS CHOSEN --
------------------------------------------------------------------------------
------------------------------------------------------------------------------
                   ___                                                        
                  /   \      - P O W E R E D   B Y -                         
                 /     \                                                     
                 |  |  |   _    _      __       _____    __    __             
                 |  |  |  | |  | |    /  \     |  _  \  |  |  /  |          
                  \  \/   | |  | |   /    \    | | | |  |  | /  /          
                 / \  \   | |__| |  /  /\  \   | |_| |  |  |/  /          
                |  |  |   |  __  | /  /__\  \  |    /   |      \           
                |  |  |   | |  | | |   __   |  |    \   |  |\   \          
                \     /   | |  | | |  |  |  |  | |\  \  |  | \   \       
                 \___/    |_|  |_| |__|  |__|  |_| \__\ |__|  \__/        
                                                                              
                      - O R C A' S   B I G   F R I E N D -                    
                                      &                                       
                       - I N T E G R A L  F E E D E R -                       
                                                                              
 v1 FN, 2020, v2 2021                                                         
------------------------------------------------------------------------------


Reading SHARK input file inpS.SHARKINP.tmp ... ok
----------------------
SHARK INTEGRAL PACKAGE
----------------------

Number of atoms                             ...     73
Number of basis functions                   ...    713
Number of shells                            ...    335
Maximum angular momentum                    ...      2
Integral batch strategy                     ... SHARK/LIBINT Hybrid
RI-J (if used) integral strategy            ... SPLIT-RIJ (Revised 2003 algorithm where possible)
Printlevel                                  ...      1
Contraction scheme used                     ... SEGMENTED contraction
Coulomb Range Separation                    ... NOT USED
Exchange Range Separation                   ... NOT USED
Finite Nucleus Model                        ... NOT USED
Auxiliary Coulomb fitting basis             ... AVAILABLE
   # of basis functions in Aux-J            ...   1905
   # of shells in Aux-J                     ...    655
   Maximum angular momentum in Aux-J        ...      4
Auxiliary J/K fitting basis                 ... NOT available
Auxiliary Correlation fitting basis         ... NOT available
Auxiliary 'external' fitting basis          ... NOT available
Integral threshold                          ...     3.000000e-11
Primitive cut-off                           ...     1.000000e-12
Primitive pair pre-selection threshold      ...     1.000000e-12

Calculating pre-screening integrals         ... done (  0.0 sec) Dimension = 335
Organizing shell pair data                  ... done (  0.2 sec)
Shell pair information
Total number of shell pairs                 ...     56280
Shell pairs after pre-screening             ...     31578
Total number of primitive shell pairs       ...    225367
Primitive shell pairs kept                  ...     74205
          la=0 lb=0:   9673 shell pairs
          la=1 lb=0:  12986 shell pairs
          la=1 lb=1:   4225 shell pairs
          la=2 lb=0:   2754 shell pairs
          la=2 lb=1:   1745 shell pairs
          la=2 lb=2:    195 shell pairs

Calculating one electron integrals          ... done (  0.1 sec)
Calculating RI/J V-Matrix + Cholesky decomp.... done (  0.1 sec)
Calculating Nuclear repulsion               ... done (  0.0 sec) ENN=   2774.087464780472 Eh

SHARK setup successfully completed in   0.6 seconds

Maximum memory used throughout the entire GTOINT-calculation: 61.1 MB


           ************************************************************
           *        Program running with 4 parallel MPI-processes     *
           *              working on a common directory               *
           ************************************************************
-------------------------------------------------------------------------------
                                 ORCA SCF
-------------------------------------------------------------------------------

------------
SCF SETTINGS
------------
Hamiltonian:
 Density Functional     Method          .... DFT(GTOs)
 Exchange Functional    Exchange        .... revTPSS
 Correlation Functional Correlation     .... revTPSS
 LDA part of GGA corr.  LDAOpt          .... PW91-LDA
 Gradients option       PostSCFGGA      .... off
   Density functional embedding theory  .... OFF
 RI-approximation to the Coulomb term is turned on
   Number of AuxJ basis functions       .... 1905


General Settings:
 Integral files         IntName         .... inpS
 Hartree-Fock type      HFTyp           .... RHF
 Total Charge           Charge          ....    0
 Multiplicity           Mult            ....    1
 Number of Electrons    NEL             ....  220
 Basis Dimension        Dim             ....  713
 Nuclear Repulsion      ENuc            ....   2774.0874647805 Eh

Convergence Acceleration:
 DIIS                   CNVDIIS         .... on
   Start iteration      DIISMaxIt       ....    12
   Startup error        DIISStart       ....  0.200000
   # of expansion vecs  DIISMaxEq       ....     5
   Bias factor          DIISBfac        ....   1.050
   Max. coefficient     DIISMaxC        ....  10.000
 Trust-Rad. Augm. Hess. CNVTRAH         .... auto
   Auto Start mean grad. ratio tolernc. ....  1.125000
   Auto Start start iteration           ....    20
   Auto Start num. interpolation iter.  ....    10
   Max. Number of Micro iterations      ....    16
   Max. Number of Macro iterations      .... Maxiter - #DIIS iter
   Number of Davidson start vectors     ....     2
   Converg. threshold I  (grad. norm)   ....   1.000e-04
   Converg. threshold II (energy diff.) ....   1.000e-07
   Grad. Scal. Fac. for Micro threshold ....   0.100
   Minimum threshold for Micro iter.    ....   0.010
   NR start threshold (gradient norm)   ....   0.001
   Initial trust radius                 ....   0.400
   Minimum AH scaling param. (alpha)    ....   1.000
   Maximum AH scaling param. (alpha)    .... 1000.000
   Orbital update algorithm             .... Taylor
   White noise on init. David. guess    .... on
   Maximum white noise                  ....   0.010
   Quad. conv. algorithm                .... NR
 SOSCF                  CNVSOSCF        .... off
 Level Shifting         CNVShift        .... on
   Level shift para.    LevelShift      ....    0.2500
   Turn off err/grad.   ShiftErr        ....    0.0010
 Zerner damping         CNVZerner       .... off
 Static damping         CNVDamp         .... on
   Fraction old density DampFac         ....    0.7000
   Max. Damping (<1)    DampMax         ....    0.9800
   Min. Damping (>=0)   DampMin         ....    0.0000
   Turn off err/grad.   DampErr         ....    0.1000
 Fernandez-Rico         CNVRico         .... off

SCF Procedure:
 Maximum # iterations   MaxIter         ....   125
 SCF integral mode      SCFMode         .... Direct
   Integral package                     .... SHARK and LIBINT hybrid scheme
 Reset frequency        DirectResetFreq ....    20
 Integral Threshold     Thresh          ....  3.000e-11 Eh
 Primitive CutOff       TCut            ....  1.000e-12 Eh

Convergence Tolerance:
 Convergence Check Mode ConvCheckMode   .... Total+1el-Energy
 Convergence forced     ConvForced      .... 0
 Energy Change          TolE            ....  1.000e-07 Eh
 1-El. energy change                    ....  1.000e-04 Eh
 DIIS Error             TolErr          ....  1.000e-07


Diagonalization of the overlap matrix:
Smallest eigenvalue                        ... 5.039e-04
Time for diagonalization                   ...    0.065 sec
Threshold for overlap eigenvalues          ... 1.000e-08
Number of eigenvalues below threshold      ... 0
Time for construction of square roots      ...    0.075 sec
Total time needed                          ...    0.141 sec

Time for model grid setup =    0.966 sec

------------------------------
INITIAL GUESS: MODEL POTENTIAL
------------------------------
Loading Hartree-Fock densities                     ... done
Calculating cut-offs                               ... done
Initializing the effective Hamiltonian             ... done
Setting up the integral package (SHARK)            ... done
Starting the Coulomb interaction                   ... done (   1.0 sec)
Reading the grid                                   ... done
Mapping shells                                     ... done
Starting the XC term evaluation                    ... done (   0.3 sec)
  promolecular density results
     # of electrons  =    219.979475789
     EX              =   -164.430413372
     EC              =     -7.324265277
     EX+EC           =   -171.754678649
Transforming the Hamiltonian                       ... done (   0.0 sec)
Diagonalizing the Hamiltonian                      ... done (   0.1 sec)
Back transforming the eigenvectors                 ... done (   0.0 sec)
Now organizing SCF variables                       ... done
                      ------------------
                      INITIAL GUESS DONE (   2.4 sec)
                      ------------------
-------------------
DFT GRID GENERATION
-------------------

General Integration Accuracy     IntAcc      ... 4.388
Radial Grid Type                 RadialGrid  ... OptM3 with GC (2021)
Angular Grid (max. ang.)         AngularGrid ... 4 (Lebedev-302)
Angular grid pruning method      GridPruning ... 4 (adaptive)
Weight generation scheme         WeightScheme... Becke
Basis function cutoff            BFCut       ... 1.0000e-11
Integration weight cutoff        WCut        ... 1.0000e-14
Angular grids for H and He will be reduced by one unit
Partially contracted basis set               ... off
Rotationally invariant grid construction     ... off

Total number of grid points                  ...   309936
Total number of batches                      ...     4880
Average number of points per batch           ...       63
Average number of grid points per atom       ...     4246
Time for grid setup =    3.069 sec


--------------------
CPCM SOLVATION MODEL
--------------------
CPCM parameters:
  Epsilon                                         ...       4.9000
  Refrac                                          ...       1.4500
  Rsolv                                           ...       1.3000
  Surface type                                    ... GAUSSIAN VDW
  Epsilon function type                           ...         CPCM
Radii:
 Radius for C  used is    3.8550 Bohr (=   2.0400 Ang.)
 Radius for H  used is    2.4944 Bohr (=   1.3200 Ang.)
 Radius for O  used is    3.4469 Bohr (=   1.8240 Ang.)
Calculating surface                               ...        done! (  0.0s)
GEPOL surface points                              ...         3664
GEPOL Volume                                      ...    3602.8755
GEPOL Surface-area                                ...    1800.5065
Calculating surface distance matrix               ...        done! (  0.1s)
Performing Cholesky decomposition & store         ...        done! (  0.4s)
Overall time for CPCM initialization              ...                 0.6s
--------------
SCF ITERATIONS
--------------
ITER       Energy         Delta-E        Max-DP      RMS-DP      [F,P]     Damp
               ***  Starting incremental Fock matrix formation  ***

  HOMO= 109 E= -1.854 eV LUMO=  7.828 eV gap=   9.682 eV
  0  -1167.5242750177   0.000000000000 0.05261146  0.00082760  0.2614720 0.7000

  HOMO= 109 E= -3.340 eV LUMO=  6.716 eV gap=  10.056 eV
  1  -1167.8970008583  -0.372725840607 0.02891100  0.00061159  0.1018225 0.7000
                               ***Turning on DIIS***

  HOMO= 109 E= -4.317 eV LUMO=  5.825 eV gap=  10.142 eV
  2  -1168.0436307617  -0.146629903395 0.05170394  0.00101030  0.0302990 0.0000

  HOMO= 109 E= -4.947 eV LUMO=  5.232 eV gap=  10.179 eV
  3  -1168.2404069751  -0.196776213366 0.02311699  0.00047016  0.0531406 0.0000

  HOMO= 109 E= -4.984 eV LUMO=  5.195 eV gap=  10.179 eV
  4  -1168.3076668428  -0.067259867695 0.00745334  0.00015273  0.0102799 0.0000

  HOMO= 109 E= -4.935 eV LUMO=  5.251 eV gap=  10.186 eV
  5  -1168.3107687608  -0.003101917961 0.00313740  0.00005701  0.0094238 0.0000

  HOMO= 109 E= -4.916 eV LUMO=  5.268 eV gap=  10.183 eV
  6  -1168.3110448821  -0.000276121339 0.00122726  0.00001930  0.0027871 0.0000

  HOMO= 109 E= -4.917 eV LUMO= -1.537 eV gap=   3.380 eV
  7  -1168.3110644064  -0.000019524314 0.00071289  0.00001175  0.0006065 0.0000

  HOMO= 109 E= -4.916 eV LUMO= -1.535 eV gap=   3.380 eV
  8  -1168.3110675513  -0.000003144842 0.00026881  0.00000287  0.0003777 0.0000

  HOMO= 109 E= -4.914 eV LUMO= -1.533 eV gap=   3.380 eV
  9  -1168.3110681270  -0.000000575737 0.00017426  0.00000159  0.0002798 0.0000

  HOMO= 109 E= -4.914 eV LUMO= -1.534 eV gap=   3.380 eV
 10  -1168.3110684062  -0.000000279206 0.00006278  0.00000070  0.0001058 0.0000

  HOMO= 109 E= -4.914 eV LUMO= -1.534 eV gap=   3.380 eV
 11  -1168.3110684405  -0.000000034338 0.00002758  0.00000028  0.0000332 0.0000

  HOMO= 109 E= -4.914 eV LUMO= -1.534 eV gap=   3.380 eV
 12  -1168.3110684144   0.000000026158 0.00001225  0.00000012  0.0000171 0.0000

  HOMO= 109 E= -4.914 eV LUMO= -1.534 eV gap=   3.380 eV
 13  -1168.3110684406  -0.000000026254 0.00000611  0.00000005  0.0000083 0.0000
                 **** Energy Check signals convergence ****

               *****************************************************
               *                     SUCCESS                       *
               *           SCF CONVERGED AFTER  14 CYCLES          *
               *****************************************************


----------------
TOTAL SCF ENERGY
----------------

Total Energy       :        -1168.31106847 Eh          -31791.36041 eV

Components:
Nuclear Repulsion  :         2774.08746478 Eh           75486.75759 eV
Electronic Energy  :        -3942.39853325 Eh         -107278.11800 eV
One Electron Energy:        -7094.56868639 Eh         -193053.02858 eV
Two Electron Energy:         3152.17015313 Eh           85774.91058 eV
CPCM Dielectric    :           -0.01032260 Eh              -0.28089 eV

Virial components:
Potential Energy   :        -2330.42150924 Eh          -63413.99317 eV
Kinetic Energy     :         1162.11044077 Eh           31622.63276 eV
Virial Ratio       :            2.00533566


DFT components:
N(Alpha)           :      110.000166117329 electrons
N(Beta)            :      110.000166117329 electrons
N(Total)           :      220.000332234658 electrons
E(X)               :     -169.584128181488 Eh       
E(C)               :       -7.441643969550 Eh       
E(XC)              :     -177.025772151038 Eh       
DFET-embed. en.    :        0.000000000000 Eh       
CPCM Solvation Model Properties:
Surface-charge          :           -0.04530891
Charge-correction       :           -0.00002844 Eh              -0.00077 eV
Free-energy (cav+disp)  :  This term is not implemented in the current solvation scheme

---------------
SCF CONVERGENCE
---------------

  Last Energy change         ...   -3.3612e-08  Tolerance :   1.0000e-07
  Last MAX-Density change    ...    2.9355e-06  Tolerance :   1.0000e-05
  Last RMS-Density change    ...    2.8205e-08  Tolerance :   1.0000e-06
  Last DIIS Error            ...    3.3650e-06  Tolerance :   1.0000e-07

             **** THE GBW FILE WAS UPDATED (inpS.gbw) ****
             **** DENSITY inpS.scfp WAS UPDATED ****
             **** ENERGY FILE WAS UPDATED (inpS.en.tmp) ****
             **** THE GBW FILE WAS UPDATED (inpS.gbw) ****
             **** DENSITY inpS.scfp WAS UPDATED ****
----------------
ORBITAL ENERGIES
----------------

  NO   OCC          E(Eh)            E(eV) 
   0   2.0000     -18.905585      -514.4471 
   1   2.0000     -10.057040      -273.6660 
   2   2.0000     -10.015897      -272.5464 
   3   2.0000     -10.013445      -272.4797 
   4   2.0000     -10.013329      -272.4765 
   5   2.0000     -10.011161      -272.4175 
   6   2.0000     -10.010570      -272.4014 
   7   2.0000     -10.010194      -272.3912 
   8   2.0000     -10.009664      -272.3768 
   9   2.0000     -10.009113      -272.3618 
  10   2.0000     -10.008290      -272.3394 
  11   2.0000     -10.007794      -272.3259 
  12   2.0000     -10.006789      -272.2986 
  13   2.0000     -10.006536      -272.2917 
  14   2.0000     -10.005509      -272.2637 
  15   2.0000     -10.005173      -272.2546 
  16   2.0000     -10.004108      -272.2256 
  17   2.0000     -10.001012      -272.1414 
  18   2.0000     -10.000169      -272.1184 
  19   2.0000      -9.999022      -272.0872 
  20   2.0000      -9.998371      -272.0695 
  21   2.0000      -9.998248      -272.0662 
  22   2.0000      -9.997069      -272.0341 
  23   2.0000      -9.996950      -272.0308 
  24   2.0000      -9.996255      -272.0119 
  25   2.0000      -9.996191      -272.0102 
  26   2.0000      -9.995779      -271.9990 
  27   2.0000      -9.995351      -271.9873 
  28   2.0000      -9.994769      -271.9715 
  29   2.0000      -0.955889       -26.0111 
  30   2.0000      -0.806998       -21.9595 
  31   2.0000      -0.790983       -21.5238 
  32   2.0000      -0.770365       -20.9627 
  33   2.0000      -0.756592       -20.5879 
  34   2.0000      -0.734392       -19.9838 
  35   2.0000      -0.727481       -19.7958 
  36   2.0000      -0.708649       -19.2833 
  37   2.0000      -0.708049       -19.2670 
  38   2.0000      -0.694205       -18.8903 
  39   2.0000      -0.675272       -18.3751 
  40   2.0000      -0.657575       -17.8935 
  41   2.0000      -0.653851       -17.7922 
  42   2.0000      -0.634919       -17.2770 
  43   2.0000      -0.627962       -17.0877 
  44   2.0000      -0.622888       -16.9497 
  45   2.0000      -0.616043       -16.7634 
  46   2.0000      -0.590218       -16.0606 
  47   2.0000      -0.588217       -16.0062 
  48   2.0000      -0.555921       -15.1274 
  49   2.0000      -0.548943       -14.9375 
  50   2.0000      -0.547386       -14.8951 
  51   2.0000      -0.534246       -14.5376 
  52   2.0000      -0.526383       -14.3236 
  53   2.0000      -0.517801       -14.0901 
  54   2.0000      -0.491286       -13.3686 
  55   2.0000      -0.483232       -13.1494 
  56   2.0000      -0.472276       -12.8513 
  57   2.0000      -0.463982       -12.6256 
  58   2.0000      -0.451221       -12.2783 
  59   2.0000      -0.441183       -12.0052 
  60   2.0000      -0.433565       -11.7979 
  61   2.0000      -0.426448       -11.6042 
  62   2.0000      -0.415860       -11.3161 
  63   2.0000      -0.414470       -11.2783 
  64   2.0000      -0.412828       -11.2336 
  65   2.0000      -0.408788       -11.1237 
  66   2.0000      -0.403009       -10.9664 
  67   2.0000      -0.397198       -10.8083 
  68   2.0000      -0.395567       -10.7639 
  69   2.0000      -0.390525       -10.6267 
  70   2.0000      -0.389275       -10.5927 
  71   2.0000      -0.384795       -10.4708 
  72   2.0000      -0.377318       -10.2673 
  73   2.0000      -0.371840       -10.1183 
  74   2.0000      -0.369334       -10.0501 
  75   2.0000      -0.364594        -9.9211 
  76   2.0000      -0.357910        -9.7392 
  77   2.0000      -0.357156        -9.7187 
  78   2.0000      -0.352888        -9.6026 
  79   2.0000      -0.350463        -9.5366 
  80   2.0000      -0.346291        -9.4231 
  81   2.0000      -0.344214        -9.3665 
  82   2.0000      -0.341917        -9.3040 
  83   2.0000      -0.337136        -9.1739 
  84   2.0000      -0.333157        -9.0657 
  85   2.0000      -0.329765        -8.9734 
  86   2.0000      -0.324495        -8.8300 
  87   2.0000      -0.320530        -8.7221 
  88   2.0000      -0.317249        -8.6328 
  89   2.0000      -0.313771        -8.5381 
  90   2.0000      -0.308530        -8.3955 
  91   2.0000      -0.307340        -8.3632 
  92   2.0000      -0.300917        -8.1884 
  93   2.0000      -0.293602        -7.9893 
  94   2.0000      -0.289594        -7.8803 
  95   2.0000      -0.287055        -7.8112 
  96   2.0000      -0.284550        -7.7430 
  97   2.0000      -0.283594        -7.7170 
  98   2.0000      -0.281956        -7.6724 
  99   2.0000      -0.278854        -7.5880 
 100   2.0000      -0.276463        -7.5229 
 101   2.0000      -0.275473        -7.4960 
 102   2.0000      -0.269265        -7.3271 
 103   2.0000      -0.267674        -7.2838 
 104   2.0000      -0.260881        -7.0989 
 105   2.0000      -0.248194        -6.7537 
 106   2.0000      -0.233464        -6.3529 
 107   2.0000      -0.227294        -6.1850 
 108   2.0000      -0.212533        -5.7833 
 109   2.0000      -0.180590        -4.9141 
 110   0.0000      -0.056366        -1.5338 
 111   0.0000      -0.013119        -0.3570 
 112   0.0000      -0.005643        -0.1536 
 113   0.0000       0.032369         0.8808 
 114   0.0000       0.038430         1.0457 
 115   0.0000       0.043643         1.1876 
 116   0.0000       0.046674         1.2701 
 117   0.0000       0.048761         1.3268 
 118   0.0000       0.052727         1.4348 
 119   0.0000       0.056289         1.5317 
 120   0.0000       0.059695         1.6244 
 121   0.0000       0.065716         1.7882 
 122   0.0000       0.071145         1.9360 
 123   0.0000       0.073949         2.0123 
 124   0.0000       0.074812         2.0358 
 125   0.0000       0.076488         2.0813 
 126   0.0000       0.082687         2.2500 
 127   0.0000       0.085295         2.3210 
 128   0.0000       0.088904         2.4192 
 129   0.0000       0.094253         2.5648 
 130   0.0000       0.098310         2.6752 
 131   0.0000       0.102145         2.7795 
 132   0.0000       0.105133         2.8608 
 133   0.0000       0.105465         2.8699 
 134   0.0000       0.109518         2.9801 
 135   0.0000       0.112240         3.0542 
 136   0.0000       0.112860         3.0711 
 137   0.0000       0.118433         3.2227 
 138   0.0000       0.121749         3.3129 
 139   0.0000       0.124144         3.3781 
 140   0.0000       0.125299         3.4096 
 141   0.0000       0.129032         3.5111 
 142   0.0000       0.131567         3.5801 
 143   0.0000       0.133164         3.6236 
 144   0.0000       0.136244         3.7074 
 145   0.0000       0.139774         3.8034 
 146   0.0000       0.144333         3.9275 
 147   0.0000       0.144688         3.9372 
 148   0.0000       0.146694         3.9918 
 149   0.0000       0.149967         4.0808 
 150   0.0000       0.151860         4.1323 
 151   0.0000       0.155897         4.2422 
 152   0.0000       0.157239         4.2787 
 153   0.0000       0.163410         4.4466 
 154   0.0000       0.165750         4.5103 
 155   0.0000       0.171424         4.6647 
 156   0.0000       0.175268         4.7693 
 157   0.0000       0.176390         4.7998 
 158   0.0000       0.180491         4.9114 
 159   0.0000       0.186788         5.0828 
 160   0.0000       0.192435         5.2364 
 161   0.0000       0.193837         5.2746 
 162   0.0000       0.197431         5.3724 
 163   0.0000       0.200810         5.4643 
 164   0.0000       0.201149         5.4735 
 165   0.0000       0.204916         5.5761 
 166   0.0000       0.206686         5.6242 
 167   0.0000       0.211714         5.7610 
 168   0.0000       0.214185         5.8283 
 169   0.0000       0.219395         5.9701 
 170   0.0000       0.226908         6.1745 
 171   0.0000       0.227144         6.1809 
 172   0.0000       0.229597         6.2477 
 173   0.0000       0.230800         6.2804 
 174   0.0000       0.236217         6.4278 
 175   0.0000       0.243293         6.6203 
 176   0.0000       0.249255         6.7826 
 177   0.0000       0.256646         6.9837 
 178   0.0000       0.266110         7.2412 
 179   0.0000       0.270340         7.3563 
 180   0.0000       0.272890         7.4257 
 181   0.0000       0.278257         7.5718 
 182   0.0000       0.285080         7.7574 
 183   0.0000       0.294333         8.0092 
 184   0.0000       0.297130         8.0853 
 185   0.0000       0.328733         8.9453 
 186   0.0000       0.332107         9.0371 
 187   0.0000       0.338931         9.2228 
 188   0.0000       0.341097         9.2817 
 189   0.0000       0.352047         9.5797 
 190   0.0000       0.353186         9.6107 
 191   0.0000       0.359907         9.7936 
 192   0.0000       0.362847         9.8736 
 193   0.0000       0.369479        10.0540 
 194   0.0000       0.373764        10.1706 
 195   0.0000       0.380471        10.3532 
 196   0.0000       0.382678        10.4132 
 197   0.0000       0.387040        10.5319 
 198   0.0000       0.395144        10.7524 
 199   0.0000       0.399752        10.8778 
 200   0.0000       0.406367        11.0578 
 201   0.0000       0.409101        11.1322 
 202   0.0000       0.413527        11.2526 
 203   0.0000       0.421484        11.4692 
 204   0.0000       0.425288        11.5727 
 205   0.0000       0.432843        11.7783 
 206   0.0000       0.436852        11.8874 
 207   0.0000       0.437384        11.9018 
 208   0.0000       0.452861        12.3230 
 209   0.0000       0.454658        12.3719 
 210   0.0000       0.458926        12.4880 
 211   0.0000       0.464133        12.6297 
 212   0.0000       0.470684        12.8080 
 213   0.0000       0.474362        12.9080 
 214   0.0000       0.479831        13.0569 
 215   0.0000       0.482685        13.1345 
 216   0.0000       0.486447        13.2369 
 217   0.0000       0.492125        13.3914 
 218   0.0000       0.497001        13.5241 
 219   0.0000       0.503687        13.7060 
 220   0.0000       0.508063        13.8251 
 221   0.0000       0.510291        13.8857 
 222   0.0000       0.517395        14.0790 
 223   0.0000       0.524041        14.2599 
 224   0.0000       0.528964        14.3938 
 225   0.0000       0.532375        14.4867 
 226   0.0000       0.539157        14.6712 
 227   0.0000       0.540947        14.7199 
 228   0.0000       0.544953        14.8289 
 229   0.0000       0.549649        14.9567 
 230   0.0000       0.551010        14.9937 
 231   0.0000       0.555704        15.1215 
 232   0.0000       0.559665        15.2292 
 233   0.0000       0.562925        15.3180 
 234   0.0000       0.565586        15.3904 
 235   0.0000       0.570598        15.5268 
 236   0.0000       0.571896        15.5621 
 237   0.0000       0.574720        15.6389 
 238   0.0000       0.577502        15.7146 
 239   0.0000       0.580205        15.7882 
 240   0.0000       0.581680        15.8283 
 241   0.0000       0.584765        15.9123 
 242   0.0000       0.586859        15.9692 
 243   0.0000       0.590727        16.0745 
 244   0.0000       0.592747        16.1295 
 245   0.0000       0.594331        16.1726 
 246   0.0000       0.596944        16.2437 
 247   0.0000       0.599796        16.3213 
 248   0.0000       0.602588        16.3973 
 249   0.0000       0.606446        16.5022 
 250   0.0000       0.608102        16.5473 
 251   0.0000       0.610379        16.6093 
 252   0.0000       0.614155        16.7120 
 253   0.0000       0.614650        16.7255 
 254   0.0000       0.621678        16.9167 
 255   0.0000       0.622284        16.9332 
 256   0.0000       0.623090        16.9551 
 257   0.0000       0.626743        17.0545 
 258   0.0000       0.628180        17.0936 
 259   0.0000       0.630481        17.1563 
 260   0.0000       0.631838        17.1932 
 261   0.0000       0.634223        17.2581 
 262   0.0000       0.640150        17.4194 
 263   0.0000       0.641098        17.4452 
 264   0.0000       0.642426        17.4813 
 265   0.0000       0.648922        17.6581 
 266   0.0000       0.650725        17.7071 
 267   0.0000       0.651214        17.7204 
 268   0.0000       0.654254        17.8032 
 269   0.0000       0.654868        17.8199 
 270   0.0000       0.660822        17.9819 
 271   0.0000       0.662764        18.0347 
 272   0.0000       0.666252        18.1297 
 273   0.0000       0.667639        18.1674 
 274   0.0000       0.673316        18.3219 
 275   0.0000       0.675266        18.3749 
 276   0.0000       0.679406        18.4876 
 277   0.0000       0.681816        18.5531 
 278   0.0000       0.686385        18.6775 
 279   0.0000       0.689747        18.7690 
 280   0.0000       0.692324        18.8391 
 281   0.0000       0.698463        19.0061 
 282   0.0000       0.699844        19.0437 
 283   0.0000       0.702831        19.1250 
 284   0.0000       0.707974        19.2649 
 285   0.0000       0.713642        19.4192 
 286   0.0000       0.716383        19.4938 
 287   0.0000       0.722072        19.6486 
 288   0.0000       0.726724        19.7752 
 289   0.0000       0.732973        19.9452 
 290   0.0000       0.734138        19.9769 
 291   0.0000       0.743640        20.2355 
 292   0.0000       0.746167        20.3042 
 293   0.0000       0.749106        20.3842 
 294   0.0000       0.755486        20.5578 
 295   0.0000       0.770059        20.9544 
 296   0.0000       0.774910        21.0864 
 297   0.0000       0.779352        21.2072 
 298   0.0000       0.783160        21.3109 
 299   0.0000       0.790504        21.5107 
 300   0.0000       0.795589        21.6491 
 301   0.0000       0.807653        21.9774 
 302   0.0000       0.821592        22.3567 
 303   0.0000       0.834714        22.7137 
 304   0.0000       0.839845        22.8533 
 305   0.0000       0.848484        23.0884 
 306   0.0000       0.856330        23.3019 
 307   0.0000       0.883510        24.0415 
 308   0.0000       0.892359        24.2823 
 309   0.0000       0.915602        24.9148 
 310   0.0000       0.922669        25.1071 
 311   0.0000       0.934452        25.4277 
 312   0.0000       0.939618        25.5683 
 313   0.0000       0.953023        25.9331 
 314   0.0000       0.965115        26.2621 
 315   0.0000       0.973414        26.4879 
 316   0.0000       0.988246        26.8915 
 317   0.0000       1.029933        28.0259 
 318   0.0000       1.033662        28.1274 
 319   0.0000       1.042545        28.3691 
 320   0.0000       1.051344        28.6085 
 321   0.0000       1.064357        28.9626 
 322   0.0000       1.083142        29.4738 
 323   0.0000       1.101227        29.9659 
 324   0.0000       1.124623        30.6026 
 325   0.0000       1.132461        30.8158 
 326   0.0000       1.145076        31.1591 
 327   0.0000       1.150316        31.3017 
 328   0.0000       1.177301        32.0360 
 329   0.0000       1.193439        32.4751 
 330   0.0000       1.198959        32.6253 
 331   0.0000       1.227455        33.4008 
 332   0.0000       1.235434        33.6179 
 333   0.0000       1.247316        33.9412 
 334   0.0000       1.255239        34.1568 
 335   0.0000       1.265402        34.4333 
 336   0.0000       1.276377        34.7320 
 337   0.0000       1.281595        34.8740 
 338   0.0000       1.291336        35.1390 
 339   0.0000       1.321949        35.9721 
 340   0.0000       1.327679        36.1280 
 341   0.0000       1.329181        36.1689 
 342   0.0000       1.341540        36.5052 
 343   0.0000       1.361131        37.0382 
 344   0.0000       1.368950        37.2510 
 345   0.0000       1.380238        37.5582 
 346   0.0000       1.388814        37.7915 
 347   0.0000       1.393409        37.9166 
 348   0.0000       1.404677        38.2232 
 349   0.0000       1.409960        38.3670 
 350   0.0000       1.413758        38.4703 
 351   0.0000       1.427755        38.8512 
 352   0.0000       1.439279        39.1648 
 353   0.0000       1.445048        39.3217 
 354   0.0000       1.456627        39.6368 
 355   0.0000       1.470533        40.0152 
 356   0.0000       1.470917        40.0257 
 357   0.0000       1.479159        40.2500 
 358   0.0000       1.501122        40.8476 
 359   0.0000       1.511585        41.1323 
 360   0.0000       1.515523        41.2395 
 361   0.0000       1.520699        41.3803 
 362   0.0000       1.535762        41.7902 
 363   0.0000       1.539725        41.8980 
 364   0.0000       1.551118        42.2081 
 365   0.0000       1.565262        42.5929 
 366   0.0000       1.568600        42.6838 
 367   0.0000       1.576154        42.8893 
 368   0.0000       1.595789        43.4236 
 369   0.0000       1.600871        43.5619 
 370   0.0000       1.608487        43.7692 
 371   0.0000       1.616027        43.9743 
 372   0.0000       1.624664        44.2094 
 373   0.0000       1.629177        44.3321 
 374   0.0000       1.637708        44.5643 
 375   0.0000       1.653161        44.9848 
 376   0.0000       1.658766        45.1373 
 377   0.0000       1.664760        45.3004 
 378   0.0000       1.675678        45.5975 
 379   0.0000       1.683898        45.8212 
 380   0.0000       1.691835        46.0372 
 381   0.0000       1.696260        46.1576 
 382   0.0000       1.701808        46.3086 
 383   0.0000       1.702611        46.3304 
 384   0.0000       1.707782        46.4711 
 385   0.0000       1.716979        46.7214 
 386   0.0000       1.725504        46.9533 
 387   0.0000       1.729889        47.0727 
 388   0.0000       1.733689        47.1761 
 389   0.0000       1.739635        47.3379 
 390   0.0000       1.745383        47.4943 
 391   0.0000       1.748585        47.5814 
 392   0.0000       1.751465        47.6598 
 393   0.0000       1.762817        47.9687 
 394   0.0000       1.769226        48.1431 
 395   0.0000       1.770291        48.1721 
 396   0.0000       1.779137        48.4128 
 397   0.0000       1.782475        48.5036 
 398   0.0000       1.789293        48.6891 
 399   0.0000       1.791873        48.7593 
 400   0.0000       1.795833        48.8671 
 401   0.0000       1.801594        49.0239 
 402   0.0000       1.803671        49.0804 
 403   0.0000       1.811138        49.2836 
 404   0.0000       1.820590        49.5408 
 405   0.0000       1.821317        49.5606 
 406   0.0000       1.829622        49.7865 
 407   0.0000       1.836467        49.9728 
 408   0.0000       1.842203        50.1289 
 409   0.0000       1.848917        50.3116 
 410   0.0000       1.857078        50.5337 
 411   0.0000       1.862777        50.6887 
 412   0.0000       1.871794        50.9341 
 413   0.0000       1.881284        51.1924 
 414   0.0000       1.891105        51.4596 
 415   0.0000       1.894076        51.5404 
 416   0.0000       1.897274        51.6274 
 417   0.0000       1.905156        51.8419 
 418   0.0000       1.912705        52.0474 
 419   0.0000       1.918607        52.2080 
 420   0.0000       1.925458        52.3944 
 421   0.0000       1.936599        52.6975 
 422   0.0000       1.944609        52.9155 
 423   0.0000       1.945855        52.9494 
 424   0.0000       1.949777        53.0561 
 425   0.0000       1.950392        53.0729 
 426   0.0000       1.967916        53.5497 
 427   0.0000       1.970347        53.6159 
 428   0.0000       1.970712        53.6258 
 429   0.0000       1.979335        53.8604 
 430   0.0000       1.984034        53.9883 
 431   0.0000       1.987702        54.0881 
 432   0.0000       1.989860        54.1468 
 433   0.0000       1.996600        54.3302 
 434   0.0000       1.998816        54.3905 
 435   0.0000       2.003161        54.5088 
 436   0.0000       2.009648        54.6853 
 437   0.0000       2.012503        54.7630 
 438   0.0000       2.017874        54.9091 
 439   0.0000       2.022874        55.0452 
 440   0.0000       2.027379        55.1678 
 441   0.0000       2.034175        55.3527 
 442   0.0000       2.035460        55.3877 
 443   0.0000       2.043621        55.6098 
[...]

 --------------
 Nucleus  47H :
 --------------

Diamagnetic contribution to the shielding tensor (ppm) : 
            31.511          2.458         0.016
            -0.648         49.354        -3.574
             1.078         -2.909        41.756

Paramagnetic contribution to the shielding tensor (ppm): 
            -2.791         -1.855         0.775
             1.489        -16.323         0.156
            -1.089         -0.584        -9.681

Total shielding tensor (ppm): 
            28.721          0.603         0.791
             0.841         33.031        -3.419
            -0.011         -3.494        32.075


 Diagonalized sT*s matrix:
 
 sDSO            34.632           38.678           49.312  iso=      40.874
 sPSO            -6.533           -9.003          -13.259  iso=      -9.598
        ---------------  ---------------  ---------------
 Total           28.099           29.675           36.054  iso=      31.276

 --------------
 Nucleus  48H :
 --------------

Diamagnetic contribution to the shielding tensor (ppm) : 
            37.258         -0.893        -1.501
            -9.373         39.299        -0.507
            -2.460         -1.722        43.518

Paramagnetic contribution to the shielding tensor (ppm): 
            -5.862          2.192         1.401
            11.062        -10.447        -0.650
             1.640         -0.041       -13.801

Total shielding tensor (ppm): 
            31.396          1.299        -0.100
             1.689         28.852        -1.157
            -0.820         -1.763        29.717


 Diagonalized sT*s matrix:
 
 sDSO            42.017           41.792           36.265  iso=      40.025
 sPSO           -14.505          -11.850           -3.755  iso=     -10.037
        ---------------  ---------------  ---------------
 Total           27.512           29.943           32.511  iso=      29.988

 --------------
 Nucleus  52H :
 --------------

Diamagnetic contribution to the shielding tensor (ppm) : 
            40.520         -0.354         3.833
            -0.655         36.535       -15.740
             9.145        -10.052        43.778

Paramagnetic contribution to the shielding tensor (ppm): 
            -9.726          4.328        -3.568
             4.235         -9.138        16.297
            -7.595         11.986       -22.164

Total shielding tensor (ppm): 
            30.794          3.974         0.265
             3.580         27.397         0.557
             1.550          1.933        21.614


 Diagonalized sT*s matrix:
 
 sDSO            47.983           34.323           38.527  iso=      40.278
 sPSO           -26.624           -9.286           -5.118  iso=     -13.676
        ---------------  ---------------  ---------------
 Total           21.359           25.038           33.409  iso=      26.602

 --------------
 Nucleus  53H :
 --------------

Diamagnetic contribution to the shielding tensor (ppm) : 
            37.153         -1.320         3.080
            -4.863         43.024        -8.471
             5.923         -6.666        41.604

Paramagnetic contribution to the shielding tensor (ppm): 
           -10.439          5.177        -3.761
             8.771        -15.178         9.378
            -6.059          7.953       -18.743

Total shielding tensor (ppm): 
            26.714          3.858        -0.681
             3.908         27.846         0.907
            -0.136          1.287        22.860


 Diagonalized sT*s matrix:
 
 sDSO            50.473           34.136           37.172  iso=      40.594
 sPSO           -28.443           -9.988           -5.930  iso=     -14.787
        ---------------  ---------------  ---------------
 Total           22.031           24.148           31.242  iso=      25.807

 --------------
 Nucleus  57H :
 --------------

Diamagnetic contribution to the shielding tensor (ppm) : 
            40.198          3.325        -3.207
            -1.787         21.693       -12.991
            -4.663         -6.312        38.383

Paramagnetic contribution to the shielding tensor (ppm): 
            -8.966         -1.784         0.446
             2.285          6.183        12.470
             2.227          5.174        -6.587

Total shielding tensor (ppm): 
            31.232          1.540        -2.762
             0.498         27.876        -0.520
            -2.436         -1.138        31.796


 Diagonalized sT*s matrix:
 
 sDSO            21.706           33.274           45.294  iso=      33.425
 sPSO             5.881           -4.344          -10.908  iso=      -3.123
        ---------------  ---------------  ---------------
 Total           27.587           28.930           34.386  iso=      30.301

 --------------
 Nucleus  58H :
 --------------

Diamagnetic contribution to the shielding tensor (ppm) : 
            33.711          0.177        -7.391
            13.720         37.873         2.546
            -0.365          2.784        40.008

Paramagnetic contribution to the shielding tensor (ppm): 
            -2.013          1.386         5.180
           -12.018         -8.333        -2.724
            -1.656         -3.255        -8.658

Total shielding tensor (ppm): 
            31.697          1.563        -2.211
             1.702         29.540        -0.178
            -2.021         -0.472        31.350


 Diagonalized sT*s matrix:
 
 sDSO            27.875           41.727           41.990  iso=      37.197
 sPSO             0.527          -11.647           -7.885  iso=      -6.335
        ---------------  ---------------  ---------------
 Total           28.402           30.080           34.105  iso=      30.862

 --------------
 Nucleus  61H :
 --------------

Diamagnetic contribution to the shielding tensor (ppm) : 
            35.524         -5.006         2.427
           -16.552         25.613       -12.874
            -1.409         -5.317        21.885

Paramagnetic contribution to the shielding tensor (ppm): 
            -4.574          1.496        -1.457
            13.693          9.384        14.494
             1.768          6.677         4.610

Total shielding tensor (ppm): 
            30.950         -3.510         0.970
            -2.859         34.997         1.620
             0.360          1.360        26.495


 Diagonalized sT*s matrix:
 
 sDSO            25.629           22.533           34.860  iso=      27.674
 sPSO             0.265            7.173            1.982  iso=       3.140
        ---------------  ---------------  ---------------
 Total           25.894           29.705           36.842  iso=      30.814

 --------------
 Nucleus  62H :
 --------------

Diamagnetic contribution to the shielding tensor (ppm) : 
            34.450          1.724        -1.966
            -3.650         19.608       -12.976
             4.741         -8.339        41.875

Paramagnetic contribution to the shielding tensor (ppm): 
            -4.849         -0.581         1.841
             5.032          9.496        10.299
            -5.220          5.597        -7.963

Total shielding tensor (ppm): 
            29.601          1.143        -0.124
             1.382         29.104        -2.678
            -0.479         -2.742        33.911


 Diagonalized sT*s matrix:
 
 sDSO            19.229           31.393           45.310  iso=      31.978
 sPSO             8.160           -1.411          -10.066  iso=      -1.106
        ---------------  ---------------  ---------------
 Total           27.390           29.982           35.244  iso=      30.872

 --------------
 Nucleus  63H :
 --------------

Diamagnetic contribution to the shielding tensor (ppm) : 
            44.996          7.573         7.363
            -3.342          4.265        -6.892
             1.835         -4.254        27.028

Paramagnetic contribution to the shielding tensor (ppm): 
            -9.852         -6.716        -3.421
             3.977         25.677         6.512
             2.245          4.521        -0.883

Total shielding tensor (ppm): 
            35.143          0.857         3.942
             0.634         29.941        -0.380
             4.080          0.267        26.146


 Diagonalized sT*s matrix:
 
 sDSO            25.397            5.526           45.366  iso=      25.430
 sPSO            -0.799           24.367           -8.627  iso=       4.981
        ---------------  ---------------  ---------------
 Total           24.598           29.893           36.739  iso=      30.410

 --------------
 Nucleus  64H :
 --------------

Diamagnetic contribution to the shielding tensor (ppm) : 
            22.328         -7.855        -3.352
            11.637         50.041         6.491
            -1.545         -1.678        32.711

Paramagnetic contribution to the shielding tensor (ppm): 
             7.238          4.325         3.782
           -14.493        -14.048        -4.930
             2.093          2.626        -5.539

Total shielding tensor (ppm): 
            29.566         -3.530         0.430
            -2.856         35.993         1.561
             0.549          0.948        27.172


 Diagonalized sT*s matrix:
 
 sDSO            33.170           26.404           45.507  iso=      35.027
 sPSO            -6.601            2.356           -8.105  iso=      -4.116
        ---------------  ---------------  ---------------
 Total           26.569           28.760           37.403  iso=      30.911

 --------------
 Nucleus  65H :
 --------------

Diamagnetic contribution to the shielding tensor (ppm) : 
            37.745         -3.257         3.477
            13.699         50.558         0.325
            10.513         -4.703        30.955

Paramagnetic contribution to the shielding tensor (ppm): 
            -3.113          5.760         0.040
           -11.967        -19.848        -1.314
            -6.606          5.226        -5.483

Total shielding tensor (ppm): 
            34.631          2.504         3.516
             1.731         30.711        -0.989
             3.907          0.524        25.472


 Diagonalized sT*s matrix:
 
 sDSO            26.534           47.940           44.783  iso=      39.753
 sPSO            -2.511          -17.729           -8.203  iso=      -9.481
        ---------------  ---------------  ---------------
 Total           24.023           30.211           36.580  iso=      30.271

 --------------
 Nucleus  66H :
 --------------

Diamagnetic contribution to the shielding tensor (ppm) : 
            25.744         -2.117        -5.655
            12.925         38.121        -3.408
            -5.847         -8.741        38.345

Paramagnetic contribution to the shielding tensor (ppm): 
             3.025          2.624         4.786
           -11.792         -7.905        -0.251
             4.625          5.608        -4.143

Total shielding tensor (ppm): 
            28.769          0.507        -0.869
             1.134         30.216        -3.658
            -1.222         -3.133        34.202


 Diagonalized sT*s matrix:
 
 sDSO            29.984           26.597           45.628  iso=      34.070
 sPSO            -1.810            2.042           -9.254  iso=      -3.008
        ---------------  ---------------  ---------------
 Total           28.174           28.640           36.374  iso=      31.062

 --------------
 Nucleus  67H :
 --------------

Diamagnetic contribution to the shielding tensor (ppm) : 
            33.442         12.309        -5.917
            15.989         13.704         0.071
            -6.579         -5.197        25.175

Paramagnetic contribution to the shielding tensor (ppm): 
             0.731         -8.731         3.111
           -12.331         16.376        -1.389
             4.382          4.367         4.049

Total shielding tensor (ppm): 
            34.173          3.579        -2.806
             3.658         30.080        -1.317
            -2.197         -0.830        29.223


 Diagonalized sT*s matrix:
 
 sDSO            10.343           18.722           43.256  iso=      24.107
 sPSO            17.438            9.774           -6.056  iso=       7.052
        ---------------  ---------------  ---------------
 Total           27.780           28.497           37.200  iso=      31.159

 --------------
 Nucleus  68H :
 --------------

Diamagnetic contribution to the shielding tensor (ppm) : 
            31.346          7.481         6.626
             7.745          8.827        -2.736
            12.285          0.427        36.781

Paramagnetic contribution to the shielding tensor (ppm): 
            -0.999         -7.783        -0.556
            -6.632         21.144         2.913
            -6.760         -0.854        -6.052

Total shielding tensor (ppm): 
            30.347         -0.302         6.070
             1.113         29.971         0.177
             5.525         -0.427        30.728


 Diagonalized sT*s matrix:
 
 sDSO            23.433            9.745           43.776  iso=      25.651
 sPSO             1.277           20.248           -7.432  iso=       4.698
        ---------------  ---------------  ---------------
 Total           24.710           29.993           36.343  iso=      30.349

 --------------
 Nucleus  69H :
 --------------

Diamagnetic contribution to the shielding tensor (ppm) : 
            19.835          4.415        -3.320
            20.180         31.002        12.292
             9.421          9.185        23.279

Paramagnetic contribution to the shielding tensor (ppm): 
             8.639         -3.200         4.535
           -19.873          4.481        -7.980
            -8.292         -4.649         5.394

Total shielding tensor (ppm): 
            28.475          1.215         1.215
             0.308         35.483         4.313
             1.129          4.536        28.673


 Diagonalized sT*s matrix:
 
 sDSO            18.253           15.098           40.766  iso=      24.705
 sPSO             7.999           13.466           -2.950  iso=       6.172
        ---------------  ---------------  ---------------
 Total           26.251           28.564           37.815  iso=      30.877

 --------------
 Nucleus  70H :
 --------------

Diamagnetic contribution to the shielding tensor (ppm) : 
            35.154         -8.167        -7.661
           -17.294         26.249         1.982
           -14.430          2.960        32.057

Paramagnetic contribution to the shielding tensor (ppm): 
            -1.420          6.278         2.881
            15.187          3.766         0.841
             9.972         -0.053        -2.991

Total shielding tensor (ppm): 
            33.734         -1.889        -4.780
            -2.107         30.015         2.823
            -4.458          2.908        29.066


 Diagonalized sT*s matrix:
 
 sDSO            26.620           16.632           50.208  iso=      31.154
 sPSO            -0.963           12.623          -12.305  iso=      -0.215
        ---------------  ---------------  ---------------
 Total           25.657           29.255           37.904  iso=      30.939

 --------------
 Nucleus  71H :
 --------------

Diamagnetic contribution to the shielding tensor (ppm) : 
            32.037          1.744         4.938
            -8.579         39.425         9.414
            -2.020          7.622        36.441

Paramagnetic contribution to the shielding tensor (ppm): 
             0.147         -1.042        -4.687
            10.569         -8.542        -4.411
             2.669         -3.134        -8.826

Total shielding tensor (ppm): 
            32.184          0.702         0.252
             1.990         30.883         5.003
             0.649          4.489        27.616


 Diagonalized sT*s matrix:
 
 sDSO            29.682           36.330           41.891  iso=      35.968
 sPSO            -5.474           -4.795           -6.951  iso=      -5.740
        ---------------  ---------------  ---------------
 Total           24.208           31.535           34.940  iso=      30.228

 --------------
 Nucleus  72H :
 --------------

Diamagnetic contribution to the shielding tensor (ppm) : 
            28.268         -7.127         1.318
           -14.215         39.394        -3.355
            -2.415         -7.482        35.799

Paramagnetic contribution to the shielding tensor (ppm): 
             2.255          4.697        -0.647
            12.156         -6.110        -0.185
             2.677          5.173        -6.882

Total shielding tensor (ppm): 
            30.523         -2.430         0.671
            -2.059         33.285        -3.540
             0.261         -2.309        28.917


 Diagonalized sT*s matrix:
 
 sDSO            29.155           26.845           47.461  iso=      34.487
 sPSO            -1.839            2.859          -11.756  iso=      -3.579
        ---------------  ---------------  ---------------
 Total           27.316           29.705           35.705  iso=      30.908



--------------------------------
CHEMICAL SHIELDING SUMMARY (ppm)
--------------------------------


  Nucleus  Element    Isotropic     Anisotropy
  -------  -------  ------------   ------------
      3       H           29.640          5.456 
      4       H           29.136          5.302 
      8       H           29.567          6.470 
      9       H           29.430          7.734 
     10       H           29.634          8.788 
     11       H           30.534          6.243 
     13       H           28.190          2.734 
     16       H           26.864          5.095 
     17       H           26.523          4.974 
     19       H           25.451         10.725 
     21       H           25.721         14.966 
     24       H           28.894          9.932 
     25       H           29.991          9.499 
     27       H           30.215          7.174 
     28       H           30.153         11.814 
     30       H           29.744          8.019 
     31       H           30.400          7.008 
     33       H           29.767          4.194 
     35       H           31.123         14.878 
     37       H           30.409         10.638 
     38       H           30.296          9.192 
     40       H           30.092          9.716 
     41       H           30.518          9.849 
     42       H           30.591          5.090 
     45       H           31.058          8.212 
     46       H           31.302          9.218 
     47       H           31.276          7.167 
     48       H           29.988          3.783 
     52       H           26.602         10.211 
     53       H           25.807          8.153 
     57       H           30.301          6.127 
     58       H           30.862          4.864 
     61       H           30.814          9.042 
     62       H           30.872          6.558 
     63       H           30.410          9.493 
     64       H           30.911          9.738 
     65       H           30.271          9.463 
     66       H           31.062          7.967 
     67       H           31.159          9.061 
     68       H           30.349          8.992 
     69       H           30.877         10.408 
     70       H           30.939         10.448 
     71       H           30.228          7.068 
     72       H           30.908          7.195 



Maximum memory used throughout the entire EPRNMR-calculation: 140.6 MB

Timings for individual modules:

Sum of individual times         ...      141.228 sec (=   2.354 min)
GTO integral calculation        ...        0.787 sec (=   0.013 min)   0.6 %
SCF iterations                  ...       94.196 sec (=   1.570 min)  66.7 %
EPR/NMR calculation             ...       46.244 sec (=   0.771 min)  32.7 %
                             ****ORCA TERMINATED NORMALLY****
TOTAL RUN TIME: 0 days 0 hours 2 minutes 21 seconds 785 msec
