
                                 *****************
                                 * O   R   C   A *
                                 *****************

                                            #,                                       
                                            ###                                      
                                            ####                                     
                                            #####                                    
                                            ######                                   
                                           ########,                                 
                                     ,,################,,,,,                         
                               ,,#################################,,                 
                          ,,##########################################,,             
                       ,#########################################, ''#####,          
                    ,#############################################,,   '####,        
                  ,##################################################,,,,####,       
                ,###########''''           ''''###############################       
              ,#####''   ,,,,##########,,,,          '''####'''          '####       
            ,##' ,,,,###########################,,,                        '##       
           ' ,,###''''                  '''############,,,                           
         ,,##''                                '''############,,,,        ,,,,,,###''
      ,#''                                            '''#######################'''  
     '                                                          ''''####''''         
             ,#######,   #######,   ,#######,      ##                                
            ,#'     '#,  ##    ##  ,#'     '#,    #''#        ,####,   ,####,        
            ##       ##  ##   ,#'  ##            #'  '#       #'       #'  '#        
            ##       ##  #######   ##           ,######,      #####,   #    #        
            '#,     ,#'  ##    ##  '#,     ,#' ,#      #,     #,   #   #,  ,#        
             '#######'   ##     ##  '#######'  #'      '#     '####' # '####'        



                #########################################################
                #                        -***-                          #
                #          Department of theory and spectroscopy        #
                #                                                       #
                #                      Frank Neese                      #
                #                                                       #
                #     Directorship, Architecture, Infrastructure        #
                #                    SHARK, DRIVERS                     #
                #        Core code/Algorithms in most modules           #
                #                                                       #
                #        Max Planck Institute fuer Kohlenforschung      #
                #                Kaiser Wilhelm Platz 1                 #
                #                 D-45470 Muelheim/Ruhr                 #
                #                      Germany                          #
                #                                                       #
                #                  All rights reserved                  #
                #                        -***-                          #
                #########################################################


                         Program Version 6.0.0  -   RELEASE  -


 With contributions from (in alphabetic order):
   Daniel Aravena         : Magnetic Suceptibility
   Michael Atanasov       : Ab Initio Ligand Field Theory (pilot matlab implementation)
   Alexander A. Auer      : GIAO ZORA, VPT2 properties, NMR spectrum
   Ute Becker             : All parallelization in ORCA, NUMFREQ, NUMCALC
   Giovanni Bistoni       : ED, misc. LED, open-shell LED, HFLD
   Martin Brehm           : Molecular dynamics
   Dmytro Bykov           : pre 5.0 version of the SCF Hessian
   Marcos Casanova-Páez   : Triplet and SCS-CIS(D). UHF-(DLPNO)-IP/EA/STEOM-CCSD. UHF-CVS-IP/STEOM-CCSD
   Vijay G. Chilkuri      : MRCI spin determinant printing, contributions to CSF-ICE
   Pauline Colinet        : FMM embedding
   Dipayan Datta          : RHF DLPNO-CCSD density
   Achintya Kumar Dutta   : EOM-CC, STEOM-CC
   Nicolas Foglia         : Exact transition moments, OPA infrastructure, MCD improvements
   Dmitry Ganyushin       : Spin-Orbit,Spin-Spin,Magnetic field MRCI
   Miquel Garcia          : C-PCM and meta-GGA Hessian, CCSD/C-PCM, Gaussian charge scheme
   Tiago L. C. Gouveia    : GS-ROHF, GS-ROCIS
   Yang Guo               : DLPNO-NEVPT2, F12-NEVPT2, CIM, IAO-localization
   Andreas Hansen         : Spin unrestricted coupled pair/coupled cluster methods
   Ingolf Harden          : AUTO-CI MPn and infrastructure 
   Benjamin Helmich-Paris : MC-RPA, TRAH-(SCF,CASSCF), AVAS, COSX integrals, SCF dyn. polar.
   Lee Huntington         : MR-EOM, pCC
   Robert Izsak           : Overlap fitted RIJCOSX, COSX-SCS-MP3, EOM
   Riya Kayal             : Wick's Theorem for AUTO-CI, AUTO-CI UHF-CCSDT
   Emily Kempfer          : AUTO-CI, RHF CISDT and CCSDT
   Christian Kollmar      : KDIIS, OOCD, Brueckner-CCSD(T), CCSD density, CASPT2, CASPT2-K, improved NEVPT2
   Axel Koslowski         : Symmetry handling
   Simone Kossmann        : Meta GGA functionals, TD-DFT gradient, OOMP2, (MP2 Hessian; deprecated post 5.0)
   Lucas Lang             : DCDCAS
   Marvin Lechner         : AUTO-CI (C++ implementation), FIC-MRCC
   Spencer Leger          : CASSCF response
   Dagmar Lenk            : GEPOL surface, SMD, ORCA-2-JSON
   Dimitrios Liakos       : Extrapolation schemes; Compound Job, initial MDCI parallelization
   Dimitrios Manganas     : Further ROCIS development; embedding schemes. LFT, Crystal Embedding
   Dimitrios Pantazis     : SARC Basis sets
   Anastasios Papadopoulos: AUTO-CI, single reference methods and gradients
   Taras Petrenko         : pre 6.0 DFT Hessian and TD-DFT gradient, (ASA, deprecated), ECA, 1-Electron XAS/XES, NRVS
   Peter Pinski           : DLPNO-MP2, DLPNO-MP2 Gradient
   Christoph Reimann      : Effective Core Potentials
   Marius Retegan         : Local ZFS, SOC
   Christoph Riplinger    : Optimizer, TS searches, QM/MM, DLPNO-CCSD(T), (RO)-DLPNO pert. Triples
   Michael Roemelt        : Original ROCIS implementation
   Masaaki Saitow         : Open-shell DLPNO-CCSD energy and density
   Barbara Sandhoefer     : DKH picture change effects
   Kantharuban Sivalingam : CASSCF convergence/infrastructure, NEVPT2 and variants, FIC-MRCI
   Bernardo de Souza      : ESD, SOC TD-DFT
   Georgi Stoychev        : AutoAux, RI-MP2 NMR, DLPNO-MP2 response, X2C
   Van Anh Tran           : RI-MP2 g-tensors
   Willem Van den Heuvel  : Paramagnetic NMR
   Zikuan Wang            : NOTCH, Electric field optimization 
   Frank Wennmohs         : Technical directorship and infrastructure
   Hang Xu                : AUTO-CI-Response properties 


 We gratefully acknowledge several colleagues who have allowed us to
 interface, adapt or use parts of their codes:
   Stefan Grimme, W. Hujo, H. Kruse, P. Pracht,  : VdW corrections, initial TS optimization,
                  C. Bannwarth, S. Ehlert,         DFT functionals, gCP, sTDA/sTD-DF
                  L. Wittmann, M. Mueller
   Ed Valeev, F. Pavosevic, A. Kumar             : LibInt (2-el integral package), F12 methods
   Garnet Chan, S. Sharma, J. Yang, R. Olivares  : DMRG
   Ulf Ekstrom                                   : XCFun DFT Library
   Mihaly Kallay                                 : mrcc  (arbitrary order and MRCC methods)
   Frank Weinhold                                : gennbo (NPA and NBO analysis)
   Simon Mueller                                 : openCOSMO-RS
   Christopher J. Cramer and Donald G. Truhlar   : smd solvation model
   Lars Goerigk                                  : TD-DFT with DH, B97 family of functionals
   V. Asgeirsson, H. Jonsson                     : NEB implementation
   FAccTs GmbH                                   : IRC, NEB, NEB-TS, DLPNO-Multilevel, CI-OPT
                                                   MM, QMMM, 2- and 3-layer-ONIOM, Crystal-QMMM,
                                                   LR-CPCM, SF, NACMEs, symmetry and pop. for TD-DFT,
                                                   nearIR, NL-DFT gradient (VV10), updates on ESD,
                                                   ML-optimized integration grids, MBIS, APM,
                                                   GOAT, DOCKER, SOLVATOR, interface openCOSMO-RS
   S Lehtola, MJT Oliveira, MAL Marques          : LibXC Library
   Liviu Ungur et al                             : ANISO software


 Your calculation uses the libint2 library for the computation of 2-el integrals
 For citations please refer to: http://libint.valeyev.net

 Your ORCA version has been built with support for libXC version: 6.2.2
 For citations please refer to: https://libxc.gitlab.io

 This ORCA versions uses:
   CBLAS   interface :  Fast vector & matrix operations
   LAPACKE interface :  Fast linear algebra routines
   SCALAPACK package :  Parallel linear algebra routines
   Shared memory     :  Shared parallel matrices
   BLAS/LAPACK       :  OpenBLAS 0.3.27  USE64BITINT DYNAMIC_ARCH NO_AFFINITY Zen SINGLE_THREADED
        Core in use  :  Zen
   Copyright (c) 2011-2014, The OpenBLAS Project


NOTE: MaxCore=8000 MB was set to SCF,MP2,MDCI,CIPSI,MRCI and CIS
      => If you want to overwrite this, your respective input block should be placed after the MaxCore statement
Your calculation utilizes the atom-pairwise dispersion correction
based on EEQ partial charges (D4)


================================================================================

----- Orbital basis set information -----
Your calculation utilizes the basis: def2-SVP
   F. Weigend and R. Ahlrichs, Phys. Chem. Chem. Phys. 7, 3297 (2005).

----- AuxJ basis set information -----
Your calculation utilizes the auxiliary basis: def2/J
   F. Weigend, Phys. Chem. Chem. Phys. 8, 1057 (2006).

================================================================================
                                        WARNINGS
                       Please study these warnings very carefully!
================================================================================

WARNING: Old DensityContainer found on disk!
         Will remove this file - 
         If you want to keep old densities, please start your calculation with a different basename. 


================================================================================
                                       INPUT FILE
================================================================================
NAME = inpS
|  1> ! wb97x-d4
|  2> ! def2-svp
|  3> ! def2/J RIJCOSX
|  4> ! DEFGRID2
|  5> ! scfconv7
|  6> ! smallprint printgap noloewdin
|  7> ! NOSOSCF
|  8> %MaxCore 8000
|  9> %output
| 10>        print[P_BondOrder_M] 1
| 11>        print[P_Mayer] 1
| 12>        print[P_basis] 2
| 13> end
| 14> %pal
| 15>     nprocs 4
| 16> end
| 17> ! CPCM(chloroform)
| 18> *xyz 0 1
| 19> C   -4.9852841900   0.2733624900  -0.4785120200
| 20> C   -6.4441276500  -0.0840744500  -0.6404787500
| 21> C   -7.3255570700   0.8727766700   0.1724042200
| 22> H   -6.6259275500  -1.1185482800  -0.3278037600
| 23> H   -6.7352746700   0.0071409800  -1.6974904700
| 24> C   -4.6744229400   1.6866101600  -0.7878744000
| 25> C   -5.5774355200   2.6900688500  -0.1049359800
| 26> C   -7.0603565500   2.3193869200  -0.2479885000
| 27> H   -5.3920123500   3.6952538100  -0.4983353400
| 28> H   -5.3214618800   2.7123158900   0.9653529300
| 29> H   -7.3692813400   2.4365057500  -1.2956993600
| 30> H   -7.6770794200   2.9952074800   0.3557420800
| 31> O   -7.1162771800   0.6823465100   1.5815373300
| 32> H   -8.3819284000   0.6303281700   0.0032557900
| 33> C   -4.0877334800  -0.6333007800  -0.0240606000
| 34> C   -3.7035769600   2.0536859400  -1.6316027700
| 35> H   -3.0765379800   1.3170015300  -2.1268219000
| 36> H   -3.5217551500   3.1027892500  -1.8530205500
| 37> C   -2.6951646900  -0.3819043500   0.2693191000
| 38> H   -4.4692271600  -1.6359394900   0.1651779600
| 39> C   -1.7688217200  -1.3036730300   0.6080397000
| 40> H   -2.3812009600   0.6582179500   0.2163497100
| 41> C   -1.9998987100  -2.7905924500   0.6959797700
| 42> C   -1.0156531100  -3.5654901600  -0.2016470500
| 43> H   -3.0264113800  -3.0682631000   0.4422794200
| 44> H   -1.8284060500  -3.0996473300   1.7392695400
| 45> C    0.4454891600  -3.1613172200   0.0354705000
| 46> H   -1.2824467300  -3.3964369400  -1.2526546900
| 47> H   -1.1328351400  -4.6407653400  -0.0192705000
| 48> C    0.6489305000  -1.6452275000  -0.0948656000
| 49> H    1.0827015900  -3.7118149100  -0.6639645000
| 50> H    0.7451249900  -3.4658354300   1.0496295100
| 51> C   -0.3412727600  -0.9555209900   0.8988145300
| 52> H   -0.1041509600  -1.4041484200   1.8808054000
| 53> C    0.1230041100   0.4968184400   0.9410246300
| 54> H   -6.1639378200   0.5892924100   1.7261473600
| 55> C    1.6631220900   0.3907827500   0.8208312800
| 56> H   -0.1982327500   1.0046954600   1.8563268500
| 57> H   -0.2875367300   1.0621451600   0.0971073800
| 58> C    1.9953893700  -1.0861661400   0.4452354500
| 59> H    2.1612256600   0.6740957600   1.7533630000
| 60> H    2.0350332400   1.0720267900   0.0459956300
| 61> H    2.2189350000  -1.6401822500   1.3714555700
| 62> C    3.2569648000  -1.1898117200  -0.4470458200
| 63> C    0.3973820800  -1.1728844300  -1.5337486300
| 64> H    0.6494039500  -0.1151649600  -1.6607244000
| 65> H   -0.6528426700  -1.2935227400  -1.8170380600
| 66> H    1.0049390500  -1.7461027500  -2.2424484100
| 67> H    3.0530001000  -0.5981751900  -1.3552323900
| 68> C    3.5847491400  -2.6193502500  -0.8731728800
| 69> C    4.4041490000  -0.5069915700   0.2622407200
| 70> C    5.5178283100  -1.0878420700   0.7110139200
| 71> H    4.2624833300   0.5599502100   0.4270763800
| 72> H    5.6553802900  -2.1585592600   0.5489470800
| 73> C    6.6693265400  -0.4369786900   1.4418446100
| 74> C    7.0442682500  -1.3035955900   2.6566462700
| 75> C    6.4595256300   1.0500315600   1.7985470100
| 76> H    7.5305022200  -0.4741354600   0.7521812200
| 77> H    6.0574454000   1.5387421200   0.8993692500
| 78> C    7.7869324200   1.7433611000   2.1213103200
| 79> C    5.4617799600   1.2587162300   2.9428374300
| 80> H    6.2055393300  -1.3823155000   3.3563939900
| 81> H    7.9044227000  -0.8927868000   3.1946793100
| 82> H    7.3046483300  -2.3174165600   2.3340953300
| 83> H    8.5047972200   1.6308356600   1.3007936000
| 84> H    8.2429487200   1.3337521600   3.0300630300
| 85> H    7.6295057500   2.8148597900   2.2885554000
| 86> H    4.5370915800   0.6942211800   2.7870171700
| 87> H    5.2023511200   2.3193011700   3.0354871900
| 88> H    5.8939597300   0.9403360100   3.8986272400
| 89> H    2.8231416000  -3.0122314200  -1.5494256400
| 90> H    3.6469279100  -3.2905542000  -0.0082618700
| 91> H    4.5447211200  -2.6546935200  -1.3994828800
| 92> *
| 93> %eprnmr
| 94>  Nuclei = all C { shift }
| 95>  origin giao
| 96>  giao_2el giao_2el_same_as_scf
| 97>  giao_1el giao_1el_analytic
| 98> end
| 99> 
|100>                          ****END OF INPUT****
================================================================================

                       ****************************
                       * Single Point Calculation *
                       ****************************

---------------------------------
CARTESIAN COORDINATES (ANGSTROEM)
---------------------------------
  C     -4.985284    0.273362   -0.478512
  C     -6.444128   -0.084074   -0.640479
  C     -7.325557    0.872777    0.172404
  H     -6.625928   -1.118548   -0.327804
  H     -6.735275    0.007141   -1.697490
  C     -4.674423    1.686610   -0.787874
  C     -5.577436    2.690069   -0.104936
  C     -7.060357    2.319387   -0.247989
  H     -5.392012    3.695254   -0.498335
  H     -5.321462    2.712316    0.965353
  H     -7.369281    2.436506   -1.295699
  H     -7.677079    2.995207    0.355742
  O     -7.116277    0.682347    1.581537
  H     -8.381928    0.630328    0.003256
  C     -4.087733   -0.633301   -0.024061
  C     -3.703577    2.053686   -1.631603
  H     -3.076538    1.317002   -2.126822
  H     -3.521755    3.102789   -1.853021
  C     -2.695165   -0.381904    0.269319
  H     -4.469227   -1.635939    0.165178
  C     -1.768822   -1.303673    0.608040
  H     -2.381201    0.658218    0.216350
  C     -1.999899   -2.790592    0.695980
  C     -1.015653   -3.565490   -0.201647
  H     -3.026411   -3.068263    0.442279
  H     -1.828406   -3.099647    1.739270
  C      0.445489   -3.161317    0.035471
  H     -1.282447   -3.396437   -1.252655
  H     -1.132835   -4.640765   -0.019270
  C      0.648930   -1.645227   -0.094866
  H      1.082702   -3.711815   -0.663964
  H      0.745125   -3.465835    1.049630
  C     -0.341273   -0.955521    0.898815
  H     -0.104151   -1.404148    1.880805
  C      0.123004    0.496818    0.941025
  H     -6.163938    0.589292    1.726147
  C      1.663122    0.390783    0.820831
  H     -0.198233    1.004695    1.856327
  H     -0.287537    1.062145    0.097107
  C      1.995389   -1.086166    0.445235
  H      2.161226    0.674096    1.753363
  H      2.035033    1.072027    0.045996
  H      2.218935   -1.640182    1.371456
  C      3.256965   -1.189812   -0.447046
  C      0.397382   -1.172884   -1.533749
  H      0.649404   -0.115165   -1.660724
  H     -0.652843   -1.293523   -1.817038
  H      1.004939   -1.746103   -2.242448
  H      3.053000   -0.598175   -1.355232
  C      3.584749   -2.619350   -0.873173
  C      4.404149   -0.506992    0.262241
  C      5.517828   -1.087842    0.711014
  H      4.262483    0.559950    0.427076
  H      5.655380   -2.158559    0.548947
  C      6.669327   -0.436979    1.441845
  C      7.044268   -1.303596    2.656646
  C      6.459526    1.050032    1.798547
  H      7.530502   -0.474135    0.752181
  H      6.057445    1.538742    0.899369
  C      7.786932    1.743361    2.121310
  C      5.461780    1.258716    2.942837
  H      6.205539   -1.382316    3.356394
  H      7.904423   -0.892787    3.194679
  H      7.304648   -2.317417    2.334095
  H      8.504797    1.630836    1.300794
  H      8.242949    1.333752    3.030063
  H      7.629506    2.814860    2.288555
  H      4.537092    0.694221    2.787017
  H      5.202351    2.319301    3.035487
  H      5.893960    0.940336    3.898627
  H      2.823142   -3.012231   -1.549426
  H      3.646928   -3.290554   -0.008262
  H      4.544721   -2.654694   -1.399483

----------------------------
CARTESIAN COORDINATES (A.U.)
----------------------------
  NO LB      ZA    FRAG     MASS         X           Y           Z
   0 C     6.0000    0    12.011   -9.420822    0.516580   -0.904257
   1 C     6.0000    0    12.011  -12.177636   -0.158878   -1.210329
   2 C     6.0000    0    12.011  -13.843297    1.649309    0.325797
   3 H     1.0000    0     1.008  -12.521188   -2.113750   -0.619459
   4 H     1.0000    0     1.008  -12.727825    0.013494   -3.207792
   5 C     6.0000    0    12.011   -8.833379    3.187231   -1.488867
   6 C     6.0000    0    12.011  -10.539826    5.083493   -0.198300
   7 C     6.0000    0    12.011  -13.342140    4.383006   -0.468630
   8 H     1.0000    0     1.008  -10.189427    6.983018   -0.941717
   9 H     1.0000    0     1.008  -10.056106    5.125534    1.824253
  10 H     1.0000    0     1.008  -13.925924    4.604329   -2.448517
  11 H     1.0000    0     1.008  -14.507578    5.660122    0.672255
  12 O     8.0000    0    15.999  -13.447815    1.289448    2.988672
  13 H     1.0000    0     1.008  -15.839549    1.191148    0.006153
  14 C     6.0000    0    12.011   -7.724697   -1.196765   -0.045468
  15 C     6.0000    0    12.011   -6.998746    3.880904   -3.083282
  16 H     1.0000    0     1.008   -5.813814    2.488772   -4.019111
  17 H     1.0000    0     1.008   -6.655153    5.863422   -3.501701
  18 C     6.0000    0    12.011   -5.093123   -0.721695    0.508939
  19 H     1.0000    0     1.008   -8.445615   -3.091478    0.312141
  20 C     6.0000    0    12.011   -3.342589   -2.463585    1.149029
  21 H     1.0000    0     1.008   -4.499818    1.243852    0.408842
  22 C     6.0000    0    12.011   -3.779261   -5.273455    1.315211
  23 C     6.0000    0    12.011   -1.919306   -6.737800   -0.381058
  24 H     1.0000    0     1.008   -5.719089   -5.798177    0.835787
  25 H     1.0000    0     1.008   -3.455187   -5.857485    3.286743
  26 C     6.0000    0    12.011    0.841853   -5.974024    0.067030
  27 H     1.0000    0     1.008   -2.423473   -6.418336   -2.367174
  28 H     1.0000    0     1.008   -2.140748   -8.769776   -0.036416
  29 C     6.0000    0    12.011    1.226301   -3.109029   -0.179270
  30 H     1.0000    0     1.008    2.046009   -7.014314   -1.254711
  31 H     1.0000    0     1.008    1.408082   -6.549480    1.983512
  32 C     6.0000    0    12.011   -0.644912   -1.805673    1.698513
  33 H     1.0000    0     1.008   -0.196817   -2.653456    3.554207
  34 C     6.0000    0    12.011    0.232444    0.938851    1.778279
  35 H     1.0000    0     1.008  -11.648154    1.113601    3.261946
  36 C     6.0000    0    12.011    3.142845    0.738472    1.551146
  37 H     1.0000    0     1.008   -0.374606    1.898599    3.507949
  38 H     1.0000    0     1.008   -0.543366    2.007163    0.183506
  39 C     6.0000    0    12.011    3.770739   -2.052557    0.841373
  40 H     1.0000    0     1.008    4.084125    1.273856    3.313376
  41 H     1.0000    0     1.008    3.845655    2.025837    0.086919
  42 H     1.0000    0     1.008    4.193179   -3.099495    2.591675
  43 C     6.0000    0    12.011    6.154771   -2.248418   -0.844794
  44 C     6.0000    0    12.011    0.750943   -2.216430   -2.898365
  45 H     1.0000    0     1.008    1.227196   -0.217630   -3.138314
  46 H     1.0000    0     1.008   -1.233694   -2.444404   -3.433704
  47 H     1.0000    0     1.008    1.899060   -3.299656   -4.237613
  48 H     1.0000    0     1.008    5.769334   -1.130387   -2.561018
  49 C     6.0000    0    12.011    6.774194   -4.949855   -1.650058
  50 C     6.0000    0    12.011    8.322635   -0.958075    0.495563
  51 C     6.0000    0    12.011   10.427184   -2.055724    1.343622
  52 H     1.0000    0     1.008    8.054926    1.058153    0.807057
  53 H     1.0000    0     1.008   10.687120   -4.079086    1.037360
  54 C     6.0000    0    12.011   12.603201   -0.825770    2.724691
  55 C     6.0000    0    12.011   13.311738   -2.463439    5.020334
  56 C     6.0000    0    12.011   12.206734    1.984272    3.398761
  57 H     1.0000    0     1.008   14.230587   -0.895986    1.421417
  58 H     1.0000    0     1.008   11.446913    2.907801    1.699562
  59 C     6.0000    0    12.011   14.715170    3.294475    4.008696
  60 C     6.0000    0    12.011   10.321268    2.378629    5.561157
  61 H     1.0000    0     1.008   11.726770   -2.612198    6.342665
  62 H     1.0000    0     1.008   14.937194   -1.687123    6.037069
  63 H     1.0000    0     1.008   13.803785   -4.379283    4.410801
  64 H     1.0000    0     1.008   16.071738    3.081833    2.458144
  65 H     1.0000    0     1.008   15.576916    2.520426    5.725989
  66 H     1.0000    0     1.008   14.417676    5.319314    4.324743
  67 H     1.0000    0     1.008    8.573861    1.311888    5.266699
  68 H     1.0000    0     1.008    9.831019    4.382844    5.736239
  69 H     1.0000    0     1.008   11.137970    1.776978    7.367338
  70 H     1.0000    0     1.008    5.334964   -5.692292   -2.927990
  71 H     1.0000    0     1.008    6.891695   -6.218246   -0.015613
  72 H     1.0000    0     1.008    8.588278   -5.016644   -2.644639

--------------------------------
INTERNAL COORDINATES (ANGSTROEM)
--------------------------------
 C      0   0   0     0.000000000000     0.00000000     0.00000000
 C      1   0   0     1.510701369725     0.00000000     0.00000000
 C      2   1   0     1.534034097145   110.51582246     0.00000000
 H      2   1   3     1.095879992502   110.66816578   237.87507160
 H      2   1   3     1.100163905126   109.81267763   118.77332054
 C      1   2   3     1.479732670340   113.98051413   306.30530358
 C      6   1   2     1.512866797734   114.43814682    49.59221065
 C      3   2   1     1.529621708215   110.16008329    56.71477715
 H      7   6   1     1.095235870592   110.21525940   188.81044740
 H      7   6   1     1.100697863191   108.27299732    72.15995920
 H      8   3   2     1.098566972187   108.31141808    64.36434652
 H      8   3   2     1.096162004873   109.52144072   181.37079423
 O      3   2   1     1.437260533061   110.68438427   292.70262002
 H      3   2   1     1.096956176595   109.49682908   177.17800579
 C      1   2   3     1.354312244399   121.16902690   123.23150148
 C      6   1   2     1.337596391849   123.12397568   231.52289644
 H     16   6   1     1.086795191880   121.34374959   359.05109063
 H     16   6   1     1.087521383213   120.96463153   178.42661017
 C     15   1   2     1.445171148436   126.17660255   185.10143570
 H     15   1   2     1.089326876223   116.25614836     3.01525775
 C     19  15   1     1.350000163838   126.39604345   186.31258169
 H     19  15   1     1.087765314298   115.75841615     6.90751485
 C     21  19  15     1.507335195898   125.66106239     2.43582443
 C     23  21  19     1.541083959447   111.35373457   124.00018977
 H     23  21  19     1.093248882520   112.39262519     0.48148277
 H     23  21  19     1.101534473120   107.94821351   242.54362893
 C     24  23  21     1.534443622662   112.68772432    51.30160310
 H     24  23  21     1.097440151536   108.97158742   289.15080838
 H     24  23  21     1.096909087787   109.13758294   173.20818132
 C     27  24  23     1.535221129634   111.91213889   306.27280760
 H     27  24  23     1.094667395544   108.85052597   182.67748294
 H     27  24  23     1.100468749400   109.19571911    66.27582360
 C     21  19  15     1.497883799871   122.95398061   180.08577496
 H     33  21  19     1.105350346156   106.41377135   127.81642361
 C     33  21  19     1.525327677744   121.11552257     5.20543709
 H     13   3   2     0.967740348910   107.61019040    42.91052191
 C     35  33  21     1.548435791777   103.61478590   197.09774201
 H     35  33  21     1.094947643316   112.05370795    75.13565443
 H     35  33  21     1.095597739365   110.85078292   315.50120710
 C     30  27  24     1.554737996274   116.12785080   166.14571877
 H     37  35  33     1.094526763898   111.64050148   249.13597422
 H     37  35  33     1.096714014701   110.46261017   130.62009569
 H     40  30  27     1.102175217252   106.66856000   320.86907627
 C     40  30  27     1.548702952998   118.76778559    81.14368782
 C     30  27  24     1.535177174597   111.20489085   294.21784933
 H     45  30  27     1.094718386775   111.60912391   186.43369656
 H     45  30  27     1.094430686934   111.46499614    66.46857569
 H     45  30  27     1.095426899593   110.76268796   306.33892721
 H     44  40  30     1.102922584955   106.73082595    62.17333367
 C     44  40  30     1.527287547768   113.46693806   303.11441411
 C     44  40  30     1.511741493047   108.51855893   176.62099480
 C     51  44  40     1.333816439361   126.49630753   115.36513873
 H     51  44  40     1.088854773959   114.51207306   296.91564617
 H     52  51  44     1.091614175792   118.84242542     1.31272971
 C     52  51  44     1.511186557168   127.68925716   181.07686638
 C     55  52  51     1.538619254527   108.96138277   133.56096329
 C     55  52  51     1.543519519672   115.03165187     5.28859867
 H     55  52  51     1.103920182299   106.12883867   247.90223806
 H     57  55  52     1.099557714216   106.79273632   314.21740005
 C     57  55  52     1.531956524010   111.52596347   197.96013031
 C     57  55  52     1.532464119906   113.09435710    73.09861329
 H     56  55  52     1.095130082282   110.99834144   298.54919263
 H     56  55  52     1.094581697238   111.60448013   177.57766950
 H     56  55  52     1.095294414378   110.28970933    57.80618190
 H     60  57  55     1.096010736045   111.30494716    55.22940394
 H     60  57  55     1.096157761240   111.47008400   294.51852511
 H     60  57  55     1.095839183404   110.49973024   175.20259611
 H     61  57  55     1.094524195716   111.93237286   311.14546060
 H     61  57  55     1.095777220062   110.43109809   190.61494404
 H     61  57  55     1.096211420751   110.78207676    71.62733154
 H     50  44  40     1.091659037490   111.09818982    67.27023142
 H     50  44  40     1.096563722341   111.40908145   306.89024492
 H     50  44  40     1.095352712700   110.63150073   186.69898172

---------------------------
INTERNAL COORDINATES (A.U.)
---------------------------
 C      0   0   0     0.000000000000     0.00000000     0.00000000
 C      1   0   0     2.854811858919     0.00000000     0.00000000
 C      2   1   0     2.898904323701   110.51582246     0.00000000
 H      2   1   3     2.070913061473   110.66816578   237.87507160
 H      2   1   3     2.079008483114   109.81267763   118.77332054
 C      1   2   3     2.796289498358   113.98051413   306.30530358
 C      6   1   2     2.858903924820   114.43814682    49.59221065
 C      3   2   1     2.890566117027   110.16008329    56.71477715
 H      7   6   1     2.069695847466   110.21525940   188.81044740
 H      7   6   1     2.080017517623   108.27299732    72.15995920
 H      8   3   2     2.075990717204   108.31141808    64.36434652
 H      8   3   2     2.071445987620   109.52144072   181.37079423
 O      3   2   1     2.716028790579   110.68438427   292.70262002
 H      3   2   1     2.072946754678   109.49682908   177.17800579
 C      1   2   3     2.559279241730   121.16902690   123.23150148
 C      6   1   2     2.527690858316   123.12397568   231.52289644
 H     16   6   1     2.053745276316   121.34374959   359.05109063
 H     16   6   1     2.055117579055   120.96463153   178.42661017
 C     15   1   2     2.730977687188   126.17660255   185.10143570
 H     15   1   2     2.058529466381   116.25614836     3.01525775
 C     19  15   1     2.551130590402   126.39604345   186.31258169
 H     19  15   1     2.055578542002   115.75841615     6.90751485
 C     21  19  15     2.848450712267   125.66106239     2.43582443
 C     23  21  19     2.912226632734   111.35373457   124.00018977
 H     23  21  19     2.065940984179   112.39262519     0.48148277
 H     23  21  19     2.081598481271   107.94821351   242.54362893
 C     24  23  21     2.899678214773   112.68772432    51.30160310
 H     24  23  21     2.073861334772   108.97158742   289.15080838
 H     24  23  21     2.072857769726   109.13758294   173.20818132
 C     27  24  23     2.901147490017   111.91213889   306.27280760
 H     27  24  23     2.068621585311   108.85052597   182.67748294
 H     27  24  23     2.079584555304   109.19571911    66.27582360
 C     21  19  15     2.830590162193   122.95398061   180.08577496
 H     33  21  19     2.088809436270   106.41377135   127.81642361
 C     33  21  19     2.882451575426   121.11552257     5.20543709
 H     13   3   2     1.828764228185   107.61019040    42.91052191
 C     35  33  21     2.926119582421   103.61478590   197.09774201
 H     35  33  21     2.069151176850   112.05370795    75.13565443
 H     35  33  21     2.070379680343   110.85078292   315.50120710
 C     30  27  24     2.938029022959   116.12785080   166.14571877
 H     37  35  33     2.068355830014   111.64050148   249.13597422
 H     37  35  33     2.072489135017   110.46261017   130.62009569
 H     40  30  27     2.082809312201   106.66856000   320.86907627
 C     40  30  27     2.926624443962   118.76778559    81.14368782
 C     30  27  24     2.901064427035   111.20489085   294.21784933
 H     45  30  27     2.068717944772   111.60912391   186.43369656
 H     45  30  27     2.068174270864   111.46499614    66.46857569
 H     45  30  27     2.070056839961   110.76268796   306.33892721
 H     44  40  30     2.084221632482   106.73082595    62.17333367
 C     44  40  30     2.886155193030   113.46693806   303.11441411
 C     44  40  30     2.856777407145   108.51855893   176.62099480
 C     51  44  40     2.520547783315   126.49630753   115.36513873
 H     51  44  40     2.057637322396   114.51207306   296.91564617
 H     52  51  44     2.062851836154   118.84242542     1.31272971
 C     52  51  44     2.855728730310   127.68925716   181.07686638
 C     55  52  51     2.907569015435   108.96138277   133.56096329
 C     55  52  51     2.916829174541   115.03165187     5.28859867
 H     55  52  51     2.086106818253   106.12883867   247.90223806
 H     57  55  52     2.077862948308   106.79273632   314.21740005
 C     57  55  52     2.894978279453   111.52596347   197.96013031
 C     57  55  52     2.895937496684   113.09435710    73.09861329
 H     56  55  52     2.069495936532   110.99834144   298.54919263
 H     56  55  52     2.068459638982   111.60448013   177.57766950
 H     56  55  52     2.069806479188   110.28970933    57.80618190
 H     60  57  55     2.071160130962   111.30494716    55.22940394
 H     60  57  55     2.071437968315   111.47008400   294.51852511
 H     60  57  55     2.070835943453   110.49973024   175.20259611
 H     61  57  55     2.068350976854   111.93237286   311.14546060
 H     61  57  55     2.070718849707   110.43109809   190.61494404
 H     61  57  55     2.071539370096   110.78207676    71.62733154
 H     50  44  40     2.062936612476   111.09818982    67.27023142
 H     50  44  40     2.072205123617   111.40908145   306.89024492
 H     50  44  40     2.069916647051   110.63150073   186.69898172

---------------------
BASIS SET INFORMATION
---------------------
There are 3 groups of distinct atoms

 Group   1 Type C   : 7s4p1d contracted to 3s2p1d pattern {511/31/1}
 Group   2 Type H   : 4s1p contracted to 2s1p pattern {31/1}
 Group   3 Type O   : 7s4p1d contracted to 3s2p1d pattern {511/31/1}

Atom   0C    basis set group =>   1
Atom   1C    basis set group =>   1
Atom   2C    basis set group =>   1
Atom   3H    basis set group =>   2
Atom   4H    basis set group =>   2
Atom   5C    basis set group =>   1
Atom   6C    basis set group =>   1
Atom   7C    basis set group =>   1
Atom   8H    basis set group =>   2
Atom   9H    basis set group =>   2
Atom  10H    basis set group =>   2
Atom  11H    basis set group =>   2
Atom  12O    basis set group =>   3
Atom  13H    basis set group =>   2
Atom  14C    basis set group =>   1
Atom  15C    basis set group =>   1
Atom  16H    basis set group =>   2
Atom  17H    basis set group =>   2
Atom  18C    basis set group =>   1
Atom  19H    basis set group =>   2
Atom  20C    basis set group =>   1
Atom  21H    basis set group =>   2
Atom  22C    basis set group =>   1
Atom  23C    basis set group =>   1
Atom  24H    basis set group =>   2
Atom  25H    basis set group =>   2
Atom  26C    basis set group =>   1
Atom  27H    basis set group =>   2
Atom  28H    basis set group =>   2
Atom  29C    basis set group =>   1
Atom  30H    basis set group =>   2
Atom  31H    basis set group =>   2
Atom  32C    basis set group =>   1
Atom  33H    basis set group =>   2
Atom  34C    basis set group =>   1
Atom  35H    basis set group =>   2
Atom  36C    basis set group =>   1
Atom  37H    basis set group =>   2
Atom  38H    basis set group =>   2
Atom  39C    basis set group =>   1
Atom  40H    basis set group =>   2
Atom  41H    basis set group =>   2
Atom  42H    basis set group =>   2
Atom  43C    basis set group =>   1
Atom  44C    basis set group =>   1
Atom  45H    basis set group =>   2
Atom  46H    basis set group =>   2
Atom  47H    basis set group =>   2
Atom  48H    basis set group =>   2
Atom  49C    basis set group =>   1
Atom  50C    basis set group =>   1
Atom  51C    basis set group =>   1
Atom  52H    basis set group =>   2
Atom  53H    basis set group =>   2
Atom  54C    basis set group =>   1
Atom  55C    basis set group =>   1
Atom  56C    basis set group =>   1
Atom  57H    basis set group =>   2
Atom  58H    basis set group =>   2
Atom  59C    basis set group =>   1
Atom  60C    basis set group =>   1
Atom  61H    basis set group =>   2
Atom  62H    basis set group =>   2
Atom  63H    basis set group =>   2
Atom  64H    basis set group =>   2
Atom  65H    basis set group =>   2
Atom  66H    basis set group =>   2
Atom  67H    basis set group =>   2
Atom  68H    basis set group =>   2
Atom  69H    basis set group =>   2
Atom  70H    basis set group =>   2
Atom  71H    basis set group =>   2
Atom  72H    basis set group =>   2

-------------------------
BASIS SET IN INPUT FORMAT
-------------------------

 # Basis set for element : H 
 NewGTO H 
 S 3 
   1      13.0107010000      0.0334854848
   2       1.9622572000      0.2347218709
   3       0.4445379600      0.8137702853
 S 1 
   1       0.1219496200      1.0000000000
 P 1 
   1       0.8000000000      1.0000000000
  end;

 # Basis set for element : C 
 NewGTO C 
 S 5 
   1    1238.4016938000      0.0055173650
   2     186.2900499200      0.0410888285
   3      42.2511763460      0.1822538213
   4      11.6765579320      0.4682845944
   5       3.5930506482      0.4457581734
 S 1 
   1       0.4024514736      1.0000000000
 S 1 
   1       0.1309018267      1.0000000000
 P 3 
   1       9.4680970621      0.0568883320
   2       2.0103545142      0.3129405934
   3       0.5477100471      0.7606501651
 P 1 
   1       0.1526861379      1.0000000000
 D 1 
   1       0.8000000000      1.0000000000
  end;

 # Basis set for element : O 
 NewGTO O 
 S 5 
   1    2266.1767785000     -0.0053893504
   2     340.8701019100     -0.0402347214
   3      77.3631351670     -0.1800818421
   4      21.4796449400     -0.4682885766
   5       6.6589433124     -0.4469261716
 S 1 
   1       0.8097597567      1.0000000000
 S 1 
   1       0.2553077223      1.0000000000
 P 3 
   1      17.7215043170      0.0626302488
   2       3.8635505440      0.3333113849
   3       1.0480920883      0.7414863830
 P 1 
   1       0.2764154441      1.0000000000
 D 1 
   1       1.2000000000      1.0000000000
  end;

---------------------------------
AUXILIARY/J BASIS SET INFORMATION
---------------------------------
There are 3 groups of distinct atoms

 Group   1 Type C   : 12s5p4d2f1g contracted to 6s4p3d1f1g pattern {711111/2111/211/2/1}
 Group   2 Type H   : 5s2p1d contracted to 3s1p1d pattern {311/2/1}
 Group   3 Type O   : 12s5p4d2f1g contracted to 6s4p3d1f1g pattern {711111/2111/211/2/1}

Atom   0C    basis set group =>   1
Atom   1C    basis set group =>   1
Atom   2C    basis set group =>   1
Atom   3H    basis set group =>   2
Atom   4H    basis set group =>   2
Atom   5C    basis set group =>   1
Atom   6C    basis set group =>   1
Atom   7C    basis set group =>   1
Atom   8H    basis set group =>   2
Atom   9H    basis set group =>   2
Atom  10H    basis set group =>   2
Atom  11H    basis set group =>   2
Atom  12O    basis set group =>   3
Atom  13H    basis set group =>   2
Atom  14C    basis set group =>   1
Atom  15C    basis set group =>   1
Atom  16H    basis set group =>   2
Atom  17H    basis set group =>   2
Atom  18C    basis set group =>   1
Atom  19H    basis set group =>   2
Atom  20C    basis set group =>   1
Atom  21H    basis set group =>   2
Atom  22C    basis set group =>   1
Atom  23C    basis set group =>   1
Atom  24H    basis set group =>   2
Atom  25H    basis set group =>   2
Atom  26C    basis set group =>   1
Atom  27H    basis set group =>   2
Atom  28H    basis set group =>   2
Atom  29C    basis set group =>   1
Atom  30H    basis set group =>   2
Atom  31H    basis set group =>   2
Atom  32C    basis set group =>   1
Atom  33H    basis set group =>   2
Atom  34C    basis set group =>   1
Atom  35H    basis set group =>   2
Atom  36C    basis set group =>   1
Atom  37H    basis set group =>   2
Atom  38H    basis set group =>   2
Atom  39C    basis set group =>   1
Atom  40H    basis set group =>   2
Atom  41H    basis set group =>   2
Atom  42H    basis set group =>   2
Atom  43C    basis set group =>   1
Atom  44C    basis set group =>   1
Atom  45H    basis set group =>   2
Atom  46H    basis set group =>   2
Atom  47H    basis set group =>   2
Atom  48H    basis set group =>   2
Atom  49C    basis set group =>   1
Atom  50C    basis set group =>   1
Atom  51C    basis set group =>   1
Atom  52H    basis set group =>   2
Atom  53H    basis set group =>   2
Atom  54C    basis set group =>   1
Atom  55C    basis set group =>   1
Atom  56C    basis set group =>   1
Atom  57H    basis set group =>   2
Atom  58H    basis set group =>   2
Atom  59C    basis set group =>   1
Atom  60C    basis set group =>   1
Atom  61H    basis set group =>   2
Atom  62H    basis set group =>   2
Atom  63H    basis set group =>   2
Atom  64H    basis set group =>   2
Atom  65H    basis set group =>   2
Atom  66H    basis set group =>   2
Atom  67H    basis set group =>   2
Atom  68H    basis set group =>   2
Atom  69H    basis set group =>   2
Atom  70H    basis set group =>   2
Atom  71H    basis set group =>   2
Atom  72H    basis set group =>   2

-------------------------------------
AUXILIARY/J BASIS SET IN INPUT FORMAT
-------------------------------------

 # Auxiliary/J basis set for element : H 
 NewAuxJGTO H 
 S 3 
   1      15.6752927000      0.1007184237
   2       3.6063578000      0.3404257499
   3       1.2080016000      0.6491996172
 S 1 
   1       0.4726794000      1.0000000000
 S 1 
   1       0.2018100000      1.0000000000
 P 2 
   1       2.0281365000      0.5596620919
   2       0.5358730000      0.5596620919
 D 1 
   1       2.2165124000      1.0000000000
  end;

 # Auxiliary/J basis set for element : C 
 NewAuxJGTO C 
 S 7 
   1    1861.0916331000      0.0134602335
   2     642.9939764000      0.0299160374
   3     235.1105725000      0.1008649584
   4      90.7028894000      0.2370970548
   5      36.7794552000      0.3924037254
   6      15.6046273000      0.3195862154
   7       6.8907294000      0.0530104441
 S 1 
   1       3.1478850000     -1.0000000000
 S 1 
   1       1.4777287000      1.0000000000
 S 1 
   1       0.7076466000      1.0000000000
 S 1 
   1       0.3430122000      1.0000000000
 S 1 
   1       0.1669453000      1.0000000000
 P 2 
   1      13.5472892000     -0.6769313712
   2       5.4669419000     -0.3779500978
 P 1 
   1       2.1751721000      1.0000000000
 P 1 
   1       0.8582194000      1.0000000000
 P 1 
   1       0.3376720000      1.0000000000
 D 2 
   1       5.9287253000     -0.3533329857
   2       1.9809209000     -0.7456525731
 D 1 
   1       0.8055417000     -1.0000000000
 D 1 
   1       0.3531244000     -1.0000000000
 F 2 
   1       1.6755626000      0.6311076882
   2       0.5997536000      0.4968166032
 G 1 
   1       1.0024600000     -1.0000000000
  end;

 # Auxiliary/J basis set for element : O 
 NewAuxJGTO O 
 S 7 
   1    2876.8216605000      0.0168151159
   2    1004.7443032000      0.0340137548
   3     369.7579954000      0.1194951309
   4     142.9442404000      0.2664627624
   5      57.8366425000      0.4202764046
   6      24.3864983000      0.2765077335
   7      10.6622662000      0.0057008815
 S 1 
   1       4.8070437000     -1.0000000000
 S 1 
   1       2.2210770000      1.0000000000
 S 1 
   1       1.0447795000      1.0000000000
 S 1 
   1       0.4968425000      1.0000000000
 S 1 
   1       0.2371384000      1.0000000000
 P 2 
   1      64.2613382000     -0.2731534179
   2      16.3006076000     -0.8168011598
 P 1 
   1       4.3550542000      1.0000000000
 P 1 
   1       1.2019554000      1.0000000000
 P 1 
   1       0.3354196000      1.0000000000
 D 2 
   1       9.2146611000     -0.4661230638
   2       2.8435251000     -0.6600908911
 D 1 
   1       0.9955759000     -1.0000000000
 D 1 
   1       0.3649441000     -1.0000000000
 F 2 
   1       2.6420115000      0.5931563945
   2       0.7345613000      0.5931563945
 G 1 
   1       1.3931000000     -1.0000000000
  end;


Checking for AutoStart:
The File: inpS.gbw exists
Trying to determine its content:
     ... Fine, the file contains calculation information
     ... Fine, the calculation information was read
     ... Fine, the file contains a basis set
     ... Fine, the basis set was read
     ... Fine, the file contains a geometry
     ... Fine, the geometry was read
     ... Fine, the file contains a set of orbitals
     ... Fine, the orbitals can be read
     => possible old guess file was deleted
     => GBW file was renamed to GES file
     => GES file is set as startup file
     => Guess is set to MORead
     ... now leaving AutoStart



           ************************************************************
           *        Program running with 4 parallel MPI-processes     *
           *              working on a common directory               *
           ************************************************************
------------------------------------------------------------------------------
                             ORCA STARTUP CALCULATIONS
                           -- RI-GTO INTEGRALS CHOSEN --
------------------------------------------------------------------------------
------------------------------------------------------------------------------
                   ___                                                        
                  /   \      - P O W E R E D   B Y -                         
                 /     \                                                     
                 |  |  |   _    _      __       _____    __    __             
                 |  |  |  | |  | |    /  \     |  _  \  |  |  /  |          
                  \  \/   | |  | |   /    \    | | | |  |  | /  /          
                 / \  \   | |__| |  /  /\  \   | |_| |  |  |/  /          
                |  |  |   |  __  | /  /__\  \  |    /   |      \           
                |  |  |   | |  | | |   __   |  |    \   |  |\   \          
                \     /   | |  | | |  |  |  |  | |\  \  |  | \   \       
                 \___/    |_|  |_| |__|  |__|  |_| \__\ |__|  \__/        
                                                                              
                      - O R C A' S   B I G   F R I E N D -                    
                                      &                                       
                       - I N T E G R A L  F E E D E R -                       
                                                                              
 v1 FN, 2020, v2 2021, v3 2022-2024                                           
------------------------------------------------------------------------------


----------------------
SHARK INTEGRAL PACKAGE
----------------------

Number of atoms                             ...     73
Number of basis functions                   ...    626
Number of shells                            ...    306
Maximum angular momentum                    ...      2
Integral batch strategy                     ... SHARK/LIBINT Hybrid
RI-J (if used) integral strategy            ... SPLIT-RIJ (Revised 2003 algorithm where possible)
Printlevel                                  ...      1
Contraction scheme used                     ... SEGMENTED contraction
Prescreening option                         ... SCHWARTZ
   Thresh                                   ... 3.000e-11
   Tcut                                     ... 1.000e-12
   Tpresel                                  ... 1.000e-12 
Coulomb Range Separation                    ... NOT USED
Exchange Range Separation                   ... Long Range
   Mu parameter                             ... 3.000e-01
   Scaling (regular/separated)              ... 1.670e-01 8.330e-01
Multipole approximations                    ... NOT USED
Finite Nucleus Model                        ... NOT USED
CABS basis                                  ... NOT available
Auxiliary Coulomb fitting basis             ... AVAILABLE
   # of basis functions in Aux-J            ...   1905
   # of shells in Aux-J                     ...    655
   Maximum angular momentum in Aux-J        ...      4
Auxiliary J/K fitting basis                 ... NOT available
Auxiliary Correlation fitting basis         ... NOT available
Auxiliary 'external' fitting basis          ... NOT available

Checking pre-screening integrals            ... done (  0.0 sec) Dimension = 306
Check shell pair data                       ... done (  0.0 sec)
Shell pair information
Shell pair cut-off parameter TPreSel        ...   1.0e-12
Total number of shell pairs                 ...     46971
Shell pairs after pre-screening             ...     27690
Total number of primitive shell pairs       ...    162105
Primitive shell pairs kept                  ...     61213
          la=0 lb=0:   9698 shell pairs
          la=1 lb=0:  10624 shell pairs
          la=1 lb=1:   2936 shell pairs
          la=2 lb=0:   2761 shell pairs
          la=2 lb=1:   1475 shell pairs
          la=2 lb=2:    196 shell pairs

Calculating one electron integrals          ... done (  0.1 sec)
Calculating RI/J V-Matrix + Cholesky decomp.... done (  0.2 sec)
Calculating Nuclear repulsion               ... done (  0.0 sec) ENN=   2792.807003849360 Eh

Diagonalization of the overlap matrix:
Smallest eigenvalue                        ... 4.440e-04
Time for diagonalization                   ...    0.050 sec
Threshold for overlap eigenvalues          ... 1.000e-07
Number of eigenvalues below threshold      ... 0
Time for construction of square roots      ...    0.030 sec
Total time needed                          ...    0.083 sec

-------------------
DFT GRID GENERATION
-------------------

General Integration Accuracy     IntAcc      ... 4.388
Radial Grid Type                 RadialGrid  ... OptM3 with GC (2021)
Angular Grid (max. ang.)         AngularGrid ... 4 (Lebedev-302)
Angular grid pruning method      GridPruning ... 4 (adaptive)
Weight generation scheme         WeightScheme... mBecke (2022)
Basis function cutoff            BFCut       ... 1.0000e-11
Integration weight cutoff        WCut        ... 1.0000e-14
Partially contracted basis set               ... off
Rotationally invariant grid construction     ... off
Angular grids for H and He will be reduced by one unit

Total number of grid points                  ...   309777
Total number of batches                      ...     4875
Average number of points per batch           ...       63
Average number of grid points per atom       ...     4244

--------------------
COSX GRID GENERATION
--------------------

GRIDX 1
-------
General Integration Accuracy     IntAcc      ... 3.816
Radial Grid Type                 RadialGrid  ... OptM3 with GC (2021)
Angular Grid (max. ang.)         AngularGrid ... 1 (Lebedev-50)
Angular grid pruning method      GridPruning ... 4 (adaptive)
Weight generation scheme         WeightScheme... mBecke (2022)
Basis function cutoff            BFCut       ... 1.0000e-11
Integration weight cutoff        WCut        ... 1.0000e-14
Partially contracted basis set               ... on
Rotationally invariant grid construction     ... off
Angular grids for H and He will be reduced by one unit

Total number of grid points                  ...    39370
Total number of batches                      ...      351
Average number of points per batch           ...      112
Average number of grid points per atom       ...      539
UseSFitting                                  ... on

GRIDX 2
-------
General Integration Accuracy     IntAcc      ... 4.020
Radial Grid Type                 RadialGrid  ... OptM3 with GC (2021)
Angular Grid (max. ang.)         AngularGrid ... 2 (Lebedev-110)
Angular grid pruning method      GridPruning ... 4 (adaptive)
Weight generation scheme         WeightScheme... mBecke (2022)
Basis function cutoff            BFCut       ... 1.0000e-11
Integration weight cutoff        WCut        ... 1.0000e-14
Partially contracted basis set               ... on
Rotationally invariant grid construction     ... off
Angular grids for H and He will be reduced by one unit

Total number of grid points                  ...    81294
Total number of batches                      ...      676
Average number of points per batch           ...      120
Average number of grid points per atom       ...     1114
UseSFitting                                  ... on

GRIDX 3
-------
General Integration Accuracy     IntAcc      ... 4.338
Radial Grid Type                 RadialGrid  ... OptM3 with GC (2021)
Angular Grid (max. ang.)         AngularGrid ... 3 (Lebedev-194)
Angular grid pruning method      GridPruning ... 4 (adaptive)
Weight generation scheme         WeightScheme... mBecke (2022)
Basis function cutoff            BFCut       ... 1.0000e-11
Integration weight cutoff        WCut        ... 1.0000e-14
Partially contracted basis set               ... on
Rotationally invariant grid construction     ... off
Angular grids for H and He will be reduced by one unit

Total number of grid points                  ...   176113
Total number of batches                      ...     1416
Average number of points per batch           ...      124
Average number of grid points per atom       ...     2413
UseSFitting                                  ... on
Initializing property integral containers    ... done (  0.0 sec)

SHARK setup successfully completed in   4.5 seconds

Maximum memory used throughout the entire STARTUP-calculation: 96.0 MB


           ************************************************************
           *        Program running with 4 parallel MPI-processes     *
           *              working on a common directory               *
           ************************************************************
-------------------------------------------------------------------------------
                                 ORCA GUESS
                   Start orbitals & Density for SCF / CASSCF
-------------------------------------------------------------------------------

------------
SCF SETTINGS
------------
Hamiltonian:
 Density Functional     Method          .... DFT(GTOs)
 Exchange Functional    Exchange        .... WB97X-V
 Correlation Functional Correlation     .... WB97X-V
 Gradients option       PostSCFGGA      .... off
 Hybrid DFT is turned on
   Fraction HF Exchange ScalHFX         ....  0.167000
   Scaling of DF-GGA-X  ScalDFX         ....  0.000000
   Scaling of DF-GGA-C  ScalDFC         ....  1.000000
   Scaling of DF-LDA-C  ScalLDAC        ....  1.000000
   Perturbative correction              ....  0.000000
 Long-range corrected/Screened/Range-Separated Hybrid DFT is turned on
   Amount of maximum screened exact exchange              ....  0.833000
   Range separation parameter mu (erf(mu*r12)/r12)        ....  0.300000
 RI-approximation to the Coulomb term is turned on
   Number of AuxJ basis functions       .... 1905
   RIJ-COSX (HFX calculated with COS-X)).... on


General Settings:
 Integral files         IntName         .... inpS
 Hartree-Fock type      HFTyp           .... RHF
 Total Charge           Charge          ....    0
 Multiplicity           Mult            ....    1
 Number of Electrons    NEL             ....  220
 Basis Dimension        Dim             ....  626
 Nuclear Repulsion      ENuc            ....   2792.8070038494 Eh

Convergence Acceleration:
 AO-DIIS                CNVDIIS         .... on
   Start iteration      DIISMaxIt       ....    12
   Startup error        DIISStart       ....  0.200000
   # of expansion vecs  DIISMaxEq       ....     5
   Bias factor          DIISBfac        ....   1.050
   Max. coefficient     DIISMaxC        ....  10.000
 MO-DIIS                CNVKDIIS        .... off
 Trust-Rad. Augm. Hess. CNVTRAH         .... auto
   Auto Start mean grad. ratio tolernc. ....  1.125000
   Auto Start start iteration           ....     1
   Auto Start num. interpolation iter.  ....    10
   Max. Number of Micro iterations      ....    24
   Max. Number of Macro iterations      .... Maxiter - #DIIS iter
   Number of Davidson start vectors     ....     2
   Converg. threshold    (grad. norm)   ....   1.000e-04
   Grad. Scal. Fac. for Micro threshold ....   0.100
   Minimum threshold for Micro iter.    ....   1.000e-02
   NR start threshold (gradient norm)   ....   1.000e-04
   Initial trust radius                 ....   0.400
   Minimum AH scaling param. (alpha)    ....   1.000
   Maximum AH scaling param. (alpha)    .... 1000.000
   Quad. conv. algorithm                .... NR
   White noise on init. David. guess    .... on
   Maximum white noise                  ....   0.010
   Pseudo random numbers                .... off
   Inactive MOs                         .... canonical
   Orbital update algorithm             .... Taylor
   Preconditioner                       .... Diag
   Full preconditioner red. dimension   ....   250
 SOSCF                  CNVSOSCF        .... off
 Level Shifting         CNVShift        .... on
   Level shift para.    LevelShift      ....    0.2500
   Turn off err/grad.   ShiftErr        ....    0.0010
 Zerner damping         CNVZerner       .... off
 Static damping         CNVDamp         .... on
   Fraction old density DampFac         ....    0.7000
   Max. Damping (<1)    DampMax         ....    0.9800
   Min. Damping (>=0)   DampMin         ....    0.0000
   Turn off err/grad.   DampErr         ....    0.1000

SCF Procedure:
 Maximum # iterations   MaxIter         ....   125
 SCF integral mode      SCFMode         .... Direct
   Integral package                     .... SHARK and LIBINT hybrid scheme
 Reset frequency        DirectResetFreq ....    20
 Integral Threshold     Thresh          ....  3.000e-11 Eh
 Primitive CutOff       TCut            ....  1.000e-12 Eh

Convergence Tolerance:
 Convergence Check Mode ConvCheckMode   .... Total+1el-Energy
 Convergence forced     ConvForced      .... 0
 Energy Change          TolE            ....  1.000e-07 Eh
 1-El. energy change                    ....  1.000e-04 Eh
 DIIS Error             TolErr          ....  1.000e-07

---------------------
INITIAL GUESS: MOREAD
---------------------
Guess MOs are being read from file: inpS.ges
Input Geometry matches current geometry (good)
Input basis set matches current basis set (good)
Occupation numbers will be reassigned to an Aufbau configuration
MOs were renormalized
MOs were reorthogonalized (Cholesky)
                      ------------------
                      INITIAL GUESS DONE (   0.2 sec)
                      ------------------
             **** ENERGY FILE WAS UPDATED (inpS.en.tmp) ****
Finished Guess after   0.4 sec
Maximum memory used throughout the entire GUESS-calculation: 52.6 MB


           ************************************************************
           *        Program running with 4 parallel MPI-processes     *
           *              working on a common directory               *
           ************************************************************

-------------------------------------------------------------------------------------------
                                      ORCA LEAN-SCF
                              memory conserving SCF solver
-------------------------------------------------------------------------------------------

--------------------
CPCM SOLVATION MODEL
--------------------
CPCM parameters:
  Epsilon                                         ...       4.8030
  Refrac                                          ...       1.4459
  Rsolv                                           ...       1.3000
  Surface type                                    ... GAUSSIAN VDW
  Discretization scheme                           ... Constant charge density
    Threshold for H atoms                         ...       5.0000 (charges/Ang^2)
    Threshold for non-H atoms                     ...       5.0000 (charges/Ang^2)
  Epsilon function type                           ...         CPCM
Solvent:                                          ... CHLOROFORM
Radii:
  Scheme                                          ... Element-dependent radii
  Radius for C  used is    3.8550 Bohr (=   2.0400 Ang.)
  Radius for H  used is    2.4944 Bohr (=   1.3200 Ang.)
  Radius for O  used is    3.4469 Bohr (=   1.8240 Ang.)
Calculating surface                               ...        done! (  0.0s)
Cavity surface points                             ...         5320
Cavity Volume                                     ...    3612.7426
Cavity Surface-area                               ...    1780.4077
Calculating surface distance matrix               ...        done! (  0.2s)
Performing Cholesky decomposition & store         ...        done! (  0.9s)
Overall time for CPCM initialization              ...                 1.1s

----------------------------------------D-I-I-S--------------------------------------------
Iteration    Energy (Eh)           Delta-E    RMSDP     MaxDP     DIISErr   Damp  Time(sec)
-------------------------------------------------------------------------------------------
               ***  Starting incremental Fock matrix formation  ***
    1    -1168.3594238106511511     0.00e+00  3.22e-08  2.13e-06  4.39e-06  0.700  23.9

  HOMO= 109 E= -7.961 eV LUMO=  8.067 eV gap=  16.028 eV
    2    -1168.3594237965367029     1.41e-08  2.81e-08  1.37e-06  2.51e-06  0.700   4.8
                 **** Energy Check signals convergence ****

  HOMO= 109 E= -7.961 eV LUMO=  8.067 eV gap=  16.028 eV

               *****************************************************
               *                     SUCCESS                       *
               *           SCF CONVERGED AFTER   2 CYCLES          *
               *****************************************************

Recomputing exchange energy using gridx3       ... done (   41.398 sec)
Old exchange energy                            :    -56.782929424 Eh
New exchange energy                            :    -56.782999221 Eh
Exchange energy change after final integration :     -0.000069796 Eh
Total energy after final integration           :  -1168.359493593 Eh
             **** ENERGY FILE WAS UPDATED (inpS.en.tmp) ****

----------------
TOTAL SCF ENERGY
----------------

Total Energy       :      -1168.35949359259939 Eh          -31792.67813 eV

Components:
Nuclear Repulsion  :       2792.80700384935972 Eh           75996.14214 eV
Electronic Energy  :      -3961.15713156641914 Eh         -107788.56541 eV
One Electron Energy:      -7130.59002429603424 Eh         -194033.21902 eV
Two Electron Energy:       3169.43289272961511 Eh           86244.65360 eV
CPCM Dielectric    :         -0.00929607947743 Eh              -0.25296 eV

Virial components:
Potential Energy   :      -2321.65408326193301 Eh          -63175.41938 eV
Kinetic Energy     :       1153.29458966933339 Eh           31382.74125 eV
Virial Ratio       :          2.01306249423019

DFT components:
N(Alpha)           :      110.000039661446 electrons
N(Beta)            :      110.000039661446 electrons
N(Total)           :      220.000079322893 electrons
E(X)               :     -111.769482410799 Eh       
E(C)               :       -8.953350172490 Eh       
E(XC)              :     -120.722832583289 Eh       

CPCM Solvation Model Properties:
Surface-charge          :         -0.04160166612809
Corrected charge        :          0.00000000000000
Outlying charge corr.   :          0.00006089996605 Eh               0.00166 eV
Free-energy (cav+disp)  :  This term is not implemented in the current solvation scheme

---------------
SCF CONVERGENCE
---------------

  Last Energy change         ...   -1.4114e-08  Tolerance :   1.0000e-07
  Last MAX-Density change    ...    1.3666e-06  Tolerance :   1.0000e-05
  Last RMS-Density change    ...    2.8078e-08  Tolerance :   1.0000e-06
  Last DIIS Error            ...    2.5070e-06  Tolerance :   1.0000e-07


----------------
ORBITAL ENERGIES
----------------

  NO   OCC          E(Eh)            E(eV) 
   0   2.0000     -19.212459      -522.7976 
   1   2.0000     -10.330356      -281.1033 
   2   2.0000     -10.294368      -280.1240 
   3   2.0000     -10.292061      -280.0612 
   4   2.0000     -10.287628      -279.9406 
   5   2.0000     -10.287068      -279.9254 
   6   2.0000     -10.285481      -279.8822 
   7   2.0000     -10.284279      -279.8495 
   8   2.0000     -10.283491      -279.8280 
   9   2.0000     -10.282959      -279.8135 
  10   2.0000     -10.282775      -279.8085 
  11   2.0000     -10.279708      -279.7251 
  12   2.0000     -10.279230      -279.7121 
  13   2.0000     -10.279170      -279.7104 
  14   2.0000     -10.278176      -279.6834 
  15   2.0000     -10.277995      -279.6785 
  16   2.0000     -10.277461      -279.6639 
  17   2.0000     -10.277132      -279.6550 
  18   2.0000     -10.273218      -279.5485 
  19   2.0000     -10.273141      -279.5464 
  20   2.0000     -10.272183      -279.5203 
  21   2.0000     -10.272167      -279.5199 
  22   2.0000     -10.272047      -279.5166 
  23   2.0000     -10.271574      -279.5037 
  24   2.0000     -10.270327      -279.4698 
  25   2.0000     -10.268412      -279.4177 
  26   2.0000     -10.268236      -279.4129 
  27   2.0000     -10.267613      -279.3959 
  28   2.0000     -10.266770      -279.3730 
  29   2.0000      -1.131022       -30.7767 
  30   2.0000      -0.999026       -27.1849 
  31   2.0000      -0.977294       -26.5935 
  32   2.0000      -0.957586       -26.0572 
  33   2.0000      -0.942985       -25.6599 
  34   2.0000      -0.917490       -24.9662 
  35   2.0000      -0.911272       -24.7970 
  36   2.0000      -0.889906       -24.2156 
  37   2.0000      -0.888146       -24.1677 
  38   2.0000      -0.871357       -23.7108 
  39   2.0000      -0.854203       -23.2440 
  40   2.0000      -0.835794       -22.7431 
  41   2.0000      -0.828419       -22.5424 
  42   2.0000      -0.810447       -22.0534 
  43   2.0000      -0.800019       -21.7696 
  44   2.0000      -0.797228       -21.6937 
  45   2.0000      -0.792078       -21.5535 
  46   2.0000      -0.761658       -20.7258 
  47   2.0000      -0.757099       -20.6017 
  48   2.0000      -0.728803       -19.8317 
  49   2.0000      -0.713294       -19.4097 
  50   2.0000      -0.706170       -19.2159 
  51   2.0000      -0.699560       -19.0360 
  52   2.0000      -0.690088       -18.7782 
  53   2.0000      -0.673776       -18.3344 
  54   2.0000      -0.647620       -17.6226 
  55   2.0000      -0.631937       -17.1959 
  56   2.0000      -0.621934       -16.9237 
  57   2.0000      -0.619952       -16.8697 
  58   2.0000      -0.607548       -16.5322 
  59   2.0000      -0.602605       -16.3977 
  60   2.0000      -0.594153       -16.1677 
  61   2.0000      -0.586695       -15.9648 
  62   2.0000      -0.580246       -15.7893 
  63   2.0000      -0.569775       -15.5044 
  64   2.0000      -0.566439       -15.4136 
  65   2.0000      -0.557093       -15.1593 
  66   2.0000      -0.555265       -15.1095 
  67   2.0000      -0.551699       -15.0125 
  68   2.0000      -0.549943       -14.9647 
  69   2.0000      -0.543707       -14.7950 
  70   2.0000      -0.537968       -14.6388 
  71   2.0000      -0.531436       -14.4611 
  72   2.0000      -0.524791       -14.2803 
  73   2.0000      -0.522079       -14.2065 
  74   2.0000      -0.519403       -14.1337 
  75   2.0000      -0.507959       -13.8223 
  76   2.0000      -0.503462       -13.6999 
  77   2.0000      -0.502419       -13.6715 
  78   2.0000      -0.501001       -13.6329 
  79   2.0000      -0.492314       -13.3965 
  80   2.0000      -0.490336       -13.3427 
  81   2.0000      -0.487535       -13.2665 
  82   2.0000      -0.482743       -13.1361 
  83   2.0000      -0.476877       -12.9765 
  84   2.0000      -0.475950       -12.9513 
  85   2.0000      -0.467615       -12.7244 
  86   2.0000      -0.463233       -12.6052 
  87   2.0000      -0.461994       -12.5715 
  88   2.0000      -0.454956       -12.3800 
  89   2.0000      -0.452631       -12.3167 
  90   2.0000      -0.449615       -12.2346 
  91   2.0000      -0.444588       -12.0979 
  92   2.0000      -0.442528       -12.0418 
  93   2.0000      -0.434500       -11.8233 
  94   2.0000      -0.428170       -11.6511 
  95   2.0000      -0.426762       -11.6128 
  96   2.0000      -0.422937       -11.5087 
  97   2.0000      -0.420143       -11.4327 
  98   2.0000      -0.417870       -11.3708 
  99   2.0000      -0.411635       -11.2012 
 100   2.0000      -0.410172       -11.1613 
 101   2.0000      -0.408156       -11.1065 
 102   2.0000      -0.404510       -11.0073 
 103   2.0000      -0.400126       -10.8880 
 104   2.0000      -0.392679       -10.6853 
 105   2.0000      -0.383173       -10.4267 
 106   2.0000      -0.372817       -10.1449 
 107   2.0000      -0.355954        -9.6860 
 108   2.0000      -0.335620        -9.1327 
 109   2.0000      -0.292554        -7.9608 
 110   0.0000       0.046452         1.2640 
 111   0.0000       0.099345         2.7033 
 112   0.0000       0.111603         3.0369 
 113   0.0000       0.130763         3.5583 
 114   0.0000       0.141798         3.8585 
 115   0.0000       0.145379         3.9560 
 116   0.0000       0.151001         4.1090 
 117   0.0000       0.156365         4.2549 
 118   0.0000       0.161402         4.3920 
 119   0.0000       0.165520         4.5040 
 120   0.0000       0.168876         4.5953 
*Only the first 10 virtual orbitals were printed.

                    ********************************
                    * MULLIKEN POPULATION ANALYSIS *
                    ********************************

-----------------------
MULLIKEN ATOMIC CHARGES
-----------------------
   0 C :   -0.174221
   1 C :    0.142405
   2 C :    0.068549
   3 H :    0.017140
   4 H :    0.030778
   5 C :   -0.169586
   6 C :    0.094601
   7 C :    0.023845
   8 H :    0.013760
   9 H :    0.027452
  10 H :    0.020012
  11 H :    0.022688
  12 O :   -0.359147
  13 H :    0.018246
  14 C :   -0.009030
  15 C :   -0.047382
  16 H :    0.035522
  17 H :    0.029442
  18 C :   -0.061882
  19 H :   -0.001899
  20 C :   -0.114241
  21 H :    0.003876
  22 C :    0.114648
  23 C :   -0.002722
  24 H :    0.014248
  25 H :    0.016716
  26 C :    0.107516
  27 H :    0.013115
  28 H :    0.015790
  29 C :   -0.405462
  30 H :    0.008883
  31 H :   -0.001945
  32 C :   -0.045054
  33 H :    0.011412
  34 C :    0.128979
  35 H :    0.178950
  36 C :    0.034020
  37 H :    0.007165
  38 H :    0.015254
  39 C :   -0.052270
  40 H :    0.019390
  41 H :    0.012804
  42 H :   -0.010343
  43 C :   -0.007653
  44 C :    0.090789
  45 H :    0.019428
  46 H :    0.025329
  47 H :    0.018890
  48 H :    0.002852
  49 C :    0.062508
  50 C :   -0.080677
  51 C :   -0.081063
  52 H :    0.019681
  53 H :    0.005423
  54 C :   -0.033825
  55 C :    0.000606
  56 C :   -0.162855
  57 H :    0.018623
  58 H :    0.018321
  59 C :    0.036532
  60 C :    0.013602
  61 H :    0.023430
  62 H :    0.019980
  63 H :    0.023431
  64 H :    0.016987
  65 H :    0.015944
  66 H :    0.017091
  67 H :    0.023771
  68 H :    0.018356
  69 H :    0.016145
  70 H :    0.028650
  71 H :    0.017664
  72 H :    0.020022
Sum of atomic charges:   -0.0000000

--------------------------------
MULLIKEN REDUCED ORBITAL CHARGES
--------------------------------
  0 C s       :     3.102580  s :     3.102580
      pz      :     1.015594  p :     3.028634
      px      :     1.005798
      py      :     1.007242
      dz2     :     0.005185  d :     0.043007
      dxz     :     0.006363
      dyz     :     0.005940
      dx2y2   :     0.013957
      dxy     :     0.011562

  1 C s       :     2.939322  s :     2.939322
      pz      :     0.989889  p :     2.883889
      px      :     0.929088
      py      :     0.964912
      dz2     :     0.008035  d :     0.034385
      dxz     :     0.006375
      dyz     :     0.003977
      dx2y2   :     0.009908
      dxy     :     0.006089

  2 C s       :     3.085066  s :     3.085066
      pz      :     0.735885  p :     2.775720
      px      :     1.048785
      py      :     0.991050
      dz2     :     0.023023  d :     0.070664
      dxz     :     0.011164
      dyz     :     0.017757
      dx2y2   :     0.011609
      dxy     :     0.007111

  3 H s       :     0.960204  s :     0.960204
      pz      :     0.005112  p :     0.022656
      px      :     0.003832
      py      :     0.013712

  4 H s       :     0.945912  s :     0.945912
      pz      :     0.014371  p :     0.023310
      px      :     0.004535
      py      :     0.004404

  5 C s       :     3.108637  s :     3.108637
      pz      :     0.974843  p :     3.016163
      px      :     0.984744
      py      :     1.056576
      dz2     :     0.009414  d :     0.044786
      dxz     :     0.005468
      dyz     :     0.008823
      dx2y2   :     0.010998
      dxy     :     0.010082

  6 C s       :     2.955896  s :     2.955896
      pz      :     1.003309  p :     2.914056
      px      :     0.947686
      py      :     0.963060
      dz2     :     0.008921  d :     0.035447
      dxz     :     0.005986
      dyz     :     0.004359
      dx2y2   :     0.008804
      dxy     :     0.007377

  7 C s       :     3.002714  s :     3.002714
      pz      :     0.985313  p :     2.938658
      px      :     0.980296
      py      :     0.973049
      dz2     :     0.007716  d :     0.034782
      dxz     :     0.005984
      dyz     :     0.004549
      dx2y2   :     0.008599
      dxy     :     0.007933

  8 H s       :     0.963407  s :     0.963407
      pz      :     0.005775  p :     0.022832
      px      :     0.003885
      py      :     0.013172

  9 H s       :     0.949147  s :     0.949147
      pz      :     0.014461  p :     0.023401
      px      :     0.004534
      py      :     0.004406

 10 H s       :     0.957165  s :     0.957165
      pz      :     0.014125  p :     0.022823
      px      :     0.004558
      py      :     0.004140

 11 H s       :     0.954685  s :     0.954685
      pz      :     0.007796  p :     0.022627
      px      :     0.007125
      py      :     0.007706

 12 O s       :     3.713634  s :     3.713634
      pz      :     1.399504  p :     4.633369
      px      :     1.349718
      py      :     1.884147
      dz2     :     0.005355  d :     0.012145
      dxz     :     0.001423
      dyz     :     0.001604
      dx2y2   :     0.003175
      dxy     :     0.000587

 13 H s       :     0.961402  s :     0.961402
      pz      :     0.001902  p :     0.020352
      px      :     0.014292
      py      :     0.004158

 14 C s       :     3.194325  s :     3.194325
      pz      :     0.992925  p :     2.778357
      px      :     0.868971
      py      :     0.916461
      dz2     :     0.004121  d :     0.036348
      dxz     :     0.007437
      dyz     :     0.003393
      dx2y2   :     0.010820
      dxy     :     0.010578

 15 C s       :     3.124805  s :     3.124805
      pz      :     1.008945  p :     2.896320
      px      :     0.983022
      py      :     0.904353
      dz2     :     0.005272  d :     0.026257
      dxz     :     0.004103
      dyz     :     0.004453
      dx2y2   :     0.006459
      dxy     :     0.005970

 16 H s       :     0.939940  s :     0.939940
      pz      :     0.006709  p :     0.024538
      px      :     0.008166
      py      :     0.009663

 17 H s       :     0.945947  s :     0.945947
      pz      :     0.004871  p :     0.024611
      px      :     0.004515
      py      :     0.015224

 18 C s       :     3.199753  s :     3.199753
      pz      :     1.029826  p :     2.826966
      px      :     0.879129
      py      :     0.918012
      dz2     :     0.003514  d :     0.035163
      dxz     :     0.006510
      dyz     :     0.003351
      dx2y2   :     0.011956
      dxy     :     0.009830

 19 H s       :     0.977581  s :     0.977581
      pz      :     0.004698  p :     0.024318
      px      :     0.005092
      py      :     0.014528

 20 C s       :     3.100702  s :     3.100702
      pz      :     0.959090  p :     2.969414
      px      :     0.989011
      py      :     1.021312
      dz2     :     0.004295  d :     0.044126
      dxz     :     0.006883
      dyz     :     0.007150
      dx2y2   :     0.014312
      dxy     :     0.011485

 21 H s       :     0.971538  s :     0.971538
      pz      :     0.004595  p :     0.024586
      px      :     0.004589
      py      :     0.015402

 22 C s       :     2.926390  s :     2.926390
      pz      :     1.000694  p :     2.923434
      px      :     0.976386
      py      :     0.946353
      dz2     :     0.009494  d :     0.035529
      dxz     :     0.004151
      dyz     :     0.005869
      dx2y2   :     0.009923
      dxy     :     0.006091

 23 C s       :     3.001300  s :     3.001300
      pz      :     1.012522  p :     2.964933
      px      :     0.965623
      py      :     0.986789
      dz2     :     0.010013  d :     0.036489
      dxz     :     0.007345
      dyz     :     0.003052
      dx2y2   :     0.010271
      dxy     :     0.005808

 24 H s       :     0.962549  s :     0.962549
      pz      :     0.004975  p :     0.023204
      px      :     0.013675
      py      :     0.004553

 25 H s       :     0.960024  s :     0.960024
      pz      :     0.013724  p :     0.023260
      px      :     0.004685
      py      :     0.004851

 26 C s       :     2.968887  s :     2.968887
      pz      :     0.969204  p :     2.888284
      px      :     0.973274
      py      :     0.945807
      dz2     :     0.007125  d :     0.035313
      dxz     :     0.006358
      dyz     :     0.005749
      dx2y2   :     0.008636
      dxy     :     0.007445

 27 H s       :     0.964039  s :     0.964039
      pz      :     0.013788  p :     0.022846
      px      :     0.004245
      py      :     0.004813

 28 H s       :     0.961569  s :     0.961569
      pz      :     0.004629  p :     0.022641
      px      :     0.003838
      py      :     0.014175

 29 C s       :     3.253919  s :     3.253919
      pz      :     1.046980  p :     3.100656
      px      :     0.996115
      py      :     1.057561
      dz2     :     0.011562  d :     0.050887
      dxz     :     0.010400
      dyz     :     0.009525
      dx2y2   :     0.010818
      dxy     :     0.008581

 30 H s       :     0.968024  s :     0.968024
      pz      :     0.008905  p :     0.023093
      px      :     0.007763
      py      :     0.006425

 31 H s       :     0.979396  s :     0.979396
      pz      :     0.013250  p :     0.022550
      px      :     0.004699
      py      :     0.004601

 32 C s       :     3.034347  s :     3.034347
      pz      :     0.990176  p :     2.966986
      px      :     0.945870
      py      :     1.030940
      dz2     :     0.008575  d :     0.043721
      dxz     :     0.007087
      dyz     :     0.008072
      dx2y2   :     0.011151
      dxy     :     0.008835

 33 H s       :     0.967316  s :     0.967316
      pz      :     0.012450  p :     0.021273
      px      :     0.003942
      py      :     0.004881

 34 C s       :     2.889866  s :     2.889866
      pz      :     0.988596  p :     2.946328
      px      :     0.973576
      py      :     0.984156
      dz2     :     0.005493  d :     0.034827
      dxz     :     0.005671
      dyz     :     0.008343
      dx2y2   :     0.008817
      dxy     :     0.006502

 35 H s       :     0.752264  s :     0.752264
[...]
 Total          141.861          174.702          190.624  iso=     169.062

 Orientation: 
  X           0.2223504   -0.5945992    0.7726655
  Y          -0.1484936   -0.8039119   -0.5759126
  Z           0.9635922    0.0133186   -0.2670443

 --------------
 Nucleus  39C :
 --------------

Diamagnetic contribution to the shielding tensor (ppm) : 
           265.648          3.433        -7.907
             4.183        257.729         5.104
            -6.752          5.677       262.603

Paramagnetic contribution to the shielding tensor (ppm): 
          -100.313         -1.134        10.963
             2.305       -127.444         0.065
            13.790         -4.395      -136.587

Total shielding tensor (ppm): 
           165.336          2.299         3.056
             6.488        130.284         5.169
             7.038          1.281       126.016


 Diagonalized sT*s matrix:
 
 sDSO           258.522          262.725          264.733  iso=     261.993
 sPSO          -134.393         -131.816          -98.135  iso=    -121.448
        ---------------  ---------------  ---------------
 Total          124.129          130.909          166.597  iso=     140.545

 Orientation: 
  X          -0.0621446   -0.1653230   -0.9842796
  Y          -0.4334374    0.8928062   -0.1225928
  Z           0.8990384    0.4190052   -0.1271402

 --------------
 Nucleus  43C :
 --------------

Diamagnetic contribution to the shielding tensor (ppm) : 
           258.516         -2.022        -6.080
            -1.772        245.664         9.123
            -6.066          3.511       249.247

Paramagnetic contribution to the shielding tensor (ppm): 
           -95.023         -0.650        -1.990
             4.106        -88.352        -6.932
            -1.073          0.759       -87.113

Total shielding tensor (ppm): 
           163.493         -2.672        -8.071
             2.334        157.312         2.191
            -7.140          4.270       162.134


 Diagonalized sT*s matrix:
 
 sDSO           242.787          248.959          261.682  iso=     251.142
 sPSO           -89.145          -90.512          -90.831  iso=     -90.163
        ---------------  ---------------  ---------------
 Total          153.642          158.446          170.850  iso=     160.980

 Orientation: 
  X          -0.4977259    0.5011084   -0.7079261
  Y           0.5594562    0.8092000    0.1794554
  Z          -0.6627803    0.3067340    0.6831079

 --------------
 Nucleus  44C :
 --------------

Diamagnetic contribution to the shielding tensor (ppm) : 
           250.706          0.343         0.217
             0.224        254.238        -1.567
            -0.906          2.248       272.637

Paramagnetic contribution to the shielding tensor (ppm): 
           -71.571         -4.594        -1.514
            -2.814        -73.823        -1.814
             0.067         -6.041       -79.509

Total shielding tensor (ppm): 
           179.135         -4.252        -1.297
            -2.590        180.415        -3.382
            -0.839         -3.793       193.128


 Diagonalized sT*s matrix:
 
 sDSO           253.251          253.020          271.311  iso=     259.194
 sPSO           -77.531          -70.133          -77.239  iso=     -74.968
        ---------------  ---------------  ---------------
 Total          175.719          182.886          194.073  iso=     184.226

 Orientation: 
  X           0.7252885    0.6883473   -0.0116038
  Y           0.6640880   -0.7039722   -0.2518140
  Z           0.1815042   -0.1749319    0.9677061

 --------------
 Nucleus  49C :
 --------------

Diamagnetic contribution to the shielding tensor (ppm) : 
           243.831         -5.644        -2.939
           -13.451        254.672         7.382
            -8.993          6.436       249.222

Paramagnetic contribution to the shielding tensor (ppm): 
           -64.271          3.436        -2.553
            10.413        -71.441        -3.051
             2.326         -2.549       -72.352

Total shielding tensor (ppm): 
           179.560         -2.208        -5.491
            -3.038        183.231         4.331
            -6.667          3.887       176.869


 Diagonalized sT*s matrix:
 
 sDSO           242.068          240.694          264.962  iso=     249.241
 sPSO           -70.328          -61.332          -76.404  iso=     -69.355
        ---------------  ---------------  ---------------
 Total          171.740          179.363          188.558  iso=     179.887

 Orientation: 
  X           0.5716180   -0.6148891    0.5432902
  Y          -0.1568534   -0.7318061   -0.6632170
  Z           0.8053880    0.2938899   -0.5147610

 --------------
 Nucleus  50C :
 --------------

Diamagnetic contribution to the shielding tensor (ppm) : 
           273.859         -3.383        11.196
             3.712        264.537        -2.647
            12.690          0.299       248.228

Paramagnetic contribution to the shielding tensor (ppm): 
          -191.764        -13.731       -63.575
           -15.294       -289.122       -41.729
           -57.631        -46.714      -114.047

Total shielding tensor (ppm): 
            82.095        -17.113       -52.379
           -11.582        -24.585       -44.375
           -44.941        -46.415       134.181


 Diagonalized sT*s matrix:
 
 sDSO           266.090          275.772          244.763  iso=     262.208
 sPSO          -306.391         -212.529          -76.013  iso=    -198.311
        ---------------  ---------------  ---------------
 Total          -40.302           63.243          168.750  iso=      63.897

 Orientation: 
  X          -0.3538695    0.8210482   -0.4479467
  Y          -0.8704576   -0.4643242   -0.1634215
  Z          -0.3421694    0.3320887    0.8789978

 --------------
 Nucleus  51C :
 --------------

Diamagnetic contribution to the shielding tensor (ppm) : 
           267.776         -3.708        15.801
           -12.289        269.906        11.924
            17.226          8.310       237.881

Paramagnetic contribution to the shielding tensor (ppm): 
          -189.258        -14.662       -53.836
             1.087       -285.864       -58.942
           -49.183        -64.823      -102.306

Total shielding tensor (ppm): 
            78.518        -18.371       -38.035
           -11.202        -15.958       -47.019
           -31.956        -56.514       135.575


 Diagonalized sT*s matrix:
 
 sDSO           271.193          277.118          227.251  iso=     258.521
 sPSO          -305.968         -206.190          -65.270  iso=    -192.476
        ---------------  ---------------  ---------------
 Total          -34.774           70.928          161.982  iso=      66.045

 Orientation: 
  X           0.3433303    0.8785772   -0.3320036
  Y           0.8626713   -0.4347656   -0.2584128
  Z           0.3713793    0.1976890    0.9071915

 --------------
 Nucleus  54C :
 --------------

Diamagnetic contribution to the shielding tensor (ppm) : 
           244.578          0.864         6.190
            -8.005        263.458        -2.915
            13.032          1.605       241.232

Paramagnetic contribution to the shielding tensor (ppm): 
           -87.521          5.683        -8.610
            13.400        -98.628        16.444
           -16.232          7.106       -83.609

Total shielding tensor (ppm): 
           157.057          6.547        -2.420
             5.395        164.830        13.529
            -3.200          8.712       157.624


 Diagonalized sT*s matrix:
 
 sDSO           257.789          234.960          256.519  iso=     249.756
 sPSO          -111.478          -75.342          -82.937  iso=     -89.919
        ---------------  ---------------  ---------------
 Total          146.311          159.618          173.582  iso=     159.837

 Orientation: 
  X           0.4872702   -0.8493200   -0.2030353
  Y          -0.5636802   -0.1283325   -0.8159628
  Z           0.6669575    0.5120414   -0.5412775

 --------------
 Nucleus  55C :
 --------------

Diamagnetic contribution to the shielding tensor (ppm) : 
           242.787         -4.969         2.485
           -16.553        241.540        -9.460
            13.929          0.768       247.670

Paramagnetic contribution to the shielding tensor (ppm): 
           -64.820          3.529         3.859
            13.129        -60.138         2.990
            -2.113         -3.794       -59.573

Total shielding tensor (ppm): 
           177.966         -1.440         6.345
            -3.424        181.402        -6.469
            11.816         -3.026       188.097


 Diagonalized sT*s matrix:
 
 sDSO           237.419          236.426          258.151  iso=     243.999
 sPSO           -64.797          -57.030          -62.704  iso=     -61.510
        ---------------  ---------------  ---------------
 Total          172.623          179.396          195.447  iso=     182.488

 Orientation: 
  X          -0.8520742    0.2173439    0.4761630
  Y           0.0435989    0.9360230   -0.3492279
  Z           0.5216021    0.2768079    0.8070370

 --------------
 Nucleus  56C :
 --------------

Diamagnetic contribution to the shielding tensor (ppm) : 
           246.882          2.533        -1.757
             5.140        246.635         4.703
             4.548         10.209       235.998

Paramagnetic contribution to the shielding tensor (ppm): 
           -73.530         -0.961         0.395
            -5.691        -71.944        -5.765
           -10.305         -7.184       -69.174

Total shielding tensor (ppm): 
           173.353          1.572        -1.362
            -0.551        174.692        -1.062
            -5.757          3.025       166.825


 Diagonalized sT*s matrix:
 
 sDSO           237.025          246.773          245.718  iso=     243.172
 sPSO           -71.892          -71.992          -70.763  iso=     -71.549
        ---------------  ---------------  ---------------
 Total          165.132          174.781          174.955  iso=     171.623

 Orientation: 
  X           0.3949063    0.3464457    0.8508962
  Y          -0.1082760   -0.9021690    0.4175732
  Z           0.9123186   -0.2570340   -0.3187605

 --------------
 Nucleus  59C :
 --------------

Diamagnetic contribution to the shielding tensor (ppm) : 
           248.247          9.373         7.895
            17.119        227.395         2.606
            10.596         -2.721       222.753

Paramagnetic contribution to the shielding tensor (ppm): 
           -55.919          4.471       -13.826
            -3.725        -57.564         1.080
           -12.903         13.048       -58.795

Total shielding tensor (ppm): 
           192.328         13.844        -5.931
            13.394        169.831         3.686
            -2.307         10.327       163.958


 Diagonalized sT*s matrix:
 
 sDSO           226.051          218.217          254.127  iso=     232.798
 sPSO           -70.466          -46.443          -55.370  iso=     -57.426
        ---------------  ---------------  ---------------
 Total          155.585          171.775          198.757  iso=     175.372

 Orientation: 
  X           0.3213044   -0.2759249   -0.9058857
  Y          -0.6382318    0.6436078   -0.4224088
  Z           0.6995882    0.7138869    0.0306900

 --------------
 Nucleus  60C :
 --------------

Diamagnetic contribution to the shielding tensor (ppm) : 
           242.611         -6.014        -8.885
             6.763        253.279         7.074
            13.764         14.411       258.751

Paramagnetic contribution to the shielding tensor (ppm): 
           -54.312          9.711         1.456
            -7.826        -79.964        -3.628
           -24.606        -14.215       -76.572

Total shielding tensor (ppm): 
           188.298          3.697        -7.429
            -1.063        173.315         3.446
           -10.842          0.196       182.179


 Diagonalized sT*s matrix:
 
 sDSO           245.934          263.062          245.646  iso=     251.547
 sPSO           -73.995          -86.079          -50.775  iso=     -70.283
        ---------------  ---------------  ---------------
 Total          171.938          176.983          194.871  iso=     181.264

 Orientation: 
  X          -0.3101934   -0.4905649   -0.8143255
  Y           0.8511577   -0.5248484   -0.0080450
  Z          -0.4234509   -0.6956150    0.5803526



--------------------------------
CHEMICAL SHIELDING SUMMARY (ppm)
--------------------------------


  Nucleus  Element    Isotropic     Anisotropy
  -------  -------  ------------   ------------
      0       C           61.465        151.806 
      1       C          154.533         12.259 
      2       C          132.379         51.015 
      5       C           50.844        177.646 
      6       C          168.009         31.813 
      7       C          164.911         17.196 
     14       C           71.661        133.164 
     15       C           83.666        119.611 
     18       C           80.143        133.993 
     20       C           52.167        175.740 
     22       C          168.934          7.213 
     23       C          174.098         13.263 
     26       C          158.851         23.735 
     29       C          153.639         17.684 
     32       C          143.183         27.506 
     34       C          174.773         24.044 
     36       C          169.062         32.342 
     39       C          140.545         39.078 
     43       C          160.980         14.806 
     44       C          184.226         14.770 
     49       C          179.887         13.007 
     50       C           63.897        157.279 
     51       C           66.045        143.905 
     54       C          159.837         20.618 
     55       C          182.488         19.438 
     56       C          171.623          4.999 
     59       C          175.372         35.077 
     60       C          181.264         20.411 


NMR shielding tensor and spin rotation calculation done in   1.1 sec 

Maximum memory used throughout the entire PROP-calculation: 52.1 MB

--------------------------------
SUGGESTED CITATIONS FOR THIS RUN
--------------------------------

Below you find a list of papers that are relevant to this ORCA run
We neither can nor want to force you to cite these papers, but we appreciate if you do
You receive ORCA, which is the product of decades of hard work by many enthusiastic individuals, for free
The only thing we kindly ask in return is that you cite our papers,
We deeply appreciate it, if you show your appreciation for ORCA by not just citing the generic ORCA reference.

Please note that relegating all ORCA citations to the supporting information does *not* help us.
SI sections are not indexed - citations you put there will not count into any citation statistics
But we need these citations in order to attract the funding resources that allow us to do what we are doing

Therefore, if you are a happy ORCA user, please consider citing a few of the papers listed below in the main body of your paper

In addition to the list printed below, the program has created the file inpS.bibtex that contains the list in bibtex format
You can import this file easily into all common literature databanks and citation aid programs


List of essential papers. We consider these as the minimum necessary citations

  1. Neese,F.
     Software update: the ORCA program system, version 5.0
     WIRES Comput. Molec. Sci., 2022 12(1)e1606
     doi.org/10.1002/wcms.1606

List of papers to cite with high priority. The work reported in these papers was absolutely
necessary for this run to complete.
Our perspective: the developers of density functionals and basis sets usually get cited in chemistry papers
Good! But without the algorithms to do something with them, the functionals or basis sets would not do anything.
Hence, in our opinion, the algorithm design and method developments papers are equally worthy of getting cited

  1. Neese,F.
     An improvement of the resolution of the identity approximation for the formation of the Coulomb matrix
     J. Comp. Chem., 2003 24(14)1740-1747
     doi.org/10.1002/jcc.10318
  2. Neese,F.; Wennmohs,F.; Hansen,A.; Becker,U.
     Efficient, approximate and parallel Hartree-Fock and hybrid DFT calculations. A 'chain-of-spheres' algorithm for the Hartree-Fock exchange
     Chem. Phys., 2009 356(1-3)98-109
     doi.org/10.1016/j.chemphys.2008.10.036
  3. Stoychev,G.L.; Auer,A.A.; Izsak,R.; Neese,F.
     Self-Consistent Field Calculation of Nuclear Magnetic Resonance Chemical Shielding Constants Using Gauge-Including Atomic Orbitals and Approximate Two-Electron Integrals
     J. Chem. Theory Comput., 2018 14(2)619-637
     doi.org/10.1021/acs.jctc.7b01006
  4. Garcia-Rates,M.; Neese,F.
     Effect of the Solute Cavity on the Solvation Energy and its Derivatives within the Framework of the Gaussian Charge Scheme
     J. Comput. Chem., 2020 41 922-939
     doi.org/10.1002/jcc.26139
  5. Helmich-Paris,B.; de Souza,B.; Neese,F.; Izsák,R.
     An improved chain of spheres for exchange algorithm
     J. Chem. Phys., 2021 155 104109
     doi.org/doi: 10.1063/5.0058766.
  6. Neese,F.
     The SHARK Integral Generation and Digestion System
     J. Comp. Chem., 2022  1-16
     doi.org/10.1002/jcc.26942
  7. Caldeweyher,E.; Bannwarth,C.; Grimme,S.
     Extension of the D3 dispersion coefficient model
     J. Chem. Phys., 2017 147 034112-XXXX
     doi.org/10.1063/1.4993215
  8. Caldeweyher,E.; Ehlert,S.; Hansen,A.; Neugebauer,H.; Spicher,S.; Bannwarth,C.; Grimme,S.
     A generally applicable atomic-charge dependent London dispersion correction
     J. Chem. Phys., 2019 150 154122-XXXX
     doi.org/10.1063/1.5090222
  9. Caldeweyher,E.; Mewes,J.; Ehlert,S.; Grimme,S.
     Extension and evaluation of the D4 London-dispersion model for periodic systems
     Phys. Chem. Chem. Phys., 2020 22(16)8499-8512
     doi.org/10.1039/D0CP00502A

List of suggested additional citations. These are papers that are important in the 'surrounding' of 
of this run, or papers that preceded the highly important papers. If you like your results we are grateful for a citation.

  1. Izsak,R.; Neese,F.
     An overlap fitted chain of spheres exchange method
     J. Chem. Phys., 2011 135 144105
     doi.org/10.1063/1.3646921
  2. Izsak,R.; Hansen,A.; Neese,F.
     The resolution of identity and chain of spheres approximations for the LPNO-CCSD singles Fock term
     Molec. Phys., 2012 110 2413-2417
     doi.org/10.1080/00268976.2012.687466
  3. Neese,F.
     The ORCA program system
     WIRES Comput. Molec. Sci., 2012 2(1)73-78
     doi.org/10.1002/wcms.81
  4. Izsak,R.; Neese,F.; Klopper,W.
     Robust fitting techniques in the chain of spheres approximation to the Fock exchange: The role of the complementary space
     J. Chem. Phys., 2013 139 
     doi.org/10.1063/1.4819264
  5. Neese,F.
     Software update: the ORCA program system, version 4.0
     WIRES Comput. Molec. Sci., 2018 8(1)1-6
     doi.org/10.1002/wcms.1327
  6. Neese,F.; Wennmohs,F.; Becker,U.; Riplinger,C.
     The ORCA quantum chemistry program package
     J. Chem. Phys., 2020 152 Art. No. L224108
     doi.org/10.1063/5.0004608

Timings for individual modules:

Sum of individual times          ...      178.865 sec (=   2.981 min)
Startup calculation              ...        4.683 sec (=   0.078 min)   2.6 %
SCF iterations                   ...       72.767 sec (=   1.213 min)  40.7 %
Property integrals               ...       60.568 sec (=   1.009 min)  33.9 %
SCF Response                     ...       39.500 sec (=   0.658 min)  22.1 %
Property calculations            ...        1.346 sec (=   0.022 min)   0.8 %
                             ****ORCA TERMINATED NORMALLY****
TOTAL RUN TIME: 0 days 0 hours 2 minutes 59 seconds 142 msec
