
                                 *****************
                                 * O   R   C   A *
                                 *****************

                                            #,                                       
                                            ###                                      
                                            ####                                     
                                            #####                                    
                                            ######                                   
                                           ########,                                 
                                     ,,################,,,,,                         
                               ,,#################################,,                 
                          ,,##########################################,,             
                       ,#########################################, ''#####,          
                    ,#############################################,,   '####,        
                  ,##################################################,,,,####,       
                ,###########''''           ''''###############################       
              ,#####''   ,,,,##########,,,,          '''####'''          '####       
            ,##' ,,,,###########################,,,                        '##       
           ' ,,###''''                  '''############,,,                           
         ,,##''                                '''############,,,,        ,,,,,,###''
      ,#''                                            '''#######################'''  
     '                                                          ''''####''''         
             ,#######,   #######,   ,#######,      ##                                
            ,#'     '#,  ##    ##  ,#'     '#,    #''#        ,####,   ,####,        
            ##       ##  ##   ,#'  ##            #'  '#       #'       #'  '#        
            ##       ##  #######   ##           ,######,      #####,   #    #        
            '#,     ,#'  ##    ##  '#,     ,#' ,#      #,     #,   #   #,  ,#        
             '#######'   ##     ##  '#######'  #'      '#     '####' # '####'        



                #########################################################
                #                        -***-                          #
                #          Department of theory and spectroscopy        #
                #                                                       #
                #                      Frank Neese                      #
                #                                                       #
                #     Directorship, Architecture, Infrastructure        #
                #                    SHARK, DRIVERS                     #
                #        Core code/Algorithms in most modules           #
                #                                                       #
                #        Max Planck Institute fuer Kohlenforschung      #
                #                Kaiser Wilhelm Platz 1                 #
                #                 D-45470 Muelheim/Ruhr                 #
                #                      Germany                          #
                #                                                       #
                #                  All rights reserved                  #
                #                        -***-                          #
                #########################################################


                         Program Version 6.0.0  -   RELEASE  -


 With contributions from (in alphabetic order):
   Daniel Aravena         : Magnetic Suceptibility
   Michael Atanasov       : Ab Initio Ligand Field Theory (pilot matlab implementation)
   Alexander A. Auer      : GIAO ZORA, VPT2 properties, NMR spectrum
   Ute Becker             : All parallelization in ORCA, NUMFREQ, NUMCALC
   Giovanni Bistoni       : ED, misc. LED, open-shell LED, HFLD
   Martin Brehm           : Molecular dynamics
   Dmytro Bykov           : pre 5.0 version of the SCF Hessian
   Marcos Casanova-Páez   : Triplet and SCS-CIS(D). UHF-(DLPNO)-IP/EA/STEOM-CCSD. UHF-CVS-IP/STEOM-CCSD
   Vijay G. Chilkuri      : MRCI spin determinant printing, contributions to CSF-ICE
   Pauline Colinet        : FMM embedding
   Dipayan Datta          : RHF DLPNO-CCSD density
   Achintya Kumar Dutta   : EOM-CC, STEOM-CC
   Nicolas Foglia         : Exact transition moments, OPA infrastructure, MCD improvements
   Dmitry Ganyushin       : Spin-Orbit,Spin-Spin,Magnetic field MRCI
   Miquel Garcia          : C-PCM and meta-GGA Hessian, CCSD/C-PCM, Gaussian charge scheme
   Tiago L. C. Gouveia    : GS-ROHF, GS-ROCIS
   Yang Guo               : DLPNO-NEVPT2, F12-NEVPT2, CIM, IAO-localization
   Andreas Hansen         : Spin unrestricted coupled pair/coupled cluster methods
   Ingolf Harden          : AUTO-CI MPn and infrastructure 
   Benjamin Helmich-Paris : MC-RPA, TRAH-(SCF,CASSCF), AVAS, COSX integrals, SCF dyn. polar.
   Lee Huntington         : MR-EOM, pCC
   Robert Izsak           : Overlap fitted RIJCOSX, COSX-SCS-MP3, EOM
   Riya Kayal             : Wick's Theorem for AUTO-CI, AUTO-CI UHF-CCSDT
   Emily Kempfer          : AUTO-CI, RHF CISDT and CCSDT
   Christian Kollmar      : KDIIS, OOCD, Brueckner-CCSD(T), CCSD density, CASPT2, CASPT2-K, improved NEVPT2
   Axel Koslowski         : Symmetry handling
   Simone Kossmann        : Meta GGA functionals, TD-DFT gradient, OOMP2, (MP2 Hessian; deprecated post 5.0)
   Lucas Lang             : DCDCAS
   Marvin Lechner         : AUTO-CI (C++ implementation), FIC-MRCC
   Spencer Leger          : CASSCF response
   Dagmar Lenk            : GEPOL surface, SMD, ORCA-2-JSON
   Dimitrios Liakos       : Extrapolation schemes; Compound Job, initial MDCI parallelization
   Dimitrios Manganas     : Further ROCIS development; embedding schemes. LFT, Crystal Embedding
   Dimitrios Pantazis     : SARC Basis sets
   Anastasios Papadopoulos: AUTO-CI, single reference methods and gradients
   Taras Petrenko         : pre 6.0 DFT Hessian and TD-DFT gradient, (ASA, deprecated), ECA, 1-Electron XAS/XES, NRVS
   Peter Pinski           : DLPNO-MP2, DLPNO-MP2 Gradient
   Christoph Reimann      : Effective Core Potentials
   Marius Retegan         : Local ZFS, SOC
   Christoph Riplinger    : Optimizer, TS searches, QM/MM, DLPNO-CCSD(T), (RO)-DLPNO pert. Triples
   Michael Roemelt        : Original ROCIS implementation
   Masaaki Saitow         : Open-shell DLPNO-CCSD energy and density
   Barbara Sandhoefer     : DKH picture change effects
   Kantharuban Sivalingam : CASSCF convergence/infrastructure, NEVPT2 and variants, FIC-MRCI
   Bernardo de Souza      : ESD, SOC TD-DFT
   Georgi Stoychev        : AutoAux, RI-MP2 NMR, DLPNO-MP2 response, X2C
   Van Anh Tran           : RI-MP2 g-tensors
   Willem Van den Heuvel  : Paramagnetic NMR
   Zikuan Wang            : NOTCH, Electric field optimization 
   Frank Wennmohs         : Technical directorship and infrastructure
   Hang Xu                : AUTO-CI-Response properties 


 We gratefully acknowledge several colleagues who have allowed us to
 interface, adapt or use parts of their codes:
   Stefan Grimme, W. Hujo, H. Kruse, P. Pracht,  : VdW corrections, initial TS optimization,
                  C. Bannwarth, S. Ehlert,         DFT functionals, gCP, sTDA/sTD-DF
                  L. Wittmann, M. Mueller
   Ed Valeev, F. Pavosevic, A. Kumar             : LibInt (2-el integral package), F12 methods
   Garnet Chan, S. Sharma, J. Yang, R. Olivares  : DMRG
   Ulf Ekstrom                                   : XCFun DFT Library
   Mihaly Kallay                                 : mrcc  (arbitrary order and MRCC methods)
   Frank Weinhold                                : gennbo (NPA and NBO analysis)
   Simon Mueller                                 : openCOSMO-RS
   Christopher J. Cramer and Donald G. Truhlar   : smd solvation model
   Lars Goerigk                                  : TD-DFT with DH, B97 family of functionals
   V. Asgeirsson, H. Jonsson                     : NEB implementation
   FAccTs GmbH                                   : IRC, NEB, NEB-TS, DLPNO-Multilevel, CI-OPT
                                                   MM, QMMM, 2- and 3-layer-ONIOM, Crystal-QMMM,
                                                   LR-CPCM, SF, NACMEs, symmetry and pop. for TD-DFT,
                                                   nearIR, NL-DFT gradient (VV10), updates on ESD,
                                                   ML-optimized integration grids, MBIS, APM,
                                                   GOAT, DOCKER, SOLVATOR, interface openCOSMO-RS
   S Lehtola, MJT Oliveira, MAL Marques          : LibXC Library
   Liviu Ungur et al                             : ANISO software


 Your calculation uses the libint2 library for the computation of 2-el integrals
 For citations please refer to: http://libint.valeyev.net

 Your ORCA version has been built with support for libXC version: 6.2.2
 For citations please refer to: https://libxc.gitlab.io

 This ORCA versions uses:
   CBLAS   interface :  Fast vector & matrix operations
   LAPACKE interface :  Fast linear algebra routines
   SCALAPACK package :  Parallel linear algebra routines
   Shared memory     :  Shared parallel matrices
   BLAS/LAPACK       :  OpenBLAS 0.3.27  USE64BITINT DYNAMIC_ARCH NO_AFFINITY Zen SINGLE_THREADED
        Core in use  :  Zen
   Copyright (c) 2011-2014, The OpenBLAS Project


NOTE: MaxCore=8000 MB was set to SCF,MP2,MDCI,CIPSI,MRCI and CIS
      => If you want to overwrite this, your respective input block should be placed after the MaxCore statement
Your calculation utilizes the atom-pairwise dispersion correction
based on EEQ partial charges (D4)


================================================================================

----- Orbital basis set information -----
Your calculation utilizes the basis: pcJ-0
   F. Jensen, Theor. Chem. Acc. 126, 371 (2010).

----- AuxJ basis set information -----
Your calculation utilizes the auxiliary basis: def2/J
   F. Weigend, Phys. Chem. Chem. Phys. 8, 1057 (2006).

================================================================================
                                        WARNINGS
                       Please study these warnings very carefully!
================================================================================

WARNING: Old DensityContainer found on disk!
         Will remove this file - 
         If you want to keep old densities, please start your calculation with a different basename. 


================================================================================
                                       INPUT FILE
================================================================================
NAME = inpJ
|  1> ! pbe0
|  2> ! D4
|  3> ! pcJ-0
|  4> ! def2/J RIJCOSX
|  5> ! DEFGRID2
|  6> ! scfconv7
|  7> ! smallprint printgap noloewdin
|  8> ! NOSOSCF
|  9> %MaxCore 8000
| 10> %output
| 11>        print[P_BondOrder_M] 1
| 12>        print[P_Mayer] 1
| 13>        print[P_basis] 2
| 14> end
| 15> %pal
| 16>     nprocs 4
| 17> end
| 18> ! CPCM(chloroform)
| 19> *xyz 0 1
| 20> C   -4.9852841900   0.2733624900  -0.4785120200
| 21> C   -6.4441276500  -0.0840744500  -0.6404787500
| 22> C   -7.3255570700   0.8727766700   0.1724042200
| 23> H   -6.6259275500  -1.1185482800  -0.3278037600
| 24> H   -6.7352746700   0.0071409800  -1.6974904700
| 25> C   -4.6744229400   1.6866101600  -0.7878744000
| 26> C   -5.5774355200   2.6900688500  -0.1049359800
| 27> C   -7.0603565500   2.3193869200  -0.2479885000
| 28> H   -5.3920123500   3.6952538100  -0.4983353400
| 29> H   -5.3214618800   2.7123158900   0.9653529300
| 30> H   -7.3692813400   2.4365057500  -1.2956993600
| 31> H   -7.6770794200   2.9952074800   0.3557420800
| 32> O   -7.1162771800   0.6823465100   1.5815373300
| 33> H   -8.3819284000   0.6303281700   0.0032557900
| 34> C   -4.0877334800  -0.6333007800  -0.0240606000
| 35> C   -3.7035769600   2.0536859400  -1.6316027700
| 36> H   -3.0765379800   1.3170015300  -2.1268219000
| 37> H   -3.5217551500   3.1027892500  -1.8530205500
| 38> C   -2.6951646900  -0.3819043500   0.2693191000
| 39> H   -4.4692271600  -1.6359394900   0.1651779600
| 40> C   -1.7688217200  -1.3036730300   0.6080397000
| 41> H   -2.3812009600   0.6582179500   0.2163497100
| 42> C   -1.9998987100  -2.7905924500   0.6959797700
| 43> C   -1.0156531100  -3.5654901600  -0.2016470500
| 44> H   -3.0264113800  -3.0682631000   0.4422794200
| 45> H   -1.8284060500  -3.0996473300   1.7392695400
| 46> C    0.4454891600  -3.1613172200   0.0354705000
| 47> H   -1.2824467300  -3.3964369400  -1.2526546900
| 48> H   -1.1328351400  -4.6407653400  -0.0192705000
| 49> C    0.6489305000  -1.6452275000  -0.0948656000
| 50> H    1.0827015900  -3.7118149100  -0.6639645000
| 51> H    0.7451249900  -3.4658354300   1.0496295100
| 52> C   -0.3412727600  -0.9555209900   0.8988145300
| 53> H   -0.1041509600  -1.4041484200   1.8808054000
| 54> C    0.1230041100   0.4968184400   0.9410246300
| 55> H   -6.1639378200   0.5892924100   1.7261473600
| 56> C    1.6631220900   0.3907827500   0.8208312800
| 57> H   -0.1982327500   1.0046954600   1.8563268500
| 58> H   -0.2875367300   1.0621451600   0.0971073800
| 59> C    1.9953893700  -1.0861661400   0.4452354500
| 60> H    2.1612256600   0.6740957600   1.7533630000
| 61> H    2.0350332400   1.0720267900   0.0459956300
| 62> H    2.2189350000  -1.6401822500   1.3714555700
| 63> C    3.2569648000  -1.1898117200  -0.4470458200
| 64> C    0.3973820800  -1.1728844300  -1.5337486300
| 65> H    0.6494039500  -0.1151649600  -1.6607244000
| 66> H   -0.6528426700  -1.2935227400  -1.8170380600
| 67> H    1.0049390500  -1.7461027500  -2.2424484100
| 68> H    3.0530001000  -0.5981751900  -1.3552323900
| 69> C    3.5847491400  -2.6193502500  -0.8731728800
| 70> C    4.4041490000  -0.5069915700   0.2622407200
| 71> C    5.5178283100  -1.0878420700   0.7110139200
| 72> H    4.2624833300   0.5599502100   0.4270763800
| 73> H    5.6553802900  -2.1585592600   0.5489470800
| 74> C    6.6693265400  -0.4369786900   1.4418446100
| 75> C    7.0442682500  -1.3035955900   2.6566462700
| 76> C    6.4595256300   1.0500315600   1.7985470100
| 77> H    7.5305022200  -0.4741354600   0.7521812200
| 78> H    6.0574454000   1.5387421200   0.8993692500
| 79> C    7.7869324200   1.7433611000   2.1213103200
| 80> C    5.4617799600   1.2587162300   2.9428374300
| 81> H    6.2055393300  -1.3823155000   3.3563939900
| 82> H    7.9044227000  -0.8927868000   3.1946793100
| 83> H    7.3046483300  -2.3174165600   2.3340953300
| 84> H    8.5047972200   1.6308356600   1.3007936000
| 85> H    8.2429487200   1.3337521600   3.0300630300
| 86> H    7.6295057500   2.8148597900   2.2885554000
| 87> H    4.5370915800   0.6942211800   2.7870171700
| 88> H    5.2023511200   2.3193011700   3.0354871900
| 89> H    5.8939597300   0.9403360100   3.8986272400
| 90> H    2.8231416000  -3.0122314200  -1.5494256400
| 91> H    3.6469279100  -3.2905542000  -0.0082618700
| 92> H    4.5447211200  -2.6546935200  -1.3994828800
| 93> *
| 94> %eprnmr
| 95>  Nuclei = all C { ssfc }
| 96>  SpinSpinRThresh 8.0
| 97> end
| 98> 
| 99>                          ****END OF INPUT****
================================================================================

                       ****************************
                       * Single Point Calculation *
                       ****************************

---------------------------------
CARTESIAN COORDINATES (ANGSTROEM)
---------------------------------
  C     -4.985284    0.273362   -0.478512
  C     -6.444128   -0.084074   -0.640479
  C     -7.325557    0.872777    0.172404
  H     -6.625928   -1.118548   -0.327804
  H     -6.735275    0.007141   -1.697490
  C     -4.674423    1.686610   -0.787874
  C     -5.577436    2.690069   -0.104936
  C     -7.060357    2.319387   -0.247989
  H     -5.392012    3.695254   -0.498335
  H     -5.321462    2.712316    0.965353
  H     -7.369281    2.436506   -1.295699
  H     -7.677079    2.995207    0.355742
  O     -7.116277    0.682347    1.581537
  H     -8.381928    0.630328    0.003256
  C     -4.087733   -0.633301   -0.024061
  C     -3.703577    2.053686   -1.631603
  H     -3.076538    1.317002   -2.126822
  H     -3.521755    3.102789   -1.853021
  C     -2.695165   -0.381904    0.269319
  H     -4.469227   -1.635939    0.165178
  C     -1.768822   -1.303673    0.608040
  H     -2.381201    0.658218    0.216350
  C     -1.999899   -2.790592    0.695980
  C     -1.015653   -3.565490   -0.201647
  H     -3.026411   -3.068263    0.442279
  H     -1.828406   -3.099647    1.739270
  C      0.445489   -3.161317    0.035471
  H     -1.282447   -3.396437   -1.252655
  H     -1.132835   -4.640765   -0.019270
  C      0.648930   -1.645227   -0.094866
  H      1.082702   -3.711815   -0.663964
  H      0.745125   -3.465835    1.049630
  C     -0.341273   -0.955521    0.898815
  H     -0.104151   -1.404148    1.880805
  C      0.123004    0.496818    0.941025
  H     -6.163938    0.589292    1.726147
  C      1.663122    0.390783    0.820831
  H     -0.198233    1.004695    1.856327
  H     -0.287537    1.062145    0.097107
  C      1.995389   -1.086166    0.445235
  H      2.161226    0.674096    1.753363
  H      2.035033    1.072027    0.045996
  H      2.218935   -1.640182    1.371456
  C      3.256965   -1.189812   -0.447046
  C      0.397382   -1.172884   -1.533749
  H      0.649404   -0.115165   -1.660724
  H     -0.652843   -1.293523   -1.817038
  H      1.004939   -1.746103   -2.242448
  H      3.053000   -0.598175   -1.355232
  C      3.584749   -2.619350   -0.873173
  C      4.404149   -0.506992    0.262241
  C      5.517828   -1.087842    0.711014
  H      4.262483    0.559950    0.427076
  H      5.655380   -2.158559    0.548947
  C      6.669327   -0.436979    1.441845
  C      7.044268   -1.303596    2.656646
  C      6.459526    1.050032    1.798547
  H      7.530502   -0.474135    0.752181
  H      6.057445    1.538742    0.899369
  C      7.786932    1.743361    2.121310
  C      5.461780    1.258716    2.942837
  H      6.205539   -1.382316    3.356394
  H      7.904423   -0.892787    3.194679
  H      7.304648   -2.317417    2.334095
  H      8.504797    1.630836    1.300794
  H      8.242949    1.333752    3.030063
  H      7.629506    2.814860    2.288555
  H      4.537092    0.694221    2.787017
  H      5.202351    2.319301    3.035487
  H      5.893960    0.940336    3.898627
  H      2.823142   -3.012231   -1.549426
  H      3.646928   -3.290554   -0.008262
  H      4.544721   -2.654694   -1.399483

----------------------------
CARTESIAN COORDINATES (A.U.)
----------------------------
  NO LB      ZA    FRAG     MASS         X           Y           Z
   0 C     6.0000    0    12.011   -9.420822    0.516580   -0.904257
   1 C     6.0000    0    12.011  -12.177636   -0.158878   -1.210329
   2 C     6.0000    0    12.011  -13.843297    1.649309    0.325797
   3 H     1.0000    0     1.008  -12.521188   -2.113750   -0.619459
   4 H     1.0000    0     1.008  -12.727825    0.013494   -3.207792
   5 C     6.0000    0    12.011   -8.833379    3.187231   -1.488867
   6 C     6.0000    0    12.011  -10.539826    5.083493   -0.198300
   7 C     6.0000    0    12.011  -13.342140    4.383006   -0.468630
   8 H     1.0000    0     1.008  -10.189427    6.983018   -0.941717
   9 H     1.0000    0     1.008  -10.056106    5.125534    1.824253
  10 H     1.0000    0     1.008  -13.925924    4.604329   -2.448517
  11 H     1.0000    0     1.008  -14.507578    5.660122    0.672255
  12 O     8.0000    0    15.999  -13.447815    1.289448    2.988672
  13 H     1.0000    0     1.008  -15.839549    1.191148    0.006153
  14 C     6.0000    0    12.011   -7.724697   -1.196765   -0.045468
  15 C     6.0000    0    12.011   -6.998746    3.880904   -3.083282
  16 H     1.0000    0     1.008   -5.813814    2.488772   -4.019111
  17 H     1.0000    0     1.008   -6.655153    5.863422   -3.501701
  18 C     6.0000    0    12.011   -5.093123   -0.721695    0.508939
  19 H     1.0000    0     1.008   -8.445615   -3.091478    0.312141
  20 C     6.0000    0    12.011   -3.342589   -2.463585    1.149029
  21 H     1.0000    0     1.008   -4.499818    1.243852    0.408842
  22 C     6.0000    0    12.011   -3.779261   -5.273455    1.315211
  23 C     6.0000    0    12.011   -1.919306   -6.737800   -0.381058
  24 H     1.0000    0     1.008   -5.719089   -5.798177    0.835787
  25 H     1.0000    0     1.008   -3.455187   -5.857485    3.286743
  26 C     6.0000    0    12.011    0.841853   -5.974024    0.067030
  27 H     1.0000    0     1.008   -2.423473   -6.418336   -2.367174
  28 H     1.0000    0     1.008   -2.140748   -8.769776   -0.036416
  29 C     6.0000    0    12.011    1.226301   -3.109029   -0.179270
  30 H     1.0000    0     1.008    2.046009   -7.014314   -1.254711
  31 H     1.0000    0     1.008    1.408082   -6.549480    1.983512
  32 C     6.0000    0    12.011   -0.644912   -1.805673    1.698513
  33 H     1.0000    0     1.008   -0.196817   -2.653456    3.554207
  34 C     6.0000    0    12.011    0.232444    0.938851    1.778279
  35 H     1.0000    0     1.008  -11.648154    1.113601    3.261946
  36 C     6.0000    0    12.011    3.142845    0.738472    1.551146
  37 H     1.0000    0     1.008   -0.374606    1.898599    3.507949
  38 H     1.0000    0     1.008   -0.543366    2.007163    0.183506
  39 C     6.0000    0    12.011    3.770739   -2.052557    0.841373
  40 H     1.0000    0     1.008    4.084125    1.273856    3.313376
  41 H     1.0000    0     1.008    3.845655    2.025837    0.086919
  42 H     1.0000    0     1.008    4.193179   -3.099495    2.591675
  43 C     6.0000    0    12.011    6.154771   -2.248418   -0.844794
  44 C     6.0000    0    12.011    0.750943   -2.216430   -2.898365
  45 H     1.0000    0     1.008    1.227196   -0.217630   -3.138314
  46 H     1.0000    0     1.008   -1.233694   -2.444404   -3.433704
  47 H     1.0000    0     1.008    1.899060   -3.299656   -4.237613
  48 H     1.0000    0     1.008    5.769334   -1.130387   -2.561018
  49 C     6.0000    0    12.011    6.774194   -4.949855   -1.650058
  50 C     6.0000    0    12.011    8.322635   -0.958075    0.495563
  51 C     6.0000    0    12.011   10.427184   -2.055724    1.343622
  52 H     1.0000    0     1.008    8.054926    1.058153    0.807057
  53 H     1.0000    0     1.008   10.687120   -4.079086    1.037360
  54 C     6.0000    0    12.011   12.603201   -0.825770    2.724691
  55 C     6.0000    0    12.011   13.311738   -2.463439    5.020334
  56 C     6.0000    0    12.011   12.206734    1.984272    3.398761
  57 H     1.0000    0     1.008   14.230587   -0.895986    1.421417
  58 H     1.0000    0     1.008   11.446913    2.907801    1.699562
  59 C     6.0000    0    12.011   14.715170    3.294475    4.008696
  60 C     6.0000    0    12.011   10.321268    2.378629    5.561157
  61 H     1.0000    0     1.008   11.726770   -2.612198    6.342665
  62 H     1.0000    0     1.008   14.937194   -1.687123    6.037069
  63 H     1.0000    0     1.008   13.803785   -4.379283    4.410801
  64 H     1.0000    0     1.008   16.071738    3.081833    2.458144
  65 H     1.0000    0     1.008   15.576916    2.520426    5.725989
  66 H     1.0000    0     1.008   14.417676    5.319314    4.324743
  67 H     1.0000    0     1.008    8.573861    1.311888    5.266699
  68 H     1.0000    0     1.008    9.831019    4.382844    5.736239
  69 H     1.0000    0     1.008   11.137970    1.776978    7.367338
  70 H     1.0000    0     1.008    5.334964   -5.692292   -2.927990
  71 H     1.0000    0     1.008    6.891695   -6.218246   -0.015613
  72 H     1.0000    0     1.008    8.588278   -5.016644   -2.644639

--------------------------------
INTERNAL COORDINATES (ANGSTROEM)
--------------------------------
 C      0   0   0     0.000000000000     0.00000000     0.00000000
 C      1   0   0     1.510701369725     0.00000000     0.00000000
 C      2   1   0     1.534034097145   110.51582246     0.00000000
 H      2   1   3     1.095879992502   110.66816578   237.87507160
 H      2   1   3     1.100163905126   109.81267763   118.77332054
 C      1   2   3     1.479732670340   113.98051413   306.30530358
 C      6   1   2     1.512866797734   114.43814682    49.59221065
 C      3   2   1     1.529621708215   110.16008329    56.71477715
 H      7   6   1     1.095235870592   110.21525940   188.81044740
 H      7   6   1     1.100697863191   108.27299732    72.15995920
 H      8   3   2     1.098566972187   108.31141808    64.36434652
 H      8   3   2     1.096162004873   109.52144072   181.37079423
 O      3   2   1     1.437260533061   110.68438427   292.70262002
 H      3   2   1     1.096956176595   109.49682908   177.17800579
 C      1   2   3     1.354312244399   121.16902690   123.23150148
 C      6   1   2     1.337596391849   123.12397568   231.52289644
 H     16   6   1     1.086795191880   121.34374959   359.05109063
 H     16   6   1     1.087521383213   120.96463153   178.42661017
 C     15   1   2     1.445171148436   126.17660255   185.10143570
 H     15   1   2     1.089326876223   116.25614836     3.01525775
 C     19  15   1     1.350000163838   126.39604345   186.31258169
 H     19  15   1     1.087765314298   115.75841615     6.90751485
 C     21  19  15     1.507335195898   125.66106239     2.43582443
 C     23  21  19     1.541083959447   111.35373457   124.00018977
 H     23  21  19     1.093248882520   112.39262519     0.48148277
 H     23  21  19     1.101534473120   107.94821351   242.54362893
 C     24  23  21     1.534443622662   112.68772432    51.30160310
 H     24  23  21     1.097440151536   108.97158742   289.15080838
 H     24  23  21     1.096909087787   109.13758294   173.20818132
 C     27  24  23     1.535221129634   111.91213889   306.27280760
 H     27  24  23     1.094667395544   108.85052597   182.67748294
 H     27  24  23     1.100468749400   109.19571911    66.27582360
 C     21  19  15     1.497883799871   122.95398061   180.08577496
 H     33  21  19     1.105350346156   106.41377135   127.81642361
 C     33  21  19     1.525327677744   121.11552257     5.20543709
 H     13   3   2     0.967740348910   107.61019040    42.91052191
 C     35  33  21     1.548435791777   103.61478590   197.09774201
 H     35  33  21     1.094947643316   112.05370795    75.13565443
 H     35  33  21     1.095597739365   110.85078292   315.50120710
 C     30  27  24     1.554737996274   116.12785080   166.14571877
 H     37  35  33     1.094526763898   111.64050148   249.13597422
 H     37  35  33     1.096714014701   110.46261017   130.62009569
 H     40  30  27     1.102175217252   106.66856000   320.86907627
 C     40  30  27     1.548702952998   118.76778559    81.14368782
 C     30  27  24     1.535177174597   111.20489085   294.21784933
 H     45  30  27     1.094718386775   111.60912391   186.43369656
 H     45  30  27     1.094430686934   111.46499614    66.46857569
 H     45  30  27     1.095426899593   110.76268796   306.33892721
 H     44  40  30     1.102922584955   106.73082595    62.17333367
 C     44  40  30     1.527287547768   113.46693806   303.11441411
 C     44  40  30     1.511741493047   108.51855893   176.62099480
 C     51  44  40     1.333816439361   126.49630753   115.36513873
 H     51  44  40     1.088854773959   114.51207306   296.91564617
 H     52  51  44     1.091614175792   118.84242542     1.31272971
 C     52  51  44     1.511186557168   127.68925716   181.07686638
 C     55  52  51     1.538619254527   108.96138277   133.56096329
 C     55  52  51     1.543519519672   115.03165187     5.28859867
 H     55  52  51     1.103920182299   106.12883867   247.90223806
 H     57  55  52     1.099557714216   106.79273632   314.21740005
 C     57  55  52     1.531956524010   111.52596347   197.96013031
 C     57  55  52     1.532464119906   113.09435710    73.09861329
 H     56  55  52     1.095130082282   110.99834144   298.54919263
 H     56  55  52     1.094581697238   111.60448013   177.57766950
 H     56  55  52     1.095294414378   110.28970933    57.80618190
 H     60  57  55     1.096010736045   111.30494716    55.22940394
 H     60  57  55     1.096157761240   111.47008400   294.51852511
 H     60  57  55     1.095839183404   110.49973024   175.20259611
 H     61  57  55     1.094524195716   111.93237286   311.14546060
 H     61  57  55     1.095777220062   110.43109809   190.61494404
 H     61  57  55     1.096211420751   110.78207676    71.62733154
 H     50  44  40     1.091659037490   111.09818982    67.27023142
 H     50  44  40     1.096563722341   111.40908145   306.89024492
 H     50  44  40     1.095352712700   110.63150073   186.69898172

---------------------------
INTERNAL COORDINATES (A.U.)
---------------------------
 C      0   0   0     0.000000000000     0.00000000     0.00000000
 C      1   0   0     2.854811858919     0.00000000     0.00000000
 C      2   1   0     2.898904323701   110.51582246     0.00000000
 H      2   1   3     2.070913061473   110.66816578   237.87507160
 H      2   1   3     2.079008483114   109.81267763   118.77332054
 C      1   2   3     2.796289498358   113.98051413   306.30530358
 C      6   1   2     2.858903924820   114.43814682    49.59221065
 C      3   2   1     2.890566117027   110.16008329    56.71477715
 H      7   6   1     2.069695847466   110.21525940   188.81044740
 H      7   6   1     2.080017517623   108.27299732    72.15995920
 H      8   3   2     2.075990717204   108.31141808    64.36434652
 H      8   3   2     2.071445987620   109.52144072   181.37079423
 O      3   2   1     2.716028790579   110.68438427   292.70262002
 H      3   2   1     2.072946754678   109.49682908   177.17800579
 C      1   2   3     2.559279241730   121.16902690   123.23150148
 C      6   1   2     2.527690858316   123.12397568   231.52289644
 H     16   6   1     2.053745276316   121.34374959   359.05109063
 H     16   6   1     2.055117579055   120.96463153   178.42661017
 C     15   1   2     2.730977687188   126.17660255   185.10143570
 H     15   1   2     2.058529466381   116.25614836     3.01525775
 C     19  15   1     2.551130590402   126.39604345   186.31258169
 H     19  15   1     2.055578542002   115.75841615     6.90751485
 C     21  19  15     2.848450712267   125.66106239     2.43582443
 C     23  21  19     2.912226632734   111.35373457   124.00018977
 H     23  21  19     2.065940984179   112.39262519     0.48148277
 H     23  21  19     2.081598481271   107.94821351   242.54362893
 C     24  23  21     2.899678214773   112.68772432    51.30160310
 H     24  23  21     2.073861334772   108.97158742   289.15080838
 H     24  23  21     2.072857769726   109.13758294   173.20818132
 C     27  24  23     2.901147490017   111.91213889   306.27280760
 H     27  24  23     2.068621585311   108.85052597   182.67748294
 H     27  24  23     2.079584555304   109.19571911    66.27582360
 C     21  19  15     2.830590162193   122.95398061   180.08577496
 H     33  21  19     2.088809436270   106.41377135   127.81642361
 C     33  21  19     2.882451575426   121.11552257     5.20543709
 H     13   3   2     1.828764228185   107.61019040    42.91052191
 C     35  33  21     2.926119582421   103.61478590   197.09774201
 H     35  33  21     2.069151176850   112.05370795    75.13565443
 H     35  33  21     2.070379680343   110.85078292   315.50120710
 C     30  27  24     2.938029022959   116.12785080   166.14571877
 H     37  35  33     2.068355830014   111.64050148   249.13597422
 H     37  35  33     2.072489135017   110.46261017   130.62009569
 H     40  30  27     2.082809312201   106.66856000   320.86907627
 C     40  30  27     2.926624443962   118.76778559    81.14368782
 C     30  27  24     2.901064427035   111.20489085   294.21784933
 H     45  30  27     2.068717944772   111.60912391   186.43369656
 H     45  30  27     2.068174270864   111.46499614    66.46857569
 H     45  30  27     2.070056839961   110.76268796   306.33892721
 H     44  40  30     2.084221632482   106.73082595    62.17333367
 C     44  40  30     2.886155193030   113.46693806   303.11441411
 C     44  40  30     2.856777407145   108.51855893   176.62099480
 C     51  44  40     2.520547783315   126.49630753   115.36513873
 H     51  44  40     2.057637322396   114.51207306   296.91564617
 H     52  51  44     2.062851836154   118.84242542     1.31272971
 C     52  51  44     2.855728730310   127.68925716   181.07686638
 C     55  52  51     2.907569015435   108.96138277   133.56096329
 C     55  52  51     2.916829174541   115.03165187     5.28859867
 H     55  52  51     2.086106818253   106.12883867   247.90223806
 H     57  55  52     2.077862948308   106.79273632   314.21740005
 C     57  55  52     2.894978279453   111.52596347   197.96013031
 C     57  55  52     2.895937496684   113.09435710    73.09861329
 H     56  55  52     2.069495936532   110.99834144   298.54919263
 H     56  55  52     2.068459638982   111.60448013   177.57766950
 H     56  55  52     2.069806479188   110.28970933    57.80618190
 H     60  57  55     2.071160130962   111.30494716    55.22940394
 H     60  57  55     2.071437968315   111.47008400   294.51852511
 H     60  57  55     2.070835943453   110.49973024   175.20259611
 H     61  57  55     2.068350976854   111.93237286   311.14546060
 H     61  57  55     2.070718849707   110.43109809   190.61494404
 H     61  57  55     2.071539370096   110.78207676    71.62733154
 H     50  44  40     2.062936612476   111.09818982    67.27023142
 H     50  44  40     2.072205123617   111.40908145   306.89024492
 H     50  44  40     2.069916647051   110.63150073   186.69898172

---------------------
BASIS SET INFORMATION
---------------------
There are 3 groups of distinct atoms

 Group   1 Type C   : 7s4p contracted to 4s3p pattern {4111/211}
 Group   2 Type H   : 5s contracted to 3s pattern {311}
 Group   3 Type O   : 7s4p contracted to 4s3p pattern {4111/211}

Atom   0C    basis set group =>   1
Atom   1C    basis set group =>   1
Atom   2C    basis set group =>   1
Atom   3H    basis set group =>   2
Atom   4H    basis set group =>   2
Atom   5C    basis set group =>   1
Atom   6C    basis set group =>   1
Atom   7C    basis set group =>   1
Atom   8H    basis set group =>   2
Atom   9H    basis set group =>   2
Atom  10H    basis set group =>   2
Atom  11H    basis set group =>   2
Atom  12O    basis set group =>   3
Atom  13H    basis set group =>   2
Atom  14C    basis set group =>   1
Atom  15C    basis set group =>   1
Atom  16H    basis set group =>   2
Atom  17H    basis set group =>   2
Atom  18C    basis set group =>   1
Atom  19H    basis set group =>   2
Atom  20C    basis set group =>   1
Atom  21H    basis set group =>   2
Atom  22C    basis set group =>   1
Atom  23C    basis set group =>   1
Atom  24H    basis set group =>   2
Atom  25H    basis set group =>   2
Atom  26C    basis set group =>   1
Atom  27H    basis set group =>   2
Atom  28H    basis set group =>   2
Atom  29C    basis set group =>   1
Atom  30H    basis set group =>   2
Atom  31H    basis set group =>   2
Atom  32C    basis set group =>   1
Atom  33H    basis set group =>   2
Atom  34C    basis set group =>   1
Atom  35H    basis set group =>   2
Atom  36C    basis set group =>   1
Atom  37H    basis set group =>   2
Atom  38H    basis set group =>   2
Atom  39C    basis set group =>   1
Atom  40H    basis set group =>   2
Atom  41H    basis set group =>   2
Atom  42H    basis set group =>   2
Atom  43C    basis set group =>   1
Atom  44C    basis set group =>   1
Atom  45H    basis set group =>   2
Atom  46H    basis set group =>   2
Atom  47H    basis set group =>   2
Atom  48H    basis set group =>   2
Atom  49C    basis set group =>   1
Atom  50C    basis set group =>   1
Atom  51C    basis set group =>   1
Atom  52H    basis set group =>   2
Atom  53H    basis set group =>   2
Atom  54C    basis set group =>   1
Atom  55C    basis set group =>   1
Atom  56C    basis set group =>   1
Atom  57H    basis set group =>   2
Atom  58H    basis set group =>   2
Atom  59C    basis set group =>   1
Atom  60C    basis set group =>   1
Atom  61H    basis set group =>   2
Atom  62H    basis set group =>   2
Atom  63H    basis set group =>   2
Atom  64H    basis set group =>   2
Atom  65H    basis set group =>   2
Atom  66H    basis set group =>   2
Atom  67H    basis set group =>   2
Atom  68H    basis set group =>   2
Atom  69H    basis set group =>   2
Atom  70H    basis set group =>   2
Atom  71H    basis set group =>   2
Atom  72H    basis set group =>   2

-------------------------
BASIS SET IN INPUT FORMAT
-------------------------

 # Basis set for element : H 
 NewGTO H 
 S 3 
   1    1357.7500000000      0.0012928364
   2      54.3100000000      0.0588280685
   3       4.3448000000      0.9761499708
 S 1 
   1       0.6604910000      1.0000000000
 S 1 
   1       0.1366870000      1.0000000000
  end;

 # Basis set for element : C 
 NewGTO C 
 S 4 
   1  139534.0000000000      0.0001655246
   2    5581.3600000000      0.0074486101
   3     446.5090000000      0.1285821065
   4      67.4620000000      0.9218029311
 S 1 
   1      15.0674000000      1.0000000000
 S 1 
   1       3.9387600000      1.0000000000
 S 1 
   1       0.2999150000      1.0000000000
 P 2 
   1      28.3900000000      0.0816325586
   2       4.3676900000      0.9660360576
 P 1 
   1       0.8698170000      1.0000000000
 P 1 
   1       0.1889340000      1.0000000000
  end;

 # Basis set for element : O 
 NewGTO O 
 S 4 
   1  253789.0000000000      0.0001641076
   2   10151.6000000000      0.0074010921
   3     812.1250000000      0.1277711901
   4     122.6930000000      0.9223372164
 S 1 
   1      27.5608000000      1.0000000000
 S 1 
   1       7.3172600000      1.0000000000
 S 1 
   1       0.5792400000      1.0000000000
 P 2 
   1      53.4157000000      0.0793786106
   2       8.2177900000      0.9670506337
 P 1 
   1       1.6754400000      1.0000000000
 P 1 
   1       0.3506720000      1.0000000000
  end;

---------------------------------
AUXILIARY/J BASIS SET INFORMATION
---------------------------------
There are 3 groups of distinct atoms

 Group   1 Type C   : 12s5p4d2f1g contracted to 6s4p3d1f1g pattern {711111/2111/211/2/1}
 Group   2 Type H   : 5s2p1d contracted to 3s1p1d pattern {311/2/1}
 Group   3 Type O   : 12s5p4d2f1g contracted to 6s4p3d1f1g pattern {711111/2111/211/2/1}

Atom   0C    basis set group =>   1
Atom   1C    basis set group =>   1
Atom   2C    basis set group =>   1
Atom   3H    basis set group =>   2
Atom   4H    basis set group =>   2
Atom   5C    basis set group =>   1
Atom   6C    basis set group =>   1
Atom   7C    basis set group =>   1
Atom   8H    basis set group =>   2
Atom   9H    basis set group =>   2
Atom  10H    basis set group =>   2
Atom  11H    basis set group =>   2
Atom  12O    basis set group =>   3
Atom  13H    basis set group =>   2
Atom  14C    basis set group =>   1
Atom  15C    basis set group =>   1
Atom  16H    basis set group =>   2
Atom  17H    basis set group =>   2
Atom  18C    basis set group =>   1
Atom  19H    basis set group =>   2
Atom  20C    basis set group =>   1
Atom  21H    basis set group =>   2
Atom  22C    basis set group =>   1
Atom  23C    basis set group =>   1
Atom  24H    basis set group =>   2
Atom  25H    basis set group =>   2
Atom  26C    basis set group =>   1
Atom  27H    basis set group =>   2
Atom  28H    basis set group =>   2
Atom  29C    basis set group =>   1
Atom  30H    basis set group =>   2
Atom  31H    basis set group =>   2
Atom  32C    basis set group =>   1
Atom  33H    basis set group =>   2
Atom  34C    basis set group =>   1
Atom  35H    basis set group =>   2
Atom  36C    basis set group =>   1
Atom  37H    basis set group =>   2
Atom  38H    basis set group =>   2
Atom  39C    basis set group =>   1
Atom  40H    basis set group =>   2
Atom  41H    basis set group =>   2
Atom  42H    basis set group =>   2
Atom  43C    basis set group =>   1
Atom  44C    basis set group =>   1
Atom  45H    basis set group =>   2
Atom  46H    basis set group =>   2
Atom  47H    basis set group =>   2
Atom  48H    basis set group =>   2
Atom  49C    basis set group =>   1
Atom  50C    basis set group =>   1
Atom  51C    basis set group =>   1
Atom  52H    basis set group =>   2
Atom  53H    basis set group =>   2
Atom  54C    basis set group =>   1
Atom  55C    basis set group =>   1
Atom  56C    basis set group =>   1
Atom  57H    basis set group =>   2
Atom  58H    basis set group =>   2
Atom  59C    basis set group =>   1
Atom  60C    basis set group =>   1
Atom  61H    basis set group =>   2
Atom  62H    basis set group =>   2
Atom  63H    basis set group =>   2
Atom  64H    basis set group =>   2
Atom  65H    basis set group =>   2
Atom  66H    basis set group =>   2
Atom  67H    basis set group =>   2
Atom  68H    basis set group =>   2
Atom  69H    basis set group =>   2
Atom  70H    basis set group =>   2
Atom  71H    basis set group =>   2
Atom  72H    basis set group =>   2

-------------------------------------
AUXILIARY/J BASIS SET IN INPUT FORMAT
-------------------------------------

 # Auxiliary/J basis set for element : H 
 NewAuxJGTO H 
 S 3 
   1      15.6752927000      0.1007184237
   2       3.6063578000      0.3404257499
   3       1.2080016000      0.6491996172
 S 1 
   1       0.4726794000      1.0000000000
 S 1 
   1       0.2018100000      1.0000000000
 P 2 
   1       2.0281365000      0.5596620919
   2       0.5358730000      0.5596620919
 D 1 
   1       2.2165124000      1.0000000000
  end;

 # Auxiliary/J basis set for element : C 
 NewAuxJGTO C 
 S 7 
   1    1861.0916331000      0.0134602335
   2     642.9939764000      0.0299160374
   3     235.1105725000      0.1008649584
   4      90.7028894000      0.2370970548
   5      36.7794552000      0.3924037254
   6      15.6046273000      0.3195862154
   7       6.8907294000      0.0530104441
 S 1 
   1       3.1478850000     -1.0000000000
 S 1 
   1       1.4777287000      1.0000000000
 S 1 
   1       0.7076466000      1.0000000000
 S 1 
   1       0.3430122000      1.0000000000
 S 1 
   1       0.1669453000      1.0000000000
 P 2 
   1      13.5472892000     -0.6769313712
   2       5.4669419000     -0.3779500978
 P 1 
   1       2.1751721000      1.0000000000
 P 1 
   1       0.8582194000      1.0000000000
 P 1 
   1       0.3376720000      1.0000000000
 D 2 
   1       5.9287253000     -0.3533329857
   2       1.9809209000     -0.7456525731
 D 1 
   1       0.8055417000     -1.0000000000
 D 1 
   1       0.3531244000     -1.0000000000
 F 2 
   1       1.6755626000      0.6311076882
   2       0.5997536000      0.4968166032
 G 1 
   1       1.0024600000     -1.0000000000
  end;

 # Auxiliary/J basis set for element : O 
 NewAuxJGTO O 
 S 7 
   1    2876.8216605000      0.0168151159
   2    1004.7443032000      0.0340137548
   3     369.7579954000      0.1194951309
   4     142.9442404000      0.2664627624
   5      57.8366425000      0.4202764046
   6      24.3864983000      0.2765077335
   7      10.6622662000      0.0057008815
 S 1 
   1       4.8070437000     -1.0000000000
 S 1 
   1       2.2210770000      1.0000000000
 S 1 
   1       1.0447795000      1.0000000000
 S 1 
   1       0.4968425000      1.0000000000
 S 1 
   1       0.2371384000      1.0000000000
 P 2 
   1      64.2613382000     -0.2731534179
   2      16.3006076000     -0.8168011598
 P 1 
   1       4.3550542000      1.0000000000
 P 1 
   1       1.2019554000      1.0000000000
 P 1 
   1       0.3354196000      1.0000000000
 D 2 
   1       9.2146611000     -0.4661230638
   2       2.8435251000     -0.6600908911
 D 1 
   1       0.9955759000     -1.0000000000
 D 1 
   1       0.3649441000     -1.0000000000
 F 2 
   1       2.6420115000      0.5931563945
   2       0.7345613000      0.5931563945
 G 1 
   1       1.3931000000     -1.0000000000
  end;


Checking for AutoStart:
The File: inpJ.gbw exists
Trying to determine its content:
     ... Fine, the file contains calculation information
     ... Fine, the calculation information was read
     ... Fine, the file contains a basis set
     ... Fine, the basis set was read
     ... Fine, the file contains a geometry
     ... Fine, the geometry was read
     ... Fine, the file contains a set of orbitals
     ... Fine, the orbitals can be read
     => possible old guess file was deleted
     => GBW file was renamed to GES file
     => GES file is set as startup file
     => Guess is set to MORead
     ... now leaving AutoStart



           ************************************************************
           *        Program running with 4 parallel MPI-processes     *
           *              working on a common directory               *
           ************************************************************
------------------------------------------------------------------------------
                             ORCA STARTUP CALCULATIONS
                           -- RI-GTO INTEGRALS CHOSEN --
------------------------------------------------------------------------------
------------------------------------------------------------------------------
                   ___                                                        
                  /   \      - P O W E R E D   B Y -                         
                 /     \                                                     
                 |  |  |   _    _      __       _____    __    __             
                 |  |  |  | |  | |    /  \     |  _  \  |  |  /  |          
                  \  \/   | |  | |   /    \    | | | |  |  | /  /          
                 / \  \   | |__| |  /  /\  \   | |_| |  |  |/  /          
                |  |  |   |  __  | /  /__\  \  |    /   |      \           
                |  |  |   | |  | | |   __   |  |    \   |  |\   \          
                \     /   | |  | | |  |  |  |  | |\  \  |  | \   \       
                 \___/    |_|  |_| |__|  |__|  |_| \__\ |__|  \__/        
                                                                              
                      - O R C A' S   B I G   F R I E N D -                    
                                      &                                       
                       - I N T E G R A L  F E E D E R -                       
                                                                              
 v1 FN, 2020, v2 2021, v3 2022-2024                                           
------------------------------------------------------------------------------


----------------------
SHARK INTEGRAL PACKAGE
----------------------

Number of atoms                             ...     73
Number of basis functions                   ...    509
Number of shells                            ...    335
Maximum angular momentum                    ...      1
Integral batch strategy                     ... SHARK/LIBINT Hybrid
RI-J (if used) integral strategy            ... SPLIT-RIJ (Revised 2003 algorithm where possible)
Printlevel                                  ...      1
Contraction scheme used                     ... SEGMENTED contraction
Prescreening option                         ... SCHWARTZ
   Thresh                                   ... 3.000e-11
   Tcut                                     ... 1.000e-12
   Tpresel                                  ... 1.000e-12 
Coulomb Range Separation                    ... NOT USED
Exchange Range Separation                   ... NOT USED
Multipole approximations                    ... NOT USED
Finite Nucleus Model                        ... NOT USED
CABS basis                                  ... NOT available
Auxiliary Coulomb fitting basis             ... AVAILABLE
   # of basis functions in Aux-J            ...   1905
   # of shells in Aux-J                     ...    655
   Maximum angular momentum in Aux-J        ...      4
Auxiliary J/K fitting basis                 ... NOT available
Auxiliary Correlation fitting basis         ... NOT available
Auxiliary 'external' fitting basis          ... NOT available

Checking pre-screening integrals            ... done (  0.0 sec) Dimension = 335
Check shell pair data                       ... done (  0.0 sec)
Shell pair information
Shell pair cut-off parameter TPreSel        ...   1.0e-12
Total number of shell pairs                 ...     56280
Shell pairs after pre-screening             ...     21984
Total number of primitive shell pairs       ...    145865
Primitive shell pairs kept                  ...     37770
          la=0 lb=0:  11057 shell pairs
          la=1 lb=0:   9039 shell pairs
          la=1 lb=1:   1888 shell pairs

Calculating one electron integrals          ... done (  0.0 sec)
Calculating RI/J V-Matrix + Cholesky decomp.... done (  0.2 sec)
Calculating Nuclear repulsion               ... done (  0.0 sec) ENN=   2792.807003849360 Eh

Diagonalization of the overlap matrix:
Smallest eigenvalue                        ... 7.577e-03
Time for diagonalization                   ...    0.028 sec
Threshold for overlap eigenvalues          ... 1.000e-07
Number of eigenvalues below threshold      ... 0
Time for construction of square roots      ...    0.017 sec
Total time needed                          ...    0.047 sec

-------------------
DFT GRID GENERATION
-------------------

General Integration Accuracy     IntAcc      ... 4.388
Radial Grid Type                 RadialGrid  ... OptM3 with GC (2021)
Angular Grid (max. ang.)         AngularGrid ... 4 (Lebedev-302)
Angular grid pruning method      GridPruning ... 4 (adaptive)
Weight generation scheme         WeightScheme... mBecke (2022)
Basis function cutoff            BFCut       ... 1.0000e-11
Integration weight cutoff        WCut        ... 1.0000e-14
Partially contracted basis set               ... off
Rotationally invariant grid construction     ... off
Angular grids for H and He will be reduced by one unit

Total number of grid points                  ...   309777
Total number of batches                      ...     4875
Average number of points per batch           ...       63
Average number of grid points per atom       ...     4244

--------------------
COSX GRID GENERATION
--------------------

GRIDX 1
-------
General Integration Accuracy     IntAcc      ... 3.816
Radial Grid Type                 RadialGrid  ... OptM3 with GC (2021)
Angular Grid (max. ang.)         AngularGrid ... 1 (Lebedev-50)
Angular grid pruning method      GridPruning ... 4 (adaptive)
Weight generation scheme         WeightScheme... mBecke (2022)
Basis function cutoff            BFCut       ... 1.0000e-11
Integration weight cutoff        WCut        ... 1.0000e-14
Partially contracted basis set               ... on
Rotationally invariant grid construction     ... off
Angular grids for H and He will be reduced by one unit

Total number of grid points                  ...    39370
Total number of batches                      ...      351
Average number of points per batch           ...      112
Average number of grid points per atom       ...      539
UseSFitting                                  ... on

GRIDX 2
-------
General Integration Accuracy     IntAcc      ... 4.020
Radial Grid Type                 RadialGrid  ... OptM3 with GC (2021)
Angular Grid (max. ang.)         AngularGrid ... 2 (Lebedev-110)
Angular grid pruning method      GridPruning ... 4 (adaptive)
Weight generation scheme         WeightScheme... mBecke (2022)
Basis function cutoff            BFCut       ... 1.0000e-11
Integration weight cutoff        WCut        ... 1.0000e-14
Partially contracted basis set               ... on
Rotationally invariant grid construction     ... off
Angular grids for H and He will be reduced by one unit

Total number of grid points                  ...    81294
Total number of batches                      ...      676
Average number of points per batch           ...      120
Average number of grid points per atom       ...     1114
UseSFitting                                  ... on

GRIDX 3
-------
General Integration Accuracy     IntAcc      ... 4.338
Radial Grid Type                 RadialGrid  ... OptM3 with GC (2021)
Angular Grid (max. ang.)         AngularGrid ... 3 (Lebedev-194)
Angular grid pruning method      GridPruning ... 4 (adaptive)
Weight generation scheme         WeightScheme... mBecke (2022)
Basis function cutoff            BFCut       ... 1.0000e-11
Integration weight cutoff        WCut        ... 1.0000e-14
Partially contracted basis set               ... on
Rotationally invariant grid construction     ... off
Angular grids for H and He will be reduced by one unit

Total number of grid points                  ...   176113
Total number of batches                      ...     1416
Average number of points per batch           ...      124
Average number of grid points per atom       ...     2413
UseSFitting                                  ... on
Initializing property integral containers    ... done (  0.0 sec)

SHARK setup successfully completed in   3.7 seconds

Maximum memory used throughout the entire STARTUP-calculation: 85.8 MB


           ************************************************************
           *        Program running with 4 parallel MPI-processes     *
           *              working on a common directory               *
           ************************************************************
-------------------------------------------------------------------------------
                                 ORCA GUESS
                   Start orbitals & Density for SCF / CASSCF
-------------------------------------------------------------------------------

------------
SCF SETTINGS
------------
Hamiltonian:
 Density Functional     Method          .... DFT(GTOs)
 Exchange Functional    Exchange        .... PBE
   PBE kappa parameter   XKappa         ....  0.804000
   PBE mue parameter    XMuePBE         ....  0.219520
 Correlation Functional Correlation     .... PBE
   PBE beta parameter  CBetaPBE         ....  0.066725
 LDA part of GGA corr.  LDAOpt          .... PW91-LDA
 Gradients option       PostSCFGGA      .... off
 Hybrid DFT is turned on
   Fraction HF Exchange ScalHFX         ....  0.250000
   Scaling of DF-GGA-X  ScalDFX         ....  0.750000
   Scaling of DF-GGA-C  ScalDFC         ....  1.000000
   Scaling of DF-LDA-C  ScalLDAC        ....  1.000000
   Perturbative correction              ....  0.000000
   NL short-range parameter             ....  6.900000
 RI-approximation to the Coulomb term is turned on
   Number of AuxJ basis functions       .... 1905
   RIJ-COSX (HFX calculated with COS-X)).... on


General Settings:
 Integral files         IntName         .... inpJ
 Hartree-Fock type      HFTyp           .... RHF
 Total Charge           Charge          ....    0
 Multiplicity           Mult            ....    1
 Number of Electrons    NEL             ....  220
 Basis Dimension        Dim             ....  509
 Nuclear Repulsion      ENuc            ....   2792.8070038494 Eh

Convergence Acceleration:
 AO-DIIS                CNVDIIS         .... on
   Start iteration      DIISMaxIt       ....    12
   Startup error        DIISStart       ....  0.200000
   # of expansion vecs  DIISMaxEq       ....     5
   Bias factor          DIISBfac        ....   1.050
   Max. coefficient     DIISMaxC        ....  10.000
 MO-DIIS                CNVKDIIS        .... off
 Trust-Rad. Augm. Hess. CNVTRAH         .... auto
   Auto Start mean grad. ratio tolernc. ....  1.125000
   Auto Start start iteration           ....     1
   Auto Start num. interpolation iter.  ....    10
   Max. Number of Micro iterations      ....    24
   Max. Number of Macro iterations      .... Maxiter - #DIIS iter
   Number of Davidson start vectors     ....     2
   Converg. threshold    (grad. norm)   ....   1.000e-04
   Grad. Scal. Fac. for Micro threshold ....   0.100
   Minimum threshold for Micro iter.    ....   1.000e-02
   NR start threshold (gradient norm)   ....   1.000e-04
   Initial trust radius                 ....   0.400
   Minimum AH scaling param. (alpha)    ....   1.000
   Maximum AH scaling param. (alpha)    .... 1000.000
   Quad. conv. algorithm                .... NR
   White noise on init. David. guess    .... on
   Maximum white noise                  ....   0.010
   Pseudo random numbers                .... off
   Inactive MOs                         .... canonical
   Orbital update algorithm             .... Taylor
   Preconditioner                       .... Diag
   Full preconditioner red. dimension   ....   250
 SOSCF                  CNVSOSCF        .... off
 Level Shifting         CNVShift        .... on
   Level shift para.    LevelShift      ....    0.2500
   Turn off err/grad.   ShiftErr        ....    0.0010
 Zerner damping         CNVZerner       .... off
 Static damping         CNVDamp         .... on
   Fraction old density DampFac         ....    0.7000
   Max. Damping (<1)    DampMax         ....    0.9800
   Min. Damping (>=0)   DampMin         ....    0.0000
   Turn off err/grad.   DampErr         ....    0.1000

SCF Procedure:
 Maximum # iterations   MaxIter         ....   125
 SCF integral mode      SCFMode         .... Direct
   Integral package                     .... SHARK and LIBINT hybrid scheme
 Reset frequency        DirectResetFreq ....    20
 Integral Threshold     Thresh          ....  3.000e-11 Eh
 Primitive CutOff       TCut            ....  1.000e-12 Eh

Convergence Tolerance:
 Convergence Check Mode ConvCheckMode   .... Total+1el-Energy
 Convergence forced     ConvForced      .... 0
 Energy Change          TolE            ....  1.000e-07 Eh
 1-El. energy change                    ....  1.000e-04 Eh
 DIIS Error             TolErr          ....  1.000e-07

---------------------
INITIAL GUESS: MOREAD
---------------------
Guess MOs are being read from file: inpJ.ges
Input Geometry matches current geometry (good)
Input basis set matches current basis set (good)
Occupation numbers will be reassigned to an Aufbau configuration
MOs were renormalized
MOs were reorthogonalized (Cholesky)
                      ------------------
                      INITIAL GUESS DONE (   0.1 sec)
                      ------------------
             **** ENERGY FILE WAS UPDATED (inpJ.en.tmp) ****
Finished Guess after   0.3 sec
Maximum memory used throughout the entire GUESS-calculation: 36.8 MB


           ************************************************************
           *        Program running with 4 parallel MPI-processes     *
           *              working on a common directory               *
           ************************************************************

-------------------------------------------------------------------------------------------
                                      ORCA LEAN-SCF
                              memory conserving SCF solver
-------------------------------------------------------------------------------------------

--------------------
CPCM SOLVATION MODEL
--------------------
CPCM parameters:
  Epsilon                                         ...       4.8030
  Refrac                                          ...       1.4459
  Rsolv                                           ...       1.3000
  Surface type                                    ... GAUSSIAN VDW
  Discretization scheme                           ... Constant charge density
    Threshold for H atoms                         ...       5.0000 (charges/Ang^2)
    Threshold for non-H atoms                     ...       5.0000 (charges/Ang^2)
  Epsilon function type                           ...         CPCM
Solvent:                                          ... CHLOROFORM
Radii:
  Scheme                                          ... Element-dependent radii
  Radius for C  used is    3.8550 Bohr (=   2.0400 Ang.)
  Radius for H  used is    2.4944 Bohr (=   1.3200 Ang.)
  Radius for O  used is    3.4469 Bohr (=   1.8240 Ang.)
Calculating surface                               ...        done! (  0.0s)
Cavity surface points                             ...         5320
Cavity Volume                                     ...    3612.7426
Cavity Surface-area                               ...    1780.4077
Calculating surface distance matrix               ...        done! (  0.2s)
Performing Cholesky decomposition & store         ...        done! (  0.9s)
Overall time for CPCM initialization              ...                 1.1s

----------------------------------------D-I-I-S--------------------------------------------
Iteration    Energy (Eh)           Delta-E    RMSDP     MaxDP     DIISErr   Damp  Time(sec)
-------------------------------------------------------------------------------------------
               ***  Starting incremental Fock matrix formation  ***
    1    -1165.5099409615854711     0.00e+00  4.18e-08  5.80e-06  6.67e-06  0.700   6.2

  HOMO= 109 E= -6.016 eV LUMO=  5.931 eV gap=  11.947 eV
    2    -1165.5099409814456521    -1.99e-08  2.82e-08  3.48e-06  3.34e-06  0.700   2.0
                 **** Energy Check signals convergence ****

  HOMO= 109 E= -6.016 eV LUMO=  5.931 eV gap=  11.947 eV

               *****************************************************
               *                     SUCCESS                       *
               *           SCF CONVERGED AFTER   2 CYCLES          *
               *****************************************************

Recomputing exchange energy using gridx3       ... done (    8.419 sec)
Old exchange energy                            :    -42.067954167 Eh
New exchange energy                            :    -42.067929551 Eh
Exchange energy change after final integration :      0.000024617 Eh
Total energy after final integration           :  -1165.509916365 Eh
             **** ENERGY FILE WAS UPDATED (inpJ.en.tmp) ****

----------------
TOTAL SCF ENERGY
----------------

Total Energy       :      -1165.50991636493472 Eh          -31715.13719 eV

Components:
Nuclear Repulsion  :       2792.80700384935972 Eh           75996.14214 eV
Electronic Energy  :      -3958.30336345264323 Eh         -107710.91044 eV
One Electron Energy:      -7127.29368958124087 Eh         -193943.52119 eV
Two Electron Energy:       3168.99032612859764 Eh           86232.61076 eV
CPCM Dielectric    :         -0.01358137816226 Eh              -0.36957 eV

Virial components:
Potential Energy   :      -2322.40128375687436 Eh          -63195.75174 eV
Kinetic Energy     :       1156.89136739193964 Eh           31480.61455 eV
Virial Ratio       :          2.00744974784661

DFT components:
N(Alpha)           :      109.999987068985 electrons
N(Beta)            :      109.999987068985 electrons
N(Total)           :      219.999974137969 electrons
E(X)               :     -125.746249104927 Eh       
E(C)               :       -7.329657799959 Eh       
E(XC)              :     -133.075906904886 Eh       

CPCM Solvation Model Properties:
Surface-charge          :         -0.03314419840289
Corrected charge        :         -0.00000000000000
Outlying charge corr.   :          0.00003865544186 Eh               0.00105 eV
Free-energy (cav+disp)  :  This term is not implemented in the current solvation scheme

---------------
SCF CONVERGENCE
---------------

  Last Energy change         ...    1.9860e-08  Tolerance :   1.0000e-07
  Last MAX-Density change    ...    3.4753e-06  Tolerance :   1.0000e-05
  Last RMS-Density change    ...    2.8208e-08  Tolerance :   1.0000e-06
  Last DIIS Error            ...    3.3431e-06  Tolerance :   1.0000e-07


----------------
ORBITAL ENERGIES
----------------

  NO   OCC          E(Eh)            E(eV) 
   0   2.0000     -19.212670      -522.8033 
   1   2.0000     -10.300592      -280.2934 
   2   2.0000     -10.270731      -279.4808 
   3   2.0000     -10.268520      -279.4206 
   4   2.0000     -10.264049      -279.2990 
   5   2.0000     -10.257798      -279.1289 
   6   2.0000     -10.257706      -279.1264 
   7   2.0000     -10.252550      -278.9861 
   8   2.0000     -10.251563      -278.9592 
   9   2.0000     -10.248405      -278.8733 
  10   2.0000     -10.247728      -278.8549 
  11   2.0000     -10.247322      -278.8438 
  12   2.0000     -10.247263      -278.8422 
  13   2.0000     -10.246878      -278.8317 
  14   2.0000     -10.245027      -278.7814 
  15   2.0000     -10.243490      -278.7395 
  16   2.0000     -10.243045      -278.7274 
  17   2.0000     -10.242112      -278.7020 
  18   2.0000     -10.241969      -278.6981 
  19   2.0000     -10.241729      -278.6916 
  20   2.0000     -10.240377      -278.6548 
  21   2.0000     -10.236054      -278.5372 
  22   2.0000     -10.235655      -278.5263 
  23   2.0000     -10.234420      -278.4927 
  24   2.0000     -10.226420      -278.2750 
  25   2.0000     -10.224833      -278.2318 
  26   2.0000     -10.224499      -278.2228 
  27   2.0000     -10.222169      -278.1594 
  28   2.0000     -10.221478      -278.1406 
  29   2.0000      -1.043458       -28.3939 
  30   2.0000      -0.902189       -24.5498 
  31   2.0000      -0.882366       -24.0104 
  32   2.0000      -0.860226       -23.4079 
  33   2.0000      -0.846490       -23.0342 
  34   2.0000      -0.822498       -22.3813 
  35   2.0000      -0.814876       -22.1739 
  36   2.0000      -0.796076       -21.6623 
  37   2.0000      -0.795228       -21.6393 
  38   2.0000      -0.775500       -21.1024 
  39   2.0000      -0.759256       -20.6604 
  40   2.0000      -0.742443       -20.2029 
  41   2.0000      -0.734248       -19.9799 
  42   2.0000      -0.715966       -19.4824 
  43   2.0000      -0.703187       -19.1347 
  44   2.0000      -0.702042       -19.1035 
  45   2.0000      -0.696584       -18.9550 
  46   2.0000      -0.671307       -18.2672 
  47   2.0000      -0.663324       -18.0500 
  48   2.0000      -0.636359       -17.3162 
  49   2.0000      -0.622696       -16.9444 
  50   2.0000      -0.614123       -16.7111 
  51   2.0000      -0.607713       -16.5367 
  52   2.0000      -0.598062       -16.2741 
  53   2.0000      -0.583281       -15.8719 
  54   2.0000      -0.557384       -15.1672 
  55   2.0000      -0.541584       -14.7372 
  56   2.0000      -0.531157       -14.4535 
  57   2.0000      -0.529514       -14.4088 
  58   2.0000      -0.515517       -14.0279 
  59   2.0000      -0.510152       -13.8819 
  60   2.0000      -0.504100       -13.7173 
  61   2.0000      -0.494582       -13.4582 
  62   2.0000      -0.487432       -13.2637 
  63   2.0000      -0.481389       -13.0993 
  64   2.0000      -0.476912       -12.9774 
  65   2.0000      -0.467567       -12.7231 
  66   2.0000      -0.465834       -12.6760 
  67   2.0000      -0.462350       -12.5812 
  68   2.0000      -0.459620       -12.5069 
  69   2.0000      -0.453901       -12.3513 
  70   2.0000      -0.450001       -12.2451 
  71   2.0000      -0.441633       -12.0175 
  72   2.0000      -0.436043       -11.8653 
  73   2.0000      -0.432541       -11.7701 
  74   2.0000      -0.432067       -11.7572 
  75   2.0000      -0.421753       -11.4765 
  76   2.0000      -0.415168       -11.2973 
  77   2.0000      -0.413602       -11.2547 
  78   2.0000      -0.411341       -11.1931 
  79   2.0000      -0.403302       -10.9744 
  80   2.0000      -0.401944       -10.9374 
  81   2.0000      -0.400268       -10.8918 
  82   2.0000      -0.394734       -10.7413 
  83   2.0000      -0.389513       -10.5992 
  84   2.0000      -0.386074       -10.5056 
  85   2.0000      -0.381218       -10.3735 
  86   2.0000      -0.377014       -10.2591 
  87   2.0000      -0.374529       -10.1915 
  88   2.0000      -0.367765       -10.0074 
  89   2.0000      -0.364762        -9.9257 
  90   2.0000      -0.361615        -9.8400 
  91   2.0000      -0.358291        -9.7496 
  92   2.0000      -0.355622        -9.6770 
  93   2.0000      -0.345299        -9.3961 
  94   2.0000      -0.343336        -9.3427 
  95   2.0000      -0.340165        -9.2564 
  96   2.0000      -0.336897        -9.1674 
  97   2.0000      -0.334483        -9.1017 
  98   2.0000      -0.332549        -9.0491 
  99   2.0000      -0.328371        -8.9354 
 100   2.0000      -0.327400        -8.9090 
 101   2.0000      -0.321843        -8.7578 
 102   2.0000      -0.319460        -8.6929 
 103   2.0000      -0.317260        -8.6331 
 104   2.0000      -0.311366        -8.4727 
 105   2.0000      -0.302547        -8.2327 
 106   2.0000      -0.276946        -7.5361 
 107   2.0000      -0.275416        -7.4945 
 108   2.0000      -0.255151        -6.9430 
 109   2.0000      -0.221081        -6.0159 
 110   0.0000      -0.032036        -0.8717 
 111   0.0000       0.019151         0.5211 
 112   0.0000       0.030461         0.8289 
 113   0.0000       0.081167         2.2087 
 114   0.0000       0.090351         2.4586 
 115   0.0000       0.097606         2.6560 
 116   0.0000       0.103265         2.8100 
 117   0.0000       0.108362         2.9487 
 118   0.0000       0.109064         2.9678 
 119   0.0000       0.113687         3.0936 
 120   0.0000       0.117330         3.1927 
*Only the first 10 virtual orbitals were printed.

                    ********************************
                    * MULLIKEN POPULATION ANALYSIS *
                    ********************************

-----------------------
MULLIKEN ATOMIC CHARGES
-----------------------
   0 C :    0.078726
   1 C :   -0.500247
   2 C :   -0.074429
   3 H :    0.222929
   4 H :    0.219715
   5 C :    0.138758
   6 C :   -0.480417
   7 C :   -0.439914
   8 H :    0.225547
   9 H :    0.207226
  10 H :    0.208962
  11 H :    0.227941
  12 O :   -0.487944
  13 H :    0.247561
  14 C :   -0.280145
  15 C :   -0.514083
  16 H :    0.201062
  17 H :    0.196999
  18 C :   -0.260984
  19 H :    0.220314
  20 C :    0.153850
  21 H :    0.219255
  22 C :   -0.478808
  23 C :   -0.427629
  24 H :    0.211951
  25 H :    0.207188
  26 C :   -0.397268
  27 H :    0.208658
  28 H :    0.217513
  29 C :    0.000625
  30 H :    0.222928
  31 H :    0.194743
  32 C :   -0.229698
  33 H :    0.228690
  34 C :   -0.429715
  35 H :    0.340993
  36 C :   -0.433459
  37 H :    0.208850
  38 H :    0.198973
  39 C :   -0.185757
  40 H :    0.215670
  41 H :    0.207014
  42 H :    0.212153
  43 C :   -0.238015
  44 C :   -0.628123
  45 H :    0.205622
  46 H :    0.210139
  47 H :    0.201872
  48 H :    0.218884
  49 C :   -0.639781
  50 C :   -0.187706
  51 C :   -0.180151
  52 H :    0.225729
  53 H :    0.215769
  54 C :   -0.229227
  55 C :   -0.630375
  56 C :   -0.214375
  57 H :    0.226842
  58 H :    0.222339
  59 C :   -0.609491
  60 C :   -0.625506
  61 H :    0.201926
  62 H :    0.209081
  63 H :    0.203219
  64 H :    0.200017
  65 H :    0.196510
  66 H :    0.204162
  67 H :    0.214461
  68 H :    0.197595
  69 H :    0.197096
  70 H :    0.215009
  71 H :    0.191404
  72 H :    0.200779
Sum of atomic charges:   -0.0000000

--------------------------------
MULLIKEN REDUCED ORBITAL CHARGES
--------------------------------
  0 C s       :     3.354177  s :     3.354177
      pz      :     0.998139  p :     2.567097
      px      :     0.809700
      py      :     0.759258

  1 C s       :     3.378002  s :     3.378002
      pz      :     1.138256  p :     3.122245
      px      :     0.872755
      py      :     1.111234

  2 C s       :     3.312729  s :     3.312729
      pz      :     0.705850  p :     2.761700
      px      :     1.148008
      py      :     0.907842

  3 H s       :     0.777071  s :     0.777071

  4 H s       :     0.780285  s :     0.780285

  5 C s       :     3.341508  s :     3.341508
      pz      :     0.889037  p :     2.519734
      px      :     0.860295
      py      :     0.770401

  6 C s       :     3.367282  s :     3.367282
      pz      :     1.137736  p :     3.113135
      px      :     0.891644
      py      :     1.083755

  7 C s       :     3.338579  s :     3.338579
      pz      :     1.178689  p :     3.101335
      px      :     0.959467
      py      :     0.963178

  8 H s       :     0.774453  s :     0.774453

  9 H s       :     0.792774  s :     0.792774

 10 H s       :     0.791038  s :     0.791038

 11 H s       :     0.772059  s :     0.772059

 12 O s       :     3.685046  s :     3.685046
      pz      :     1.432974  p :     4.802899
      px      :     1.466078
      py      :     1.903847

 13 H s       :     0.752439  s :     0.752439

 14 C s       :     3.394090  s :     3.394090
      pz      :     0.979575  p :     2.886055
      px      :     0.836935
      py      :     1.069544

 15 C s       :     3.385426  s :     3.385426
      pz      :     0.990595  p :     3.128657
      px      :     0.985062
      py      :     1.153000

 16 H s       :     0.798938  s :     0.798938

 17 H s       :     0.803001  s :     0.803001

 18 C s       :     3.397517  s :     3.397517
      pz      :     1.014478  p :     2.863467
      px      :     0.777093
      py      :     1.071897

 19 H s       :     0.779686  s :     0.779686

 20 C s       :     3.350431  s :     3.350431
      pz      :     0.943024  p :     2.495719
      px      :     0.761554
      py      :     0.791142

 21 H s       :     0.780745  s :     0.780745

 22 C s       :     3.372430  s :     3.372430
      pz      :     1.109691  p :     3.106379
      px      :     1.114962
      py      :     0.881726

 23 C s       :     3.327535  s :     3.327535
      pz      :     1.094873  p :     3.100094
      px      :     0.891022
      py      :     1.114199

 24 H s       :     0.788049  s :     0.788049

 25 H s       :     0.792812  s :     0.792812

 26 C s       :     3.350212  s :     3.350212
      pz      :     1.174706  p :     3.047056
      px      :     0.956656
      py      :     0.915694

 27 H s       :     0.791342  s :     0.791342

 28 H s       :     0.782487  s :     0.782487

 29 C s       :     3.318332  s :     3.318332
      pz      :     0.869342  p :     2.681043
      px      :     0.905024
      py      :     0.906678

 30 H s       :     0.777072  s :     0.777072

 31 H s       :     0.805257  s :     0.805257

 32 C s       :     3.362577  s :     3.362577
      pz      :     1.077855  p :     2.867122
      px      :     0.859115
      py      :     0.930152

 33 H s       :     0.771310  s :     0.771310

 34 C s       :     3.344711  s :     3.344711
      pz      :     1.191161  p :     3.085004
      px      :     0.923576
      py      :     0.970267

 35 H s       :     0.659007  s :     0.659007

 36 C s       :     3.335987  s :     3.335987
      pz      :     1.172347  p :     3.097472
      px      :     0.952313
      py      :     0.972812

 37 H s       :     0.791150  s :     0.791150

 38 H s       :     0.801027  s :     0.801027

 39 C s       :     3.338858  s :     3.338858
      pz      :     1.058499  p :     2.846899
      px      :     0.857110
      py      :     0.931290

 40 H s       :     0.784330  s :     0.784330

 41 H s       :     0.792986  s :     0.792986

 42 H s       :     0.787847  s :     0.787847

 43 C s       :     3.348304  s :     3.348304
      pz      :     1.048395  p :     2.889711
      px      :     0.872915
      py      :     0.968401

 44 C s       :     3.365627  s :     3.365627
      pz      :     0.957837  p :     3.262496
      px      :     1.163750
      py      :     1.140908

 45 H s       :     0.794378  s :     0.794378

 46 H s       :     0.789861  s :     0.789861

 47 H s       :     0.798128  s :     0.798128

 48 H s       :     0.781116  s :     0.781116

 49 C s       :     3.352393  s :     3.352393
      pz      :     1.147957  p :     3.287388
      px      :     1.165093
      py      :     0.974338

 50 C s       :     3.348409  s :     3.348409
      pz      :     0.954379  p :     2.839297
      px      :     0.808384
      py      :     1.076534

 51 C s       :     3.351580  s :     3.351580
      pz      :     0.952561  p :     2.828571
      px      :     0.804902
      py      :     1.071108

 52 H s       :     0.774271  s :     0.774271

 53 H s       :     0.784231  s :     0.784231

 54 C s       :     3.340530  s :     3.340530
      pz      :     0.977509  p :     2.888697
      px      :     1.019509
      py      :     0.891678

 55 C s       :     3.346851  s :     3.346851
      pz      :     1.025088  p :     3.283524
      px      :     1.160543
      py      :     1.097894

 56 C s       :     3.315791  s :     3.315791
      pz      :     1.045289  p :     2.898584
      px      :     0.922419
      py      :     0.930875

 57 H s       :     0.773158  s :     0.773158

 58 H s       :     0.777661  s :     0.777661

 59 C s       :     3.340547  s :     3.340547
      pz      :     1.152435  p :     3.268944
      px      :     0.995002
      py      :     1.121507

 60 C s       :     3.347672  s :     3.347672
      pz      :     1.040088  p :     3.277834
      px      :     1.079387
      py      :     1.158359

 61 H s       :     0.798074  s :     0.798074

 62 H s       :     0.790919  s :     0.790919

 63 H s       :     0.796781  s :     0.796781

 64 H s       :     0.799983  s :     0.799983

 65 H s       :     0.803490  s :     0.803490

 66 H s       :     0.795838  s :     0.795838

 67 H s       :     0.785539  s :     0.785539

 68 H s       :     0.802405  s :     0.802405

 69 H s       :     0.802904  s :     0.802904

 70 H s       :     0.784991  s :     0.784991

 71 H s       :     0.808596  s :     0.808596

 72 H s       :     0.799221  s :     0.799221


------------------------
MULLIKEN OVERLAP CHARGES
------------------------
B(  0-C ,  1-C ) :   0.5243 B(  0-C ,  2-C ) :  -0.1797 B(  0-C ,  3-H ) :  -0.0797 
B(  0-C ,  4-H ) :  -0.0864 B(  0-C ,  5-C ) :   0.4160 B(  0-C ,  6-C ) :  -0.1412 
B(  0-C , 14-C ) :   0.9504 B(  0-C , 15-C ) :  -0.2024 B(  0-C , 18-C ) :  -0.1863 
B(  0-C , 19-H ) :  -0.0753 B(  1-C ,  2-C ) :   0.5263 B(  1-C ,  3-H ) :   0.8089 
B(  1-C ,  4-H ) :   0.7737 B(  1-C ,  5-C ) :  -0.1403 B(  1-C ,  7-C ) :  -0.1581 
B(  1-C , 12-O ) :  -0.1101 B(  1-C , 13-H ) :  -0.0575 B(  1-C , 14-C ) :  -0.1136 
B(  2-C ,  3-H ) :  -0.0592 B(  2-C ,  4-H ) :  -0.0536 B(  2-C ,  6-C ) :  -0.1582 
B(  2-C ,  7-C ) :   0.5148 B(  2-C , 10-H ) :  -0.0623 B(  2-C , 11-H ) :  -0.0697 
B(  2-C , 12-O ) :   0.6966 B(  2-C , 13-H ) :   0.8217 B(  2-C , 35-H ) :  -0.1153 
B(  5-C ,  6-C ) :   0.5297 B(  5-C ,  7-C ) :  -0.1575 B(  5-C ,  8-H ) :  -0.0730 
B(  5-C ,  9-H ) :  -0.0939 B(  5-C , 14-C ) :  -0.1994 B(  5-C , 15-C ) :   1.0615 
B(  5-C , 16-H ) :  -0.0996 B(  5-C , 17-H ) :  -0.0951 B(  6-C ,  7-C ) :   0.5525 
B(  6-C ,  8-H ) :   0.8228 B(  6-C ,  9-H ) :   0.7936 B(  6-C , 10-H ) :  -0.0741 
B(  6-C , 11-H ) :  -0.0561 B(  6-C , 15-C ) :  -0.1298 B(  7-C ,  9-H ) :  -0.0776 
B(  7-C , 10-H ) :   0.7763 B(  7-C , 11-H ) :   0.8044 B(  7-C , 12-O ) :  -0.1081 
B(  7-C , 13-H ) :  -0.0823 B( 12-O , 35-H ) :   0.6665 B( 14-C , 18-C ) :   0.6127 
B( 14-C , 19-H ) :   0.8211 B( 14-C , 20-C ) :  -0.1939 B( 14-C , 21-H ) :  -0.0737 
B( 15-C , 16-H ) :   0.8137 B( 15-C , 17-H ) :   0.8065 B( 18-C , 19-H ) :  -0.0602 
B( 18-C , 20-C ) :   0.9189 B( 18-C , 21-H ) :   0.8334 B( 18-C , 22-C ) :  -0.1510 
B( 18-C , 32-C ) :  -0.1499 B( 20-C , 21-H ) :  -0.0830 B( 20-C , 22-C ) :   0.5340 
B( 20-C , 23-C ) :  -0.1733 B( 20-C , 24-H ) :  -0.0674 B( 20-C , 25-H ) :  -0.0915 
B( 20-C , 29-C ) :  -0.1246 B( 20-C , 32-C ) :   0.5195 B( 20-C , 33-H ) :  -0.0908 
[...]
        0.0000         1.6310        0.0000
        0.0000         0.0000        1.6310

 Diagonalized JT*J matrix:
 
 J[55,60](FC)             1.631            1.631            1.631  iso=      1.631
                ---------------  ---------------  ---------------  ---------------
 J[55,60](Total)          1.631            1.631            1.631  iso=      1.631



-----------------------------------------------------------
 NUCLEUS A = C   56 NUCLEUS B = C   59 
 ( 13C  gnA =  1.405  13C  gnB =  1.405) r(AB) =     1.5320
-----------------------------------------------------------

Fermi-contact contribution to J (Hz):
       26.8636         0.0000        0.0000
        0.0000        26.8636        0.0000
        0.0000         0.0000       26.8636

Total spin-spin coupling tensor J (Hz):
       26.8636         0.0000        0.0000
        0.0000        26.8636        0.0000
        0.0000         0.0000       26.8636

 Diagonalized JT*J matrix:
 
 J[56,59](FC)            26.864           26.864           26.864  iso=     26.864
                ---------------  ---------------  ---------------  ---------------
 J[56,59](Total)         26.864           26.864           26.864  iso=     26.864



-----------------------------------------------------------
 NUCLEUS A = C   56 NUCLEUS B = C   60 
 ( 13C  gnA =  1.405  13C  gnB =  1.405) r(AB) =     1.5325
-----------------------------------------------------------

Fermi-contact contribution to J (Hz):
       26.1158         0.0000        0.0000
        0.0000        26.1158        0.0000
        0.0000         0.0000       26.1158

Total spin-spin coupling tensor J (Hz):
       26.1158         0.0000        0.0000
        0.0000        26.1158        0.0000
        0.0000         0.0000       26.1158

 Diagonalized JT*J matrix:
 
 J[56,60](FC)            26.116           26.116           26.116  iso=     26.116
                ---------------  ---------------  ---------------  ---------------
 J[56,60](Total)         26.116           26.116           26.116  iso=     26.116



-----------------------------------------------------------
 NUCLEUS A = C   59 NUCLEUS B = C   60 
 ( 13C  gnA =  1.405  13C  gnB =  1.405) r(AB) =     2.5132
-----------------------------------------------------------

Fermi-contact contribution to J (Hz):
       -1.0192         0.0000        0.0000
        0.0000        -1.0192        0.0000
        0.0000         0.0000       -1.0192

Total spin-spin coupling tensor J (Hz):
       -1.0192         0.0000        0.0000
        0.0000        -1.0192        0.0000
        0.0000         0.0000       -1.0192

 Diagonalized JT*J matrix:
 
 J[59,60](FC)            -1.019           -1.019           -1.019  iso=     -1.019
                ---------------  ---------------  ---------------  ---------------
 J[59,60](Total)         -1.019           -1.019           -1.019  iso=     -1.019



-----------------------------------------------------------------------------
                SUMMARY OF ISOTROPIC COUPLING CONSTANTS J (Hz)                
-----------------------------------------------------------------------------
                  0 C        1 C        2 C        5 C        6 C        7 C  
      0 C        0.000     33.062     -3.738     41.295     -0.887      2.285
      1 C       33.062      0.000     23.445     -1.190      1.437     -0.659
      2 C       -3.738     23.445      0.000      2.293     -2.753     25.823
      5 C       41.295     -1.190      2.293      0.000     30.380     -2.770
      6 C       -0.887      1.437     -2.753     30.380      0.000     24.799
      7 C        2.285     -0.659     25.823     -2.770     24.799      0.000
     14 C       69.425     -0.360      2.843     -3.026      2.184     -0.623
     15 C       -3.412      2.417     -0.859     64.569     -1.092      2.600
     18 C       -2.409      4.172     -1.087      3.179     -0.813      0.190
     20 C        6.795     -1.096      1.076     -1.389      0.604     -0.102
     22 C       -0.918      0.325     -0.327      0.424     -0.181      0.037
     23 C        0.831     -0.288      0.282     -0.347      0.154      0.000
     26 C       -0.096      0.040      0.000      0.050      0.000      0.000
     29 C        1.163     -0.364      0.000     -0.449      0.207      0.000
     32 C       -1.117      0.543     -0.371      0.472     -0.213      0.044
     34 C        0.023     -0.015      0.014     -0.015      0.005     -0.001
     36 C       -0.017      0.000      0.000      0.016     -0.008      0.000
     39 C       -0.071      0.000      0.000      0.031      0.000      0.000
     43 C        0.000      0.000      0.000      0.000      0.000      0.000
     44 C        0.011     -0.003      0.000     -0.002     -0.004      0.000
     49 C        0.000      0.000      0.000      0.000      0.000      0.000
     50 C        0.000      0.000      0.000      0.000      0.000      0.000
     51 C        0.000      0.000      0.000      0.000      0.000      0.000
     54 C        0.000      0.000      0.000      0.000      0.000      0.000
     55 C        0.000      0.000      0.000      0.000      0.000      0.000
     56 C        0.000      0.000      0.000      0.000      0.000      0.000
     59 C        0.000      0.000      0.000      0.000      0.000      0.000
     60 C        0.000      0.000      0.000      0.000      0.000      0.000
                 14 C       15 C       18 C       20 C       22 C       23 C  
      0 C       69.425     -3.412     -2.409      6.795     -0.918      0.831
      1 C       -0.360      2.417      4.172     -1.096      0.325     -0.288
      2 C        2.843     -0.859     -1.087      1.076     -0.327      0.282
      5 C       -3.026     64.569      3.179     -1.389      0.424     -0.347
      6 C        2.184     -1.092     -0.813      0.604     -0.181      0.154
      7 C       -0.623      2.600      0.190     -0.102      0.037      0.000
     14 C        0.000      3.111     54.094     -2.624      3.807     -0.935
     15 C        3.111      0.000     -1.147      1.007     -0.272      0.256
     18 C       54.094     -1.147      0.000     70.013     -2.136      2.364
     20 C       -2.624      1.007     70.013      0.000     32.126     -2.986
     22 C        3.807     -0.272     -2.136     32.126      0.000     24.148
     23 C       -0.935      0.256      2.364     -2.986     24.148      0.000
     26 C        0.139     -0.034     -0.351      1.025     -1.919     25.409
     29 C       -1.135      0.323      2.267     -2.436      1.047     -2.215
     32 C        4.378     -0.314     -1.306     36.859     -0.190      1.536
     34 C        0.065      0.004      2.454     -1.359      1.625     -0.268
     36 C        0.016     -0.014     -0.154      3.502      0.074      0.155
     39 C        0.255     -0.024     -0.054      2.916     -0.334      2.543
     43 C        0.006      0.017      0.274      0.204     -0.004     -0.110
     44 C        0.005      0.030     -0.045      0.705     -0.135      0.580
     49 C       -0.001      0.000     -0.009     -0.030      0.145      0.052
     50 C        0.000      0.000      0.004      0.222     -0.006      0.119
     51 C        0.000      0.000      0.000      0.066     -0.003      0.002
     54 C        0.000      0.000      0.000      0.000      0.000      0.000
     55 C        0.000      0.000      0.000      0.000      0.000      0.000
     56 C        0.000      0.000      0.000      0.000      0.000      0.000
     59 C        0.000      0.000      0.000      0.000      0.000      0.000
     60 C        0.000      0.000      0.000      0.000      0.000      0.000
                 26 C       29 C       32 C       34 C       36 C       39 C  
      0 C       -0.096      1.163     -1.117      0.023     -0.017     -0.071
      1 C        0.040     -0.364      0.543     -0.015      0.000      0.000
      2 C        0.000      0.000     -0.371      0.014      0.000      0.000
      5 C        0.050     -0.449      0.472     -0.015      0.016      0.031
      6 C        0.000      0.207     -0.213      0.005     -0.008      0.000
      7 C        0.000      0.000      0.044     -0.001      0.000      0.000
     14 C        0.139     -1.135      4.378      0.065      0.016      0.255
     15 C       -0.034      0.323     -0.314      0.004     -0.014     -0.024
     18 C       -0.351      2.267     -1.306      2.454     -0.154     -0.054
     20 C        1.025     -2.436     36.859     -1.359      3.502      2.916
     22 C       -1.919      1.047     -0.190      1.625      0.074     -0.334
     23 C       25.409     -2.215      1.536     -0.268      0.155      2.543
     26 C        0.000     27.870     -0.914      2.272      3.026     -0.548
     29 C       27.870      0.000     23.023      0.945      0.717     28.135
     32 C       -0.914     23.023      0.000     28.064      1.227      3.387
     34 C        2.272      0.945     28.064      0.000     26.049      0.027
     36 C        3.026      0.717      1.227     26.049      0.000     26.373
     39 C       -0.548     28.135      3.387      0.027     26.373      0.000
     43 C       -0.019     -0.682      2.837      1.522     -0.057     27.835
     44 C       -0.608     27.194     -0.996      0.814      0.286     -1.267
     49 C        0.448      0.116      0.002      0.058      3.262     -1.017
     50 C       -0.072      3.060      0.023      0.105      1.445     -2.715
     51 C       -0.017      0.178      0.151     -0.038      0.055      2.855
     54 C       -0.003      0.116     -0.030      0.015      0.004     -0.756
     55 C       -0.008      0.099      0.053     -0.007      0.008      1.105
     56 C        0.001     -0.001      0.001     -0.002      0.004      0.050
     59 C        0.000      0.000      0.000      0.001      0.003     -0.021
     60 C        0.000     -0.000     -0.002      0.003      0.012     -0.039
                 43 C       44 C       49 C       50 C       51 C       54 C  
      0 C        0.000      0.011      0.000      0.000      0.000      0.000
      1 C        0.000     -0.003      0.000      0.000      0.000      0.000
      2 C        0.000      0.000      0.000      0.000      0.000      0.000
      5 C        0.000     -0.002      0.000      0.000      0.000      0.000
      6 C        0.000     -0.004      0.000      0.000      0.000      0.000
      7 C        0.000      0.000      0.000      0.000      0.000      0.000
     14 C        0.006      0.005     -0.001      0.000      0.000      0.000
     15 C        0.017      0.030      0.000      0.000      0.000      0.000
     18 C        0.274     -0.045     -0.009      0.004      0.000      0.000
     20 C        0.204      0.705     -0.030      0.222      0.066      0.000
     22 C       -0.004     -0.135      0.145     -0.006     -0.003      0.000
     23 C       -0.110      0.580      0.052      0.119      0.002      0.000
     26 C       -0.019     -0.608      0.448     -0.072     -0.017     -0.003
     29 C       -0.682     27.194      0.116      3.060      0.178      0.116
     32 C        2.837     -0.996      0.002      0.023      0.151     -0.030
     34 C        1.522      0.814      0.058      0.105     -0.038      0.015
     36 C       -0.057      0.286      3.262      1.445      0.055      0.004
     39 C       27.835     -1.267     -1.017     -2.715      2.855     -0.756
     43 C        0.000      1.437     27.425     36.071     -1.411      3.335
     44 C        1.437      0.000     -0.027     -0.108      0.079      0.005
     49 C       27.425     -0.027      0.000     -1.969      3.129      0.028
     50 C       36.071     -0.108     -1.969      0.000     69.268     -1.602
     51 C       -1.411      0.079      3.129     69.268      0.000     36.160
     54 C        3.335      0.005      0.028     -1.602     36.160      0.000
     55 C       -0.676     -0.006      0.042      3.325     -2.012     25.876
     56 C       -0.069     -0.001      0.118      2.412     -1.266     27.302
     59 C       -0.003      0.000      0.052     -0.092      3.231     -0.326
     60 C        0.034     -0.001      0.012     -0.065      0.383     -1.418
                 55 C       56 C       59 C       60 C  
      0 C        0.000      0.000      0.000      0.000
      1 C        0.000      0.000      0.000      0.000
      2 C        0.000      0.000      0.000      0.000
      5 C        0.000      0.000      0.000      0.000
      6 C        0.000      0.000      0.000      0.000
      7 C        0.000      0.000      0.000      0.000
     14 C        0.000      0.000      0.000      0.000
     15 C        0.000      0.000      0.000      0.000
     18 C        0.000      0.000      0.000      0.000
     20 C        0.000      0.000      0.000      0.000
     22 C        0.000      0.000      0.000      0.000
     23 C        0.000      0.000      0.000      0.000
     26 C       -0.008      0.001      0.000      0.000
     29 C        0.099     -0.001      0.000     -0.000
     32 C        0.053      0.001      0.000     -0.002
     34 C       -0.007     -0.002      0.001      0.003
     36 C        0.008      0.004      0.003      0.012
     39 C        1.105      0.050     -0.021     -0.039
     43 C       -0.676     -0.069     -0.003      0.034
     44 C       -0.006     -0.001      0.000     -0.001
     49 C        0.042      0.118      0.052      0.012
     50 C        3.325      2.412     -0.092     -0.065
     51 C       -2.012     -1.266      3.231      0.383
     54 C       25.876     27.302     -0.326     -1.418
     55 C        0.000     -1.600      0.563      1.631
     56 C       -1.600      0.000     26.864     26.116
     59 C        0.563     26.864      0.000     -1.019
     60 C        1.631     26.116     -1.019      0.000

NMR spin-spin coupling calculation done in   0.3 sec 

Maximum memory used throughout the entire PROP-calculation: 34.3 MB

--------------------------------
SUGGESTED CITATIONS FOR THIS RUN
--------------------------------

Below you find a list of papers that are relevant to this ORCA run
We neither can nor want to force you to cite these papers, but we appreciate if you do
You receive ORCA, which is the product of decades of hard work by many enthusiastic individuals, for free
The only thing we kindly ask in return is that you cite our papers,
We deeply appreciate it, if you show your appreciation for ORCA by not just citing the generic ORCA reference.

Please note that relegating all ORCA citations to the supporting information does *not* help us.
SI sections are not indexed - citations you put there will not count into any citation statistics
But we need these citations in order to attract the funding resources that allow us to do what we are doing

Therefore, if you are a happy ORCA user, please consider citing a few of the papers listed below in the main body of your paper

In addition to the list printed below, the program has created the file inpJ.bibtex that contains the list in bibtex format
You can import this file easily into all common literature databanks and citation aid programs


List of essential papers. We consider these as the minimum necessary citations

  1. Neese,F.
     Software update: the ORCA program system, version 5.0
     WIRES Comput. Molec. Sci., 2022 12(1)e1606
     doi.org/10.1002/wcms.1606

List of papers to cite with high priority. The work reported in these papers was absolutely
necessary for this run to complete.
Our perspective: the developers of density functionals and basis sets usually get cited in chemistry papers
Good! But without the algorithms to do something with them, the functionals or basis sets would not do anything.
Hence, in our opinion, the algorithm design and method developments papers are equally worthy of getting cited

  1. Neese,F.
     An improvement of the resolution of the identity approximation for the formation of the Coulomb matrix
     J. Comp. Chem., 2003 24(14)1740-1747
     doi.org/10.1002/jcc.10318
  2. Neese,F.; Wennmohs,F.; Hansen,A.; Becker,U.
     Efficient, approximate and parallel Hartree-Fock and hybrid DFT calculations. A 'chain-of-spheres' algorithm for the Hartree-Fock exchange
     Chem. Phys., 2009 356(1-3)98-109
     doi.org/10.1016/j.chemphys.2008.10.036
  3. Stoychev,G.L.; Auer,A.A.; Izsak,R.; Neese,F.
     Self-Consistent Field Calculation of Nuclear Magnetic Resonance Chemical Shielding Constants Using Gauge-Including Atomic Orbitals and Approximate Two-Electron Integrals
     J. Chem. Theory Comput., 2018 14(2)619-637
     doi.org/10.1021/acs.jctc.7b01006
  4. Garcia-Rates,M.; Neese,F.
     Effect of the Solute Cavity on the Solvation Energy and its Derivatives within the Framework of the Gaussian Charge Scheme
     J. Comput. Chem., 2020 41 922-939
     doi.org/10.1002/jcc.26139
  5. Helmich-Paris,B.; de Souza,B.; Neese,F.; Izsák,R.
     An improved chain of spheres for exchange algorithm
     J. Chem. Phys., 2021 155 104109
     doi.org/doi: 10.1063/5.0058766.
  6. Neese,F.
     The SHARK Integral Generation and Digestion System
     J. Comp. Chem., 2022  1-16
     doi.org/10.1002/jcc.26942
  7. Grimme,S.; Bannwarth,C.; Dohm,S.; Hansen,A.; Pisarek,J.; Pracht,P.; Seibert,J.; Neese,F.
     Fully Automated Quantum-Chemistry-Based Computation of Spin-Spin-Coupled Nuclear Magnetic Resonance Spectra
     Angew. Chem., Int. Ed., 2017 56 14763-14769
     doi.org/10.1002/anie.201708266
  8. Caldeweyher,E.; Bannwarth,C.; Grimme,S.
     Extension of the D3 dispersion coefficient model
     J. Chem. Phys., 2017 147 034112-XXXX
     doi.org/10.1063/1.4993215
  9. Caldeweyher,E.; Ehlert,S.; Hansen,A.; Neugebauer,H.; Spicher,S.; Bannwarth,C.; Grimme,S.
     A generally applicable atomic-charge dependent London dispersion correction
     J. Chem. Phys., 2019 150 154122-XXXX
     doi.org/10.1063/1.5090222
 10. Caldeweyher,E.; Mewes,J.; Ehlert,S.; Grimme,S.
     Extension and evaluation of the D4 London-dispersion model for periodic systems
     Phys. Chem. Chem. Phys., 2020 22(16)8499-8512
     doi.org/10.1039/D0CP00502A

List of suggested additional citations. These are papers that are important in the 'surrounding' of 
of this run, or papers that preceded the highly important papers. If you like your results we are grateful for a citation.

  1. Izsak,R.; Neese,F.
     An overlap fitted chain of spheres exchange method
     J. Chem. Phys., 2011 135 144105
     doi.org/10.1063/1.3646921
  2. Izsak,R.; Hansen,A.; Neese,F.
     The resolution of identity and chain of spheres approximations for the LPNO-CCSD singles Fock term
     Molec. Phys., 2012 110 2413-2417
     doi.org/10.1080/00268976.2012.687466
  3. Neese,F.
     The ORCA program system
     WIRES Comput. Molec. Sci., 2012 2(1)73-78
     doi.org/10.1002/wcms.81
  4. Izsak,R.; Neese,F.; Klopper,W.
     Robust fitting techniques in the chain of spheres approximation to the Fock exchange: The role of the complementary space
     J. Chem. Phys., 2013 139 
     doi.org/10.1063/1.4819264
  5. Neese,F.
     Software update: the ORCA program system, version 4.0
     WIRES Comput. Molec. Sci., 2018 8(1)1-6
     doi.org/10.1002/wcms.1327
  6. Neese,F.; Wennmohs,F.; Becker,U.; Riplinger,C.
     The ORCA quantum chemistry program package
     J. Chem. Phys., 2020 152 Art. No. L224108
     doi.org/10.1063/5.0004608

Timings for individual modules:

Sum of individual times          ...      135.949 sec (=   2.266 min)
Startup calculation              ...        3.850 sec (=   0.064 min)   2.8 %
SCF iterations                   ...       18.974 sec (=   0.316 min)  14.0 %
Property integrals               ...        0.794 sec (=   0.013 min)   0.6 %
SCF Response                     ...      111.788 sec (=   1.863 min)  82.2 %
Property calculations            ...        0.543 sec (=   0.009 min)   0.4 %
                             ****ORCA TERMINATED NORMALLY****
TOTAL RUN TIME: 0 days 0 hours 2 minutes 16 seconds 238 msec
