
                                 *****************
                                 * O   R   C   A *
                                 *****************

                                            #,                                       
                                            ###                                      
                                            ####                                     
                                            #####                                    
                                            ######                                   
                                           ########,                                 
                                     ,,################,,,,,                         
                               ,,#################################,,                 
                          ,,##########################################,,             
                       ,#########################################, ''#####,          
                    ,#############################################,,   '####,        
                  ,##################################################,,,,####,       
                ,###########''''           ''''###############################       
              ,#####''   ,,,,##########,,,,          '''####'''          '####       
            ,##' ,,,,###########################,,,                        '##       
           ' ,,###''''                  '''############,,,                           
         ,,##''                                '''############,,,,        ,,,,,,###''
      ,#''                                            '''#######################'''  
     '                                                          ''''####''''         
             ,#######,   #######,   ,#######,      ##                                
            ,#'     '#,  ##    ##  ,#'     '#,    #''#        ######   ,####,        
            ##       ##  ##   ,#'  ##            #'  '#       #        #'  '#        
            ##       ##  #######   ##           ,######,      #####,   #    #        
            '#,     ,#'  ##    ##  '#,     ,#' ,#      #,         ##   #,  ,#        
             '#######'   ##     ##  '#######'  #'      '#     #####' # '####'        



                  #######################################################
                  #                        -***-                        #
                  #          Department of theory and spectroscopy      #
                  #    Directorship and core code : Frank Neese         #
                  #        Max Planck Institute fuer Kohlenforschung    #
                  #                Kaiser Wilhelm Platz 1               #
                  #                 D-45470 Muelheim/Ruhr               #
                  #                      Germany                        #
                  #                                                     #
                  #                  All rights reserved                #
                  #                        -***-                        #
                  #######################################################


                         Program Version 5.0.2 -  RELEASE  -


 With contributions from (in alphabetic order):
   Daniel Aravena         : Magnetic Suceptibility
   Michael Atanasov       : Ab Initio Ligand Field Theory (pilot matlab implementation)
   Alexander A. Auer      : GIAO ZORA, VPT2 properties, NMR spectrum
   Ute Becker             : Parallelization
   Giovanni Bistoni       : ED, misc. LED, open-shell LED, HFLD
   Martin Brehm           : Molecular dynamics
   Dmytro Bykov           : SCF Hessian
   Vijay G. Chilkuri      : MRCI spin determinant printing, contributions to CSF-ICE
   Dipayan Datta          : RHF DLPNO-CCSD density
   Achintya Kumar Dutta   : EOM-CC, STEOM-CC
   Dmitry Ganyushin       : Spin-Orbit,Spin-Spin,Magnetic field MRCI
   Miquel Garcia          : C-PCM and meta-GGA Hessian, CC/C-PCM, Gaussian charge scheme
   Yang Guo               : DLPNO-NEVPT2, F12-NEVPT2, CIM, IAO-localization
   Andreas Hansen         : Spin unrestricted coupled pair/coupled cluster methods
   Benjamin Helmich-Paris : MC-RPA, TRAH-SCF, COSX integrals
   Lee Huntington         : MR-EOM, pCC
   Robert Izsak           : Overlap fitted RIJCOSX, COSX-SCS-MP3, EOM
   Marcus Kettner         : VPT2
   Christian Kollmar      : KDIIS, OOCD, Brueckner-CCSD(T), CCSD density, CASPT2, CASPT2-K
   Simone Kossmann        : Meta GGA functionals, TD-DFT gradient, OOMP2, MP2 Hessian
   Martin Krupicka        : Initial AUTO-CI
   Lucas Lang             : DCDCAS
   Marvin Lechner         : AUTO-CI (C++ implementation), FIC-MRCC
   Dagmar Lenk            : GEPOL surface, SMD
   Dimitrios Liakos       : Extrapolation schemes; Compound Job, initial MDCI parallelization
   Dimitrios Manganas     : Further ROCIS development; embedding schemes
   Dimitrios Pantazis     : SARC Basis sets
   Anastasios Papadopoulos: AUTO-CI, single reference methods and gradients
   Taras Petrenko         : DFT Hessian,TD-DFT gradient, ASA, ECA, R-Raman, ABS, FL, XAS/XES, NRVS
   Peter Pinski           : DLPNO-MP2, DLPNO-MP2 Gradient
   Christoph Reimann      : Effective Core Potentials
   Marius Retegan         : Local ZFS, SOC
   Christoph Riplinger    : Optimizer, TS searches, QM/MM, DLPNO-CCSD(T), (RO)-DLPNO pert. Triples
   Tobias Risthaus        : Range-separated hybrids, TD-DFT gradient, RPA, STAB
   Michael Roemelt        : Original ROCIS implementation
   Masaaki Saitow         : Open-shell DLPNO-CCSD energy and density
   Barbara Sandhoefer     : DKH picture change effects
   Avijit Sen             : IP-ROCIS
   Kantharuban Sivalingam : CASSCF convergence, NEVPT2, FIC-MRCI
   Bernardo de Souza      : ESD, SOC TD-DFT
   Georgi Stoychev        : AutoAux, RI-MP2 NMR, DLPNO-MP2 response
   Willem Van den Heuvel  : Paramagnetic NMR
   Boris Wezisla          : Elementary symmetry handling
   Frank Wennmohs         : Technical directorship


 We gratefully acknowledge several colleagues who have allowed us to
 interface, adapt or use parts of their codes:
   Stefan Grimme, W. Hujo, H. Kruse, P. Pracht,  : VdW corrections, initial TS optimization,
                  C. Bannwarth, S. Ehlert          DFT functionals, gCP, sTDA/sTD-DF
   Ed Valeev, F. Pavosevic, A. Kumar             : LibInt (2-el integral package), F12 methods
   Garnet Chan, S. Sharma, J. Yang, R. Olivares  : DMRG
   Ulf Ekstrom                                   : XCFun DFT Library
   Mihaly Kallay                                 : mrcc  (arbitrary order and MRCC methods)
   Jiri Pittner, Ondrej Demel                    : Mk-CCSD
   Frank Weinhold                                : gennbo (NPA and NBO analysis)
   Christopher J. Cramer and Donald G. Truhlar   : smd solvation model
   Lars Goerigk                                  : TD-DFT with DH, B97 family of functionals
   V. Asgeirsson, H. Jonsson                     : NEB implementation
   FAccTs GmbH                                   : IRC, NEB, NEB-TS, DLPNO-Multilevel, CI-OPT
                                                   MM, QMMM, 2- and 3-layer-ONIOM, Crystal-QMMM,
                                                   LR-CPCM, SF, NACMEs, symmetry and pop. for TD-DFT,
                                                   nearIR, NL-DFT gradient (VV10), updates on ESD,
                                                   ML-optimized integration grids
   S Lehtola, MJT Oliveira, MAL Marques          : LibXC Library
   Liviu Ungur et al                             : ANISO software


 Your calculation uses the libint2 library for the computation of 2-el integrals
 For citations please refer to: http://libint.valeyev.net

 Your ORCA version has been built with support for libXC version: 5.1.0
 For citations please refer to: https://tddft.org/programs/libxc/

 This ORCA versions uses:
   CBLAS   interface :  Fast vector & matrix operations
   LAPACKE interface :  Fast linear algebra routines
   SCALAPACK package :  Parallel linear algebra routines
   Shared memory     :  Shared parallel matrices
   BLAS/LAPACK       :  OpenBLAS 0.3.15  USE64BITINT DYNAMIC_ARCH NO_AFFINITY Zen SINGLE_THREADED
        Core in use  :  Zen
   Copyright (c) 2011-2014, The OpenBLAS Project


Your calculation utilizes the atom-pairwise dispersion correction
based on tight binding partial charges (D4)
Cite in your paper:
E.Caldeweyher, C.Bannwarth, S.Grimme, J.Chem.Phys., (2017), 147, 034112.
E.Caldeweyher, S.Ehlert, A.Hansen, H.Neugebauer, S.Grimme, J.Chem.Phys., (2018), in progress.
   

================================================================================

----- Orbital basis set information -----
Your calculation utilizes the basis: pcJ-0
   F. Jensen, Theor. Chem. Acc. 126, 371 (2010).

----- AuxJ basis set information -----
Your calculation utilizes the auxiliary basis: def2/J
   F. Weigend, Phys. Chem. Chem. Phys. 8, 1057 (2006).

================================================================================
                                        WARNINGS
                       Please study these warnings very carefully!
================================================================================


INFO   : the flag for use of the SHARK integral package has been found!

================================================================================
                                       INPUT FILE
================================================================================
NAME = inpJ
|  1> ! pbe0
|  2> ! D4
|  3> ! pcJ-0
|  4> ! def2/J RIJCOSX
|  5> ! DEFGRID2
|  6> ! scfconv7
|  7> ! smallprint printgap noloewdin
|  8> ! NOSOSCF
|  9> %MaxCore 4000
| 10> %output
| 11>        print[P_BondOrder_M] 1
| 12>        print[P_Mayer] 1
| 13>        print[P_basis] 2
| 14> end
| 15> %pal
| 16>     nprocs 4
| 17> end
| 18> ! CPCM(chloroform)
| 19> *xyz 0 1
| 20> C   -5.1587378800   0.1551366700  -0.7021546900
| 21> C   -6.5848268800  -0.2961683800  -0.9089598300
| 22> C   -7.5540069100   0.6427075300  -0.1790760800
| 23> H   -6.7220044700  -1.3248794500  -0.5569754500
| 24> H   -6.8331958500  -0.2680874700  -1.9802930900
| 25> C   -4.9179699700   1.5667794200  -1.0763056700
| 26> C   -5.9027981200   2.5468520900  -0.4786230800
| 27> C   -7.3553263100   2.0820378300  -0.6561276200
| 28> H   -5.7599428400   3.5411983700  -0.9148268100
| 29> H   -5.6911128800   2.6355816900   0.5979252500
| 30> H   -7.6308085600   2.1342619600  -1.7183392200
| 31> H   -8.0326689300   2.7464781700  -0.1072069900
| 32> O   -7.3955059900   0.5277749800   1.2448409500
| 33> H   -8.5863901100   0.3304516600  -0.3797259900
| 34> C   -4.2336140600  -0.6668072800  -0.1519189300
| 35> C   -3.9400466300   1.9470562200  -1.9053933800
| 36> H   -3.2532375800   1.2247078700  -2.3383326700
| 37> H   -3.8111634900   2.9921928800  -2.1768736200
| 38> C   -2.8745269100  -0.3112678400   0.1849002900
| 39> H   -4.5644320100  -1.6782406300   0.0811958400
| 40> C   -1.9180088600  -1.1412484300   0.6528598000
| 41> H   -2.6145542800   0.7366741600   0.0537382100
| 42> C   -2.0726193900  -2.6227170800   0.8840374800
| 43> C   -0.9815169000  -3.4307056000   0.1547045200
| 44> H   -3.0605881700  -2.9880268200   0.5908671400
| 45> H   -1.9686978000  -2.8080024700   1.9651554900
| 46> C    0.4325852200  -2.9093764500   0.4436551100
| 47> H   -1.1748638800  -3.4001079400  -0.9250520400
| 48> H   -1.0538441800  -4.4834763900   0.4540244700
| 49> C    0.5594012800  -1.4091501200   0.1462592700
| 50> H    1.1532347400  -3.4938860100  -0.1376833700
| 51> H    0.6696088100  -3.0726358700   1.5058439400
| 52> C   -0.5342349500  -0.6727209800   0.9831693200
| 53> H   -0.3401241400  -0.9822719600   2.0270923600
| 54> C   -0.1527338700   0.7984226600   0.8686217400
| 55> H   -6.4467156300   0.4866036800   1.4315759900
| 56> C    1.3941800800   0.7693909600   0.9130882300
| 57> H   -0.5884224400   1.4044560400   1.6699751900
| 58> H   -0.5046065600   1.2166092700  -0.0811335100
| 59> C    1.8354732500  -0.7130346300   0.7009130200
| 60> H    1.7664945000   1.1538087600   1.8665434400
| 61> H    1.8267750900   1.4068191600   0.1329394300
| 62> H    2.0252273500  -1.1720921000   1.6841348200
| 63> C    3.1255064700  -0.8123298200  -0.1244294600
| 64> C    0.3763674800  -1.1261800100  -1.3518357700
| 65> H    0.5977218900  -0.0827830100  -1.5975948600
| 66> H   -0.6515976200  -1.3245500500  -1.6708038600
| 67> H    1.0417886200  -1.7563503700  -1.9514403700
| 68> H    2.9370207400  -0.3148157100  -1.0890298500
| 69> C    3.5683557500  -2.2549265200  -0.4318343000
| 70> C    4.3074376900  -0.1065650300   0.5050976000
| 71> C    4.4766850900   0.1853309800   1.7948304100
| 72> H    5.1172945700   0.1056548800  -0.1944841300
| 73> H    3.6711541800  -0.0372157600   2.4936795400
| 74> C    5.6966605600   0.8090907000   2.4212600100
| 75> C    6.7363957500   1.2942721700   1.4125621800
| 76> C    6.3311398600  -0.1224835000   3.4949925200
| 77> H    5.3431513100   1.6919135800   2.9807417900
| 78> H    7.1751731400   0.4431269700   3.9185136100
| 79> C    6.8800717000  -1.4228229000   2.9041633800
| 80> C    5.3590723000  -0.4287598700   4.6380702300
| 81> H    7.1198026800   0.4762683700   0.7943708300
| 82> H    7.5866403100   1.7451061000   1.9357268500
| 83> H    6.3103300600   2.0468414900   0.7407154800
| 84> H    7.6574324200  -1.2411761500   2.1554662900
| 85> H    6.0779793800  -1.9985387200   2.4264905000
| 86> H    7.3171963900  -2.0446421200   3.6934087900
| 87> H    4.8955993700   0.4857074400   5.0265081800
| 88> H    5.8834794200  -0.9208525100   5.4644436300
| 89> H    4.5587774000  -1.1025291400   4.3109669900
| 90> H    2.8783125800  -2.7617770300  -1.1111200600
| 91> H    3.6379465600  -2.8372385700   0.4947044000
| 92> H    4.5586176000  -2.2566548300  -0.9012025700
| 93> *
| 94> %eprnmr
| 95>  Nuclei = all H { ssfc }
| 96>  SpinSpinRThresh 8.0
| 97> end
| 98> 
| 99>                          ****END OF INPUT****
================================================================================

                       ****************************
                       * Single Point Calculation *
                       ****************************

---------------------------------
CARTESIAN COORDINATES (ANGSTROEM)
---------------------------------
  C     -5.158738    0.155137   -0.702155
  C     -6.584827   -0.296168   -0.908960
  C     -7.554007    0.642708   -0.179076
  H     -6.722004   -1.324879   -0.556975
  H     -6.833196   -0.268087   -1.980293
  C     -4.917970    1.566779   -1.076306
  C     -5.902798    2.546852   -0.478623
  C     -7.355326    2.082038   -0.656128
  H     -5.759943    3.541198   -0.914827
  H     -5.691113    2.635582    0.597925
  H     -7.630809    2.134262   -1.718339
  H     -8.032669    2.746478   -0.107207
  O     -7.395506    0.527775    1.244841
  H     -8.586390    0.330452   -0.379726
  C     -4.233614   -0.666807   -0.151919
  C     -3.940047    1.947056   -1.905393
  H     -3.253238    1.224708   -2.338333
  H     -3.811163    2.992193   -2.176874
  C     -2.874527   -0.311268    0.184900
  H     -4.564432   -1.678241    0.081196
  C     -1.918009   -1.141248    0.652860
  H     -2.614554    0.736674    0.053738
  C     -2.072619   -2.622717    0.884037
  C     -0.981517   -3.430706    0.154705
  H     -3.060588   -2.988027    0.590867
  H     -1.968698   -2.808002    1.965155
  C      0.432585   -2.909376    0.443655
  H     -1.174864   -3.400108   -0.925052
  H     -1.053844   -4.483476    0.454024
  C      0.559401   -1.409150    0.146259
  H      1.153235   -3.493886   -0.137683
  H      0.669609   -3.072636    1.505844
  C     -0.534235   -0.672721    0.983169
  H     -0.340124   -0.982272    2.027092
  C     -0.152734    0.798423    0.868622
  H     -6.446716    0.486604    1.431576
  C      1.394180    0.769391    0.913088
  H     -0.588422    1.404456    1.669975
  H     -0.504607    1.216609   -0.081134
  C      1.835473   -0.713035    0.700913
  H      1.766494    1.153809    1.866543
  H      1.826775    1.406819    0.132939
  H      2.025227   -1.172092    1.684135
  C      3.125506   -0.812330   -0.124429
  C      0.376367   -1.126180   -1.351836
  H      0.597722   -0.082783   -1.597595
  H     -0.651598   -1.324550   -1.670804
  H      1.041789   -1.756350   -1.951440
  H      2.937021   -0.314816   -1.089030
  C      3.568356   -2.254927   -0.431834
  C      4.307438   -0.106565    0.505098
  C      4.476685    0.185331    1.794830
  H      5.117295    0.105655   -0.194484
  H      3.671154   -0.037216    2.493680
  C      5.696661    0.809091    2.421260
  C      6.736396    1.294272    1.412562
  C      6.331140   -0.122483    3.494993
  H      5.343151    1.691914    2.980742
  H      7.175173    0.443127    3.918514
  C      6.880072   -1.422823    2.904163
  C      5.359072   -0.428760    4.638070
  H      7.119803    0.476268    0.794371
  H      7.586640    1.745106    1.935727
  H      6.310330    2.046841    0.740715
  H      7.657432   -1.241176    2.155466
  H      6.077979   -1.998539    2.426490
  H      7.317196   -2.044642    3.693409
  H      4.895599    0.485707    5.026508
  H      5.883479   -0.920853    5.464444
  H      4.558777   -1.102529    4.310967
  H      2.878313   -2.761777   -1.111120
  H      3.637947   -2.837239    0.494704
  H      4.558618   -2.256655   -0.901203

----------------------------
CARTESIAN COORDINATES (A.U.)
----------------------------
  NO LB      ZA    FRAG     MASS         X           Y           Z
   0 C     6.0000    0    12.011   -9.748602    0.293166   -1.326880
   1 C     6.0000    0    12.011  -12.443519   -0.559677   -1.717685
   2 C     6.0000    0    12.011  -14.275004    1.214541   -0.338405
   3 H     1.0000    0     1.008  -12.702748   -2.503659   -1.052531
   4 H     1.0000    0     1.008  -12.912869   -0.506612   -3.742212
   5 C     6.0000    0    12.011   -9.293616    2.960784   -2.033923
   6 C     6.0000    0    12.011  -11.154672    4.812853   -0.904467
   7 C     6.0000    0    12.011  -13.899552    3.934481   -1.239902
   8 H     1.0000    0     1.008  -10.884715    6.691895   -1.728772
   9 H     1.0000    0     1.008  -10.754645    4.980528    1.129915
  10 H     1.0000    0     1.008  -14.420138    4.033171   -3.247191
  11 H     1.0000    0     1.008  -15.179544    5.190092   -0.202592
  12 O     8.0000    0    15.999  -13.975481    0.997350    2.352408
  13 H     1.0000    0     1.008  -16.225926    0.624463   -0.717578
  14 C     6.0000    0    12.011   -8.000371   -1.260083   -0.287085
  15 C     6.0000    0    12.011   -7.445609    3.679403   -3.600672
  16 H     1.0000    0     1.008   -6.147728    2.314362   -4.418808
  17 H     1.0000    0     1.008   -7.202055    5.654425   -4.113695
  18 C     6.0000    0    12.011   -5.432069   -0.588211    0.349411
  19 H     1.0000    0     1.008   -8.625526   -3.171415    0.153438
  20 C     6.0000    0    12.011   -3.624511   -2.156647    1.233726
  21 H     1.0000    0     1.008   -4.940792    1.392112    0.101550
  22 C     6.0000    0    12.011   -3.916683   -4.956217    1.670589
  23 C     6.0000    0    12.011   -1.854798   -6.483094    0.292349
  24 H     1.0000    0     1.008   -5.783673   -5.646552    1.116577
  25 H     1.0000    0     1.008   -3.720300   -5.306356    3.713606
  26 C     6.0000    0    12.011    0.817468   -5.497925    0.838387
  27 H     1.0000    0     1.008   -2.220171   -6.425273   -1.748095
  28 H     1.0000    0     1.008   -1.991477   -8.472543    0.857982
  29 C     6.0000    0    12.011    1.057115   -2.662908    0.276390
  30 H     1.0000    0     1.008    2.179298   -6.602488   -0.260184
  31 H     1.0000    0     1.008    1.265377   -5.806440    2.845633
  32 C     6.0000    0    12.011   -1.009558   -1.271258    1.857921
  33 H     1.0000    0     1.008   -0.642741   -1.856225    3.830649
  34 C     6.0000    0    12.011   -0.288625    1.508800    1.641457
  35 H     1.0000    0     1.008  -12.182527    0.919548    2.705287
  36 C     6.0000    0    12.011    2.634619    1.453938    1.725487
  37 H     1.0000    0     1.008   -1.111957    2.654037    3.155796
  38 H     1.0000    0     1.008   -0.953568    2.299058   -0.153320
  39 C     6.0000    0    12.011    3.468542   -1.347440    1.324534
  40 H     1.0000    0     1.008    3.338191    2.180383    3.527256
  41 H     1.0000    0     1.008    3.452105    2.658503    0.251219
  42 H     1.0000    0     1.008    3.827125   -2.214933    3.182554
  43 C     6.0000    0    12.011    5.906351   -1.535081   -0.235138
  44 C     6.0000    0    12.011    0.711231   -2.128172   -2.554599
  45 H     1.0000    0     1.008    1.129531   -0.156437   -3.019017
  46 H     1.0000    0     1.008   -1.231341   -2.503037   -3.157362
  47 H     1.0000    0     1.008    1.968695   -3.319021   -3.687688
  48 H     1.0000    0     1.008    5.550165   -0.594915   -2.057968
  49 C     6.0000    0    12.011    6.743215   -4.261194   -0.816049
  50 C     6.0000    0    12.011    8.139878   -0.201379    0.954496
  51 C     6.0000    0    12.011    8.459709    0.350225    3.391738
  52 H     1.0000    0     1.008    9.670285    0.199659   -0.367522
  53 H     1.0000    0     1.008    6.937476   -0.070328    4.712371
  54 C     6.0000    0    12.011   10.765128    1.528960    4.575518
  55 C     6.0000    0    12.011   12.729943    2.445820    2.669356
  56 C     6.0000    0    12.011   11.964120   -0.231460    6.604579
  57 H     1.0000    0     1.008   10.097093    3.197253    5.632786
  58 H     1.0000    0     1.008   13.559112    0.837389    7.404918
  59 C     6.0000    0    12.011   13.001451   -2.688746    5.488073
  60 C     6.0000    0    12.011   10.127179   -0.810239    8.764683
  61 H     1.0000    0     1.008   13.454477    0.900017    1.501143
  62 H     1.0000    0     1.008   14.336672    3.297773    3.657994
  63 H     1.0000    0     1.008   11.924796    3.867970    1.399749
  64 H     1.0000    0     1.008   14.470450   -2.345483    4.073241
  65 H     1.0000    0     1.008   11.485716   -3.776691    4.585403
  66 H     1.0000    0     1.008   13.827497   -3.863814    6.979531
  67 H     1.0000    0     1.008    9.251342    0.917854    9.498724
  68 H     1.0000    0     1.008   11.118165   -1.740159   10.326302
  69 H     1.0000    0     1.008    8.614841   -2.083478    8.146547
  70 H     1.0000    0     1.008    5.439223   -5.219002   -2.099713
  71 H     1.0000    0     1.008    6.874723   -5.361604    0.934856
  72 H     1.0000    0     1.008    8.614539   -4.264460   -1.703026

--------------------------------
INTERNAL COORDINATES (ANGSTROEM)
--------------------------------
 C      0   0   0     0.000000000000     0.00000000     0.00000000
 C      1   0   0     1.510024652119     0.00000000     0.00000000
 C      2   1   0     1.534121309885   110.39961525     0.00000000
 H      2   1   3     1.095881909926   110.78013736   237.85461568
 H      2   1   3     1.100104829890   109.81370824   118.68254746
 C      1   2   3     1.480099116934   113.83204246   305.79780455
 C      6   1   2     1.512499058480   114.34319523    50.17939134
 C      3   2   1     1.529288679462   110.21285670    56.79363011
 H      7   6   1     1.095173890138   110.24288159   188.59297834
 H      7   6   1     1.100745151966   108.26968370    71.93471766
 H      8   3   2     1.098595154274   108.28690557    64.69093517
 H      8   3   2     1.096169625709   109.51198183   181.61265198
 O      3   2   1     1.437314071807   110.65427236   292.72966622
 H      3   2   1     1.097077566253   109.46861608   177.23278090
 C      1   2   3     1.354328368918   121.29017979   122.35411746
 C      6   1   2     1.337284911456   123.15406571   232.16629388
 H     16   6   1     1.086706141850   121.34223814   358.95782962
 H     16   6   1     1.087484722910   120.97941096   178.38163388
 C     15   1   2     1.444636065468   126.01490462   184.99725699
 H     15   1   2     1.089394526114   116.29375067     3.06246648
 C     19  15   1     1.350103945166   126.58668331   184.59067325
 H     19  15   1     1.087645022488   115.71395813     5.35160297
 C     21  19  15     1.507347636297   125.78094284     1.69312260
 C     23  21  19     1.541193258056   111.71975981   126.04455907
 H     23  21  19     1.093381161649   112.32957748     2.22771204
 H     23  21  19     1.101792414279   107.82404446   244.59451891
 C     24  23  21     1.534588326519   112.65420798    50.78203495
 H     24  23  21     1.097357507987   109.04315341   288.66103332
 H     24  23  21     1.096881946327   109.10868595   172.73858303
 C     27  24  23     1.534667924975   111.82378374   306.15870354
 H     27  24  23     1.094961910176   108.97528940   182.58753352
 H     27  24  23     1.100490313911   109.25727110    66.05901068
 C     21  19  15     1.497815938092   122.59331925   180.43176973
 H     33  21  19     1.106018141452   106.42379386   125.67045183
 C     33  21  19     1.524115425956   121.10530722     3.00898051
 H     13   3   2     0.967867862023   107.61622208    42.23775991
 C     35  33  21     1.547825208815   103.29111292   194.96667044
 H     35  33  21     1.095111108304   112.30787812    73.18320353
 H     35  33  21     1.095778018421   110.67907324   313.44600273
 C     30  27  24     1.555820436434   115.85380519   166.64090159
 H     37  35  33     1.093376380654   111.02498439   252.27404050
 H     37  35  33     1.096396508100   111.28343525   134.00242484
 H     40  30  27     1.101574095204   105.84456800   322.32072872
 C     40  30  27     1.534677638057   117.95450941    83.20942097
 C     30  27  24     1.535533198589   111.06066011   294.88378566
 H     45  30  27     1.094565029933   111.75345897   187.71535658
 H     45  30  27     1.094442123653   111.27809777    67.78817408
 H     45  30  27     1.095182931077   110.83539301   307.75347029
 H     44  40  30     1.101590247075   107.32961720    62.44569029
 C     44  40  30     1.540031966974   114.18442088   303.64708851
 C     44  40  30     1.513727078071   113.73550501   180.21085038
 C     51  44  40     1.333138659049   127.12463124    23.23704767
 H     51  44  40     1.091017897760   113.80418762   198.60622247
 H     52  51  44     1.089402223677   118.81673094   355.81599468
 C     52  51  44     1.506595625725   126.56302867   175.78199584
 C     55  52  51     1.527717786897   114.08295454     8.13385293
 C     55  52  51     1.556693924722   111.65842115   240.45078283
 H     55  52  51     1.103342598398   106.41936664   126.35404643
 H     57  55  52     1.100762233725   105.68869566   182.66006363
 C     57  55  52     1.530126724435   112.85787611    64.75452215
 C     57  55  52     1.531452646060   112.07412371   299.57814582
 H     56  55  52     1.094665079374   111.95789376   299.20567270
 H     56  55  52     1.095385008198   110.09842498   179.32617933
 H     56  55  52     1.095112113850   111.00990304    59.54993066
 H     60  57  55     1.094455372941   112.20423347    59.85225764
 H     60  57  55     1.096800882334   110.60287231   299.21797515
 H     60  57  55     1.095739683581   110.31964248   179.90475102
 H     61  57  55     1.096330998787   111.46751354   310.89668818
 H     61  57  55     1.095468388442   110.42848006   190.78434385
 H     61  57  55     1.096099213475   111.32321551    71.61826835
 H     50  44  40     1.092925505096   112.14311389    67.68114193
 H     50  44  40     1.096541913020   110.30591975   306.49900588
 H     50  44  40     1.095868647012   110.29284150   187.67634473

---------------------------
INTERNAL COORDINATES (A.U.)
---------------------------
 C      0   0   0     0.000000000000     0.00000000     0.00000000
 C      1   0   0     2.853533047975     0.00000000     0.00000000
 C      2   1   0     2.899069131895   110.39961525     0.00000000
 H      2   1   3     2.070916684878   110.78013736   237.85461568
 H      2   1   3     2.078896847096   109.81370824   118.68254746
 C      1   2   3     2.796981982064   113.83204246   305.79780455
 C      6   1   2     2.858208998341   114.34319523    50.17939134
 C      3   2   1     2.889936783889   110.21285670    56.79363011
 H      7   6   1     2.069578721382   110.24288159   188.59297834
 H      7   6   1     2.080106880457   108.26968370    71.93471766
 H      8   3   2     2.076043973630   108.28690557    64.69093517
 H      8   3   2     2.071460388913   109.51198183   181.61265198
 O      3   2   1     2.716129964146   110.65427236   292.72966622
 H      3   2   1     2.073176147886   109.46861608   177.23278090
 C      1   2   3     2.559309712655   121.29017979   122.35411746
 C      6   1   2     2.527102245677   123.15406571   232.16629388
 H     16   6   1     2.053576996147   121.34223814   358.95782962
 H     16   6   1     2.055048301123   120.97941096   178.38163388
 C     15   1   2     2.729966526921   126.01490462   184.99725699
 H     15   1   2     2.058657306148   116.29375067     3.06246648
 C     19  15   1     2.551326708690   126.58668331   184.59067325
 H     19  15   1     2.055351223425   115.71395813     5.35160297
 C     21  19  15     2.848474221215   125.78094284     1.69312260
 C     23  21  19     2.912433177172   111.71975981   126.04455907
 H     23  21  19     2.066190955506   112.32957748     2.22771204
 H     23  21  19     2.082085919419   107.82404446   244.59451891
 C     24  23  21     2.899951665434   112.65420798    50.78203495
 H     24  23  21     2.073705161098   109.04315341   288.66103332
 H     24  23  21     2.072806479800   109.10868595   172.73858303
 C     27  24  23     2.900102084717   111.82378374   306.15870354
 H     27  24  23     2.069178137308   108.97528940   182.58753352
 H     27  24  23     2.079625306325   109.25727110    66.05901068
 C     21  19  15     2.830461922016   122.59331925   180.43176973
 H     33  21  19     2.090071386493   106.42379386   125.67045183
 C     33  21  19     2.880160751542   121.10530722     3.00898051
 H     13   3   2     1.829005193047   107.61622208    42.23775991
 C     35  33  21     2.924965747839   103.29111292   194.96667044
 H     35  33  21     2.069460080909   112.30787812    73.18320353
 H     35  33  21     2.070720358386   110.67907324   313.44600273
 C     30  27  24     2.940074538419   115.85380519   166.64090159
 H     37  35  33     2.066181920735   111.02498439   252.27404050
 H     37  35  33     2.071889134496   111.28343525   134.00242484
 H     40  30  27     2.081673356158   105.84456800   322.32072872
 C     40  30  27     2.900120439781   117.95450941    83.20942097
 C     30  27  24     2.901737214877   111.06066011   294.88378566
 H     45  30  27     2.068428142341   111.75345897   187.71535658
 H     45  30  27     2.068195883131   111.27809777    67.78817408
 H     45  30  27     2.069595806281   110.83539301   307.75347029
 H     44  40  30     2.081703878770   107.32961720    62.44569029
 C     44  40  30     2.910238655066   114.18442088   303.64708851
 C     44  40  30     2.860529619056   113.73550501   180.21085038
 C     51  44  40     2.519266964146   127.12463124    23.23704767
 H     51  44  40     2.061725033974   113.80418762   198.60622247
 H     52  51  44     2.058671852434   118.81673094   355.81599468
 C     52  51  44     2.847053127183   126.56302867   175.78199584
 C     55  52  51     2.886968227156   114.08295454     8.13385293
 C     55  52  51     2.941725192063   111.65842115   240.45078283
 H     55  52  51     2.085015342861   106.41936664   126.35404643
 H     57  55  52     2.080139160304   105.68869566   182.66006363
 C     57  55  52     2.891520459377   112.85787611    64.75452215
 C     57  55  52     2.894026088122   112.07412371   299.57814582
 H     56  55  52     2.068617208384   111.95789376   299.20567270
 H     56  55  52     2.069977676697   110.09842498   179.32617933
 H     56  55  52     2.069461981116   111.00990304    59.54993066
 H     60  57  55     2.068220920657   112.20423347    59.85225764
 H     60  57  55     2.072653291055   110.60287231   299.21797515
 H     60  57  55     2.070647916038   110.31964248   179.90475102
 H     61  57  55     2.071765339836   111.46751354   310.89668818
 H     61  57  55     2.070135242524   110.42848006   190.78434385
 H     61  57  55     2.071327329075   111.32321551    71.61826835
 H     50  44  40     2.065329889409   112.14311389    67.68114193
 H     50  44  40     2.072163909974   110.30591975   306.49900588
 H     50  44  40     2.070891621603   110.29284150   187.67634473

---------------------
BASIS SET INFORMATION
---------------------
There are 3 groups of distinct atoms

 Group   1 Type C   : 7s4p contracted to 4s3p pattern {4111/211}
 Group   2 Type H   : 5s contracted to 3s pattern {311}
 Group   3 Type O   : 7s4p contracted to 4s3p pattern {4111/211}

Atom   0C    basis set group =>   1
Atom   1C    basis set group =>   1
Atom   2C    basis set group =>   1
Atom   3H    basis set group =>   2
Atom   4H    basis set group =>   2
Atom   5C    basis set group =>   1
Atom   6C    basis set group =>   1
Atom   7C    basis set group =>   1
Atom   8H    basis set group =>   2
Atom   9H    basis set group =>   2
Atom  10H    basis set group =>   2
Atom  11H    basis set group =>   2
Atom  12O    basis set group =>   3
Atom  13H    basis set group =>   2
Atom  14C    basis set group =>   1
Atom  15C    basis set group =>   1
Atom  16H    basis set group =>   2
Atom  17H    basis set group =>   2
Atom  18C    basis set group =>   1
Atom  19H    basis set group =>   2
Atom  20C    basis set group =>   1
Atom  21H    basis set group =>   2
Atom  22C    basis set group =>   1
Atom  23C    basis set group =>   1
Atom  24H    basis set group =>   2
Atom  25H    basis set group =>   2
Atom  26C    basis set group =>   1
Atom  27H    basis set group =>   2
Atom  28H    basis set group =>   2
Atom  29C    basis set group =>   1
Atom  30H    basis set group =>   2
Atom  31H    basis set group =>   2
Atom  32C    basis set group =>   1
Atom  33H    basis set group =>   2
Atom  34C    basis set group =>   1
Atom  35H    basis set group =>   2
Atom  36C    basis set group =>   1
Atom  37H    basis set group =>   2
Atom  38H    basis set group =>   2
Atom  39C    basis set group =>   1
Atom  40H    basis set group =>   2
Atom  41H    basis set group =>   2
Atom  42H    basis set group =>   2
Atom  43C    basis set group =>   1
Atom  44C    basis set group =>   1
Atom  45H    basis set group =>   2
Atom  46H    basis set group =>   2
Atom  47H    basis set group =>   2
Atom  48H    basis set group =>   2
Atom  49C    basis set group =>   1
Atom  50C    basis set group =>   1
Atom  51C    basis set group =>   1
Atom  52H    basis set group =>   2
Atom  53H    basis set group =>   2
Atom  54C    basis set group =>   1
Atom  55C    basis set group =>   1
Atom  56C    basis set group =>   1
Atom  57H    basis set group =>   2
Atom  58H    basis set group =>   2
Atom  59C    basis set group =>   1
Atom  60C    basis set group =>   1
Atom  61H    basis set group =>   2
Atom  62H    basis set group =>   2
Atom  63H    basis set group =>   2
Atom  64H    basis set group =>   2
Atom  65H    basis set group =>   2
Atom  66H    basis set group =>   2
Atom  67H    basis set group =>   2
Atom  68H    basis set group =>   2
Atom  69H    basis set group =>   2
Atom  70H    basis set group =>   2
Atom  71H    basis set group =>   2
Atom  72H    basis set group =>   2

-------------------------
BASIS SET IN INPUT FORMAT
-------------------------

 # Basis set for element : H 
 NewGTO H 
 S 3 
   1    1357.7500000000      0.0012928364
   2      54.3100000000      0.0588280685
   3       4.3448000000      0.9761499708
 S 1 
   1       0.6604910000      1.0000000000
 S 1 
   1       0.1366870000      1.0000000000
  end;

 # Basis set for element : C 
 NewGTO C 
 S 4 
   1  139534.0000000000      0.0001655246
   2    5581.3600000000      0.0074486101
   3     446.5090000000      0.1285821065
   4      67.4620000000      0.9218029311
 S 1 
   1      15.0674000000      1.0000000000
 S 1 
   1       3.9387600000      1.0000000000
 S 1 
   1       0.2999150000      1.0000000000
 P 2 
   1      28.3900000000      0.0816325586
   2       4.3676900000      0.9660360576
 P 1 
   1       0.8698170000      1.0000000000
 P 1 
   1       0.1889340000      1.0000000000
  end;

 # Basis set for element : O 
 NewGTO O 
 S 4 
   1  253789.0000000000      0.0001641076
   2   10151.6000000000      0.0074010921
   3     812.1250000000      0.1277711901
   4     122.6930000000      0.9223372164
 S 1 
   1      27.5608000000      1.0000000000
 S 1 
   1       7.3172600000      1.0000000000
 S 1 
   1       0.5792400000      1.0000000000
 P 2 
   1      53.4157000000      0.0793786106
   2       8.2177900000      0.9670506337
 P 1 
   1       1.6754400000      1.0000000000
 P 1 
   1       0.3506720000      1.0000000000
  end;

---------------------------------
AUXILIARY/J BASIS SET INFORMATION
---------------------------------
There are 3 groups of distinct atoms

 Group   1 Type C   : 12s5p4d2f1g contracted to 6s4p3d1f1g pattern {711111/2111/211/2/1}
 Group   2 Type H   : 5s2p1d contracted to 3s1p1d pattern {311/2/1}
 Group   3 Type O   : 12s5p4d2f1g contracted to 6s4p3d1f1g pattern {711111/2111/211/2/1}

Atom   0C    basis set group =>   1
Atom   1C    basis set group =>   1
Atom   2C    basis set group =>   1
Atom   3H    basis set group =>   2
Atom   4H    basis set group =>   2
Atom   5C    basis set group =>   1
Atom   6C    basis set group =>   1
Atom   7C    basis set group =>   1
Atom   8H    basis set group =>   2
Atom   9H    basis set group =>   2
Atom  10H    basis set group =>   2
Atom  11H    basis set group =>   2
Atom  12O    basis set group =>   3
Atom  13H    basis set group =>   2
Atom  14C    basis set group =>   1
Atom  15C    basis set group =>   1
Atom  16H    basis set group =>   2
Atom  17H    basis set group =>   2
Atom  18C    basis set group =>   1
Atom  19H    basis set group =>   2
Atom  20C    basis set group =>   1
Atom  21H    basis set group =>   2
Atom  22C    basis set group =>   1
Atom  23C    basis set group =>   1
Atom  24H    basis set group =>   2
Atom  25H    basis set group =>   2
Atom  26C    basis set group =>   1
Atom  27H    basis set group =>   2
Atom  28H    basis set group =>   2
Atom  29C    basis set group =>   1
Atom  30H    basis set group =>   2
Atom  31H    basis set group =>   2
Atom  32C    basis set group =>   1
Atom  33H    basis set group =>   2
Atom  34C    basis set group =>   1
Atom  35H    basis set group =>   2
Atom  36C    basis set group =>   1
Atom  37H    basis set group =>   2
Atom  38H    basis set group =>   2
Atom  39C    basis set group =>   1
Atom  40H    basis set group =>   2
Atom  41H    basis set group =>   2
Atom  42H    basis set group =>   2
Atom  43C    basis set group =>   1
Atom  44C    basis set group =>   1
Atom  45H    basis set group =>   2
Atom  46H    basis set group =>   2
Atom  47H    basis set group =>   2
Atom  48H    basis set group =>   2
Atom  49C    basis set group =>   1
Atom  50C    basis set group =>   1
Atom  51C    basis set group =>   1
Atom  52H    basis set group =>   2
Atom  53H    basis set group =>   2
Atom  54C    basis set group =>   1
Atom  55C    basis set group =>   1
Atom  56C    basis set group =>   1
Atom  57H    basis set group =>   2
Atom  58H    basis set group =>   2
Atom  59C    basis set group =>   1
Atom  60C    basis set group =>   1
Atom  61H    basis set group =>   2
Atom  62H    basis set group =>   2
Atom  63H    basis set group =>   2
Atom  64H    basis set group =>   2
Atom  65H    basis set group =>   2
Atom  66H    basis set group =>   2
Atom  67H    basis set group =>   2
Atom  68H    basis set group =>   2
Atom  69H    basis set group =>   2
Atom  70H    basis set group =>   2
Atom  71H    basis set group =>   2
Atom  72H    basis set group =>   2

-------------------------------------
AUXILIARY/J BASIS SET IN INPUT FORMAT
-------------------------------------

 # Auxiliary/J basis set for element : H 
 NewAuxJGTO H 
 S 3 
   1      15.6752927000      0.1007184237
   2       3.6063578000      0.3404257499
   3       1.2080016000      0.6491996172
 S 1 
   1       0.4726794000      1.0000000000
 S 1 
   1       0.2018100000      1.0000000000
 P 2 
   1       2.0281365000      0.5596620919
   2       0.5358730000      0.5596620919
 D 1 
   1       2.2165124000      1.0000000000
  end;

 # Auxiliary/J basis set for element : C 
 NewAuxJGTO C 
 S 7 
   1    1861.0916331000      0.0134602335
   2     642.9939764000      0.0299160374
   3     235.1105725000      0.1008649584
   4      90.7028894000      0.2370970548
   5      36.7794552000      0.3924037254
   6      15.6046273000      0.3195862154
   7       6.8907294000      0.0530104441
 S 1 
   1       3.1478850000     -1.0000000000
 S 1 
   1       1.4777287000      1.0000000000
 S 1 
   1       0.7076466000      1.0000000000
 S 1 
   1       0.3430122000      1.0000000000
 S 1 
   1       0.1669453000      1.0000000000
 P 2 
   1      13.5472892000     -0.6769313712
   2       5.4669419000     -0.3779500978
 P 1 
   1       2.1751721000      1.0000000000
 P 1 
   1       0.8582194000      1.0000000000
 P 1 
   1       0.3376720000      1.0000000000
 D 2 
   1       5.9287253000     -0.3533329857
   2       1.9809209000     -0.7456525731
 D 1 
   1       0.8055417000     -1.0000000000
 D 1 
   1       0.3531244000     -1.0000000000
 F 2 
   1       1.6755626000      0.6311076882
   2       0.5997536000      0.4968166032
 G 1 
   1       1.0024600000     -1.0000000000
  end;

 # Auxiliary/J basis set for element : O 
 NewAuxJGTO O 
 S 7 
   1    2876.8216605000      0.0168151159
   2    1004.7443032000      0.0340137548
   3     369.7579954000      0.1194951309
   4     142.9442404000      0.2664627624
   5      57.8366425000      0.4202764046
   6      24.3864983000      0.2765077335
   7      10.6622662000      0.0057008815
 S 1 
   1       4.8070437000     -1.0000000000
 S 1 
   1       2.2210770000      1.0000000000
 S 1 
   1       1.0447795000      1.0000000000
 S 1 
   1       0.4968425000      1.0000000000
 S 1 
   1       0.2371384000      1.0000000000
 P 2 
   1      64.2613382000     -0.2731534179
   2      16.3006076000     -0.8168011598
 P 1 
   1       4.3550542000      1.0000000000
 P 1 
   1       1.2019554000      1.0000000000
 P 1 
   1       0.3354196000      1.0000000000
 D 2 
   1       9.2146611000     -0.4661230638
   2       2.8435251000     -0.6600908911
 D 1 
   1       0.9955759000     -1.0000000000
 D 1 
   1       0.3649441000     -1.0000000000
 F 2 
   1       2.6420115000      0.5931563945
   2       0.7345613000      0.5931563945
 G 1 
   1       1.3931000000     -1.0000000000
  end;



           ************************************************************
           *        Program running with 4 parallel MPI-processes     *
           *              working on a common directory               *
           ************************************************************
------------------------------------------------------------------------------
                           ORCA GTO INTEGRAL CALCULATION
                           -- RI-GTO INTEGRALS CHOSEN --
------------------------------------------------------------------------------
------------------------------------------------------------------------------
                   ___                                                        
                  /   \      - P O W E R E D   B Y -                         
                 /     \                                                     
                 |  |  |   _    _      __       _____    __    __             
                 |  |  |  | |  | |    /  \     |  _  \  |  |  /  |          
                  \  \/   | |  | |   /    \    | | | |  |  | /  /          
                 / \  \   | |__| |  /  /\  \   | |_| |  |  |/  /          
                |  |  |   |  __  | /  /__\  \  |    /   |      \           
                |  |  |   | |  | | |   __   |  |    \   |  |\   \          
                \     /   | |  | | |  |  |  |  | |\  \  |  | \   \       
                 \___/    |_|  |_| |__|  |__|  |_| \__\ |__|  \__/        
                                                                              
                      - O R C A' S   B I G   F R I E N D -                    
                                      &                                       
                       - I N T E G R A L  F E E D E R -                       
                                                                              
 v1 FN, 2020, v2 2021                                                         
------------------------------------------------------------------------------


Reading SHARK input file inpJ.SHARKINP.tmp ... ok
----------------------
SHARK INTEGRAL PACKAGE
----------------------

Number of atoms                             ...     73
Number of basis functions                   ...    509
Number of shells                            ...    335
Maximum angular momentum                    ...      1
Integral batch strategy                     ... SHARK/LIBINT Hybrid
RI-J (if used) integral strategy            ... SPLIT-RIJ (Revised 2003 algorithm where possible)
Printlevel                                  ...      1
Contraction scheme used                     ... SEGMENTED contraction
Coulomb Range Separation                    ... NOT USED
Exchange Range Separation                   ... NOT USED
Finite Nucleus Model                        ... NOT USED
Auxiliary Coulomb fitting basis             ... AVAILABLE
   # of basis functions in Aux-J            ...   1905
   # of shells in Aux-J                     ...    655
   Maximum angular momentum in Aux-J        ...      4
Auxiliary J/K fitting basis                 ... NOT available
Auxiliary Correlation fitting basis         ... NOT available
Auxiliary 'external' fitting basis          ... NOT available
Integral threshold                          ...     3.000000e-11
Primitive cut-off                           ...     1.000000e-12
Primitive pair pre-selection threshold      ...     1.000000e-12

Calculating pre-screening integrals         ... done (  0.0 sec) Dimension = 335
Organizing shell pair data                  ... done (  0.1 sec)
Shell pair information
Total number of shell pairs                 ...     56280
Shell pairs after pre-screening             ...     22184
Total number of primitive shell pairs       ...    145865
Primitive shell pairs kept                  ...     38092
          la=0 lb=0:  11171 shell pairs
          la=1 lb=0:   9119 shell pairs
          la=1 lb=1:   1894 shell pairs

Calculating one electron integrals          ... done (  0.0 sec)
Calculating RI/J V-Matrix + Cholesky decomp.... done (  0.2 sec)
Calculating Nuclear repulsion               ... done (  0.0 sec) ENN=   2804.540045457210 Eh

SHARK setup successfully completed in   0.4 seconds

Maximum memory used throughout the entire GTOINT-calculation: 46.5 MB


           ************************************************************
           *        Program running with 4 parallel MPI-processes     *
           *              working on a common directory               *
           ************************************************************
-------------------------------------------------------------------------------
                                 ORCA SCF
-------------------------------------------------------------------------------

------------
SCF SETTINGS
------------
Hamiltonian:
 Density Functional     Method          .... DFT(GTOs)
 Exchange Functional    Exchange        .... PBE
   PBE kappa parameter   XKappa         ....  0.804000
   PBE mue parameter    XMuePBE         ....  0.219520
 Correlation Functional Correlation     .... PBE
   PBE beta parameter  CBetaPBE         ....  0.066725
 LDA part of GGA corr.  LDAOpt          .... PW91-LDA
 Gradients option       PostSCFGGA      .... off
 Hybrid DFT is turned on
   Fraction HF Exchange ScalHFX         ....  0.250000
   Scaling of DF-GGA-X  ScalDFX         ....  0.750000
   Scaling of DF-GGA-C  ScalDFC         ....  1.000000
   Scaling of DF-LDA-C  ScalLDAC        ....  1.000000
   Perturbative correction              ....  0.000000
   Density functional embedding theory  .... OFF
   NL short-range parameter             ....  6.900000
 RI-approximation to the Coulomb term is turned on
   Number of AuxJ basis functions       .... 1905
   RIJ-COSX (HFX calculated with COS-X)).... on


General Settings:
 Integral files         IntName         .... inpJ
 Hartree-Fock type      HFTyp           .... RHF
 Total Charge           Charge          ....    0
 Multiplicity           Mult            ....    1
 Number of Electrons    NEL             ....  220
 Basis Dimension        Dim             ....  509
 Nuclear Repulsion      ENuc            ....   2804.5400454572 Eh

Convergence Acceleration:
 DIIS                   CNVDIIS         .... on
   Start iteration      DIISMaxIt       ....    12
   Startup error        DIISStart       ....  0.200000
   # of expansion vecs  DIISMaxEq       ....     5
   Bias factor          DIISBfac        ....   1.050
   Max. coefficient     DIISMaxC        ....  10.000
 Trust-Rad. Augm. Hess. CNVTRAH         .... auto
   Auto Start mean grad. ratio tolernc. ....  1.125000
   Auto Start start iteration           ....    20
   Auto Start num. interpolation iter.  ....    10
   Max. Number of Micro iterations      ....    16
   Max. Number of Macro iterations      .... Maxiter - #DIIS iter
   Number of Davidson start vectors     ....     2
   Converg. threshold I  (grad. norm)   ....   1.000e-04
   Converg. threshold II (energy diff.) ....   1.000e-07
   Grad. Scal. Fac. for Micro threshold ....   0.100
   Minimum threshold for Micro iter.    ....   0.010
   NR start threshold (gradient norm)   ....   0.001
   Initial trust radius                 ....   0.400
   Minimum AH scaling param. (alpha)    ....   1.000
   Maximum AH scaling param. (alpha)    .... 1000.000
   Orbital update algorithm             .... Taylor
   White noise on init. David. guess    .... on
   Maximum white noise                  ....   0.010
   Quad. conv. algorithm                .... NR
 SOSCF                  CNVSOSCF        .... off
 Level Shifting         CNVShift        .... on
   Level shift para.    LevelShift      ....    0.2500
   Turn off err/grad.   ShiftErr        ....    0.0010
 Zerner damping         CNVZerner       .... off
 Static damping         CNVDamp         .... on
   Fraction old density DampFac         ....    0.7000
   Max. Damping (<1)    DampMax         ....    0.9800
   Min. Damping (>=0)   DampMin         ....    0.0000
   Turn off err/grad.   DampErr         ....    0.1000
 Fernandez-Rico         CNVRico         .... off

SCF Procedure:
 Maximum # iterations   MaxIter         ....   125
 SCF integral mode      SCFMode         .... Direct
   Integral package                     .... SHARK and LIBINT hybrid scheme
 Reset frequency        DirectResetFreq ....    20
 Integral Threshold     Thresh          ....  3.000e-11 Eh
 Primitive CutOff       TCut            ....  1.000e-12 Eh

Convergence Tolerance:
 Convergence Check Mode ConvCheckMode   .... Total+1el-Energy
 Convergence forced     ConvForced      .... 0
 Energy Change          TolE            ....  1.000e-07 Eh
 1-El. energy change                    ....  1.000e-04 Eh
 DIIS Error             TolErr          ....  1.000e-07


Diagonalization of the overlap matrix:
Smallest eigenvalue                        ... 7.556e-03
Time for diagonalization                   ...    0.031 sec
Threshold for overlap eigenvalues          ... 1.000e-08
Number of eigenvalues below threshold      ... 0
Time for construction of square roots      ...    0.036 sec
Total time needed                          ...    0.068 sec

Time for model grid setup =    0.733 sec

------------------------------
INITIAL GUESS: MODEL POTENTIAL
------------------------------
Loading Hartree-Fock densities                     ... done
Calculating cut-offs                               ... done
Initializing the effective Hamiltonian             ... done
Setting up the integral package (SHARK)            ... done
Starting the Coulomb interaction                   ... done (   0.3 sec)
Reading the grid                                   ... done
Mapping shells                                     ... done
Starting the XC term evaluation                    ... done (   0.1 sec)
  promolecular density results
     # of electrons  =    219.972183218
     EX              =   -164.432177952
     EC              =     -7.329147775
     EX+EC           =   -171.761325726
Transforming the Hamiltonian                       ... done (   0.0 sec)
Diagonalizing the Hamiltonian                      ... done (   0.0 sec)
Back transforming the eigenvectors                 ... done (   0.0 sec)
Now organizing SCF variables                       ... done
                      ------------------
                      INITIAL GUESS DONE (   1.3 sec)
                      ------------------
-------------------
DFT GRID GENERATION
-------------------

General Integration Accuracy     IntAcc      ... 4.388
Radial Grid Type                 RadialGrid  ... OptM3 with GC (2021)
Angular Grid (max. ang.)         AngularGrid ... 4 (Lebedev-302)
Angular grid pruning method      GridPruning ... 4 (adaptive)
Weight generation scheme         WeightScheme... Becke
Basis function cutoff            BFCut       ... 1.0000e-11
Integration weight cutoff        WCut        ... 1.0000e-14
Angular grids for H and He will be reduced by one unit
Partially contracted basis set               ... off
Rotationally invariant grid construction     ... off

Total number of grid points                  ...   309734
Total number of batches                      ...     4878
Average number of points per batch           ...       63
Average number of grid points per atom       ...     4243
Time for grid setup =    2.813 sec

--------------------
COSX GRID GENERATION
--------------------

GRIDX 1
-------
General Integration Accuracy     IntAcc      ... 3.816
Radial Grid Type                 RadialGrid  ... OptM3 with GC (2021)
Angular Grid (max. ang.)         AngularGrid ... 1 (Lebedev-50)
Angular grid pruning method      GridPruning ... 4 (adaptive)
Weight generation scheme         WeightScheme... Becke
Basis function cutoff            BFCut       ... 1.0000e-11
Integration weight cutoff        WCut        ... 1.0000e-14
Angular grids for H and He will be reduced by one unit
Partially contracted basis set               ... on
Rotationally invariant grid construction     ... off

Total number of grid points                  ...    39381
Total number of batches                      ...      658
Average number of points per batch           ...       59
Average number of grid points per atom       ...      539
UseSFitting                                  ... on

GRIDX 2
-------
General Integration Accuracy     IntAcc      ... 4.020
Radial Grid Type                 RadialGrid  ... OptM3 with GC (2021)
Angular Grid (max. ang.)         AngularGrid ... 2 (Lebedev-110)
Angular grid pruning method      GridPruning ... 4 (adaptive)
Weight generation scheme         WeightScheme... Becke
Basis function cutoff            BFCut       ... 1.0000e-11
Integration weight cutoff        WCut        ... 1.0000e-14
Angular grids for H and He will be reduced by one unit
Partially contracted basis set               ... on
Rotationally invariant grid construction     ... off

Total number of grid points                  ...    81362
Total number of batches                      ...     1309
Average number of points per batch           ...       62
Average number of grid points per atom       ...     1115
UseSFitting                                  ... on

GRIDX 3
-------
General Integration Accuracy     IntAcc      ... 4.338
Radial Grid Type                 RadialGrid  ... OptM3 with GC (2021)
Angular Grid (max. ang.)         AngularGrid ... 3 (Lebedev-194)
Angular grid pruning method      GridPruning ... 4 (adaptive)
Weight generation scheme         WeightScheme... Becke
Basis function cutoff            BFCut       ... 1.0000e-11
Integration weight cutoff        WCut        ... 1.0000e-14
Angular grids for H and He will be reduced by one unit
Partially contracted basis set               ... on
Rotationally invariant grid construction     ... off

Total number of grid points                  ...   176031
Total number of batches                      ...     2786
Average number of points per batch           ...       63
Average number of grid points per atom       ...     2411
UseSFitting                                  ... on

Time for X-Grid setup             =    2.753 sec


--------------------
CPCM SOLVATION MODEL
--------------------
CPCM parameters:
  Epsilon                                         ...       4.9000
  Refrac                                          ...       1.4500
  Rsolv                                           ...       1.3000
  Surface type                                    ... GAUSSIAN VDW
  Epsilon function type                           ...         CPCM
Radii:
 Radius for C  used is    3.8550 Bohr (=   2.0400 Ang.)
 Radius for H  used is    2.4944 Bohr (=   1.3200 Ang.)
 Radius for O  used is    3.4469 Bohr (=   1.8240 Ang.)
Calculating surface                               ...        done! (  0.0s)
GEPOL surface points                              ...         3619
GEPOL Volume                                      ...    3587.0711
GEPOL Surface-area                                ...    1775.7923
Calculating surface distance matrix               ...        done! (  0.1s)
Performing Cholesky decomposition & store         ...        done! (  0.5s)
Overall time for CPCM initialization              ...                 0.6s
--------------
SCF ITERATIONS
--------------
ITER       Energy         Delta-E        Max-DP      RMS-DP      [F,P]     Damp
               ***  Starting incremental Fock matrix formation  ***

  HOMO= 109 E= -3.993 eV LUMO=  7.703 eV gap=  11.695 eV
  0  -1165.0078161644   0.000000000000 0.09757622  0.00106908  0.1970831 0.7000

  HOMO= 109 E= -4.852 eV LUMO=  7.022 eV gap=  11.874 eV
  1  -1165.2276335158  -0.219817351342 0.06546179  0.00078636  0.0954211 0.7000
                               ***Turning on DIIS***

  HOMO= 109 E= -5.448 eV LUMO=  6.475 eV gap=  11.923 eV
  2  -1165.3287528964  -0.101119380614 0.10317245  0.00138988  0.0375618 0.0000

  HOMO= 109 E= -6.003 eV LUMO=  5.947 eV gap=  11.950 eV
  3  -1165.4734144171  -0.144661520702 0.05138213  0.00057517  0.0462898 0.0000

  HOMO= 109 E= -6.075 eV LUMO=  5.874 eV gap=  11.949 eV
  4  -1165.5091812197  -0.035766802641 0.01170382  0.00013354  0.0058915 0.0000

  HOMO= 109 E= -6.023 eV LUMO=  5.933 eV gap=  11.956 eV
  5  -1165.5100279060  -0.000846686272 0.00252104  0.00003797  0.0051344 0.0000

  HOMO= 109 E= -6.010 eV LUMO=  5.947 eV gap=  11.957 eV
  6  -1165.5101071079  -0.000079201898 0.00118530  0.00001166  0.0010719 0.0000

  HOMO= 109 E= -6.012 eV LUMO= -0.857 eV gap=   5.154 eV
  7  -1165.5101123313  -0.000005223417 0.00051191  0.00000597  0.0002339 0.0000
               *** Restarting incremental Fock matrix formation ***
                                   *** Resetting DIIS ***

  HOMO= 109 E= -6.011 eV LUMO= -0.856 eV gap=   5.155 eV
  8  -1165.5100840968   0.000028234481 0.00033907  0.00000273  0.0001172 0.0000

  HOMO= 109 E= -6.011 eV LUMO= -0.856 eV gap=   5.155 eV
  9  -1165.5100841237  -0.000000026885 0.00013357  0.00000128  0.0001553 0.0000

  HOMO= 109 E= -6.011 eV LUMO= -0.856 eV gap=   5.155 eV
 10  -1165.5100842574  -0.000000133731 0.00005979  0.00000037  0.0000288 0.0000

  HOMO= 109 E= -6.011 eV LUMO= -0.856 eV gap=   5.155 eV
 11  -1165.5100842920  -0.000000034527 0.00002368  0.00000017  0.0000162 0.0000

  HOMO= 109 E= -6.011 eV LUMO= -0.856 eV gap=   5.155 eV
 12  -1165.5100842777   0.000000014256 0.00000690  0.00000004  0.0000030 0.0000
                 **** Energy Check signals convergence ****

               *****************************************************
               *                     SUCCESS                       *
               *           SCF CONVERGED AFTER  13 CYCLES          *
               *****************************************************

Old exchange energy                            =    -42.068254337 Eh
New exchange energy                            =    -42.068285024 Eh
Exchange energy change after final integration =     -0.000030686 Eh
Total energy after final integration           =  -1165.510114981 Eh
Final COS-X integration done in                =    15.172 sec

----------------
TOTAL SCF ENERGY
----------------

Total Energy       :        -1165.51011498 Eh          -31715.14260 eV

Components:
Nuclear Repulsion  :         2804.54004546 Eh           76315.41444 eV
Electronic Energy  :        -3970.05016044 Eh         -108030.55703 eV
One Electron Energy:        -7150.86365499 Eh         -194584.89256 eV
Two Electron Energy:         3180.81349455 Eh           86554.33552 eV
Max COSX asymmetry :            0.00000237 Eh               0.00006 eV
CPCM Dielectric    :           -0.01357638 Eh              -0.36943 eV

Virial components:
Potential Energy   :        -2322.41031498 Eh          -63195.99749 eV
Kinetic Energy     :         1156.90020000 Eh           31480.85490 eV
Virial Ratio       :            2.00744223


DFT components:
N(Alpha)           :      109.999965656216 electrons
N(Beta)            :      109.999965656216 electrons
N(Total)           :      219.999931312432 electrons
E(X)               :     -125.746959862353 Eh       
E(C)               :       -7.329454575666 Eh       
E(XC)              :     -133.076414438019 Eh       
DFET-embed. en.    :        0.000000000000 Eh       
CPCM Solvation Model Properties:
Surface-charge          :           -0.03413584
Charge-correction       :           -0.00008634 Eh              -0.00235 eV
Free-energy (cav+disp)  :  This term is not implemented in the current solvation scheme

---------------
SCF CONVERGENCE
---------------

  Last Energy change         ...   -1.7313e-08  Tolerance :   1.0000e-07
  Last MAX-Density change    ...    0.0000e+00  Tolerance :   1.0000e-05
  Last RMS-Density change    ...    0.0000e+00  Tolerance :   1.0000e-06
  Last DIIS Error            ...    1.9736e-06  Tolerance :   1.0000e-07

             **** THE GBW FILE WAS UPDATED (inpJ.gbw) ****
             **** DENSITY inpJ.scfp WAS UPDATED ****
             **** ENERGY FILE WAS UPDATED (inpJ.en.tmp) ****
             **** THE GBW FILE WAS UPDATED (inpJ.gbw) ****
             **** DENSITY inpJ.scfp WAS UPDATED ****
----------------
ORBITAL ENERGIES
----------------

  NO   OCC          E(Eh)            E(eV) 
   0   2.0000     -19.212378      -522.7954 
   1   2.0000     -10.300451      -280.2895 
   2   2.0000     -10.270340      -279.4702 
   3   2.0000     -10.268267      -279.4138 
   4   2.0000     -10.263618      -279.2872 
   5   2.0000     -10.257388      -279.1177 
   6   2.0000     -10.256848      -279.1030 
   7   2.0000     -10.251394      -278.9546 
   8   2.0000     -10.250846      -278.9397 
   9   2.0000     -10.249379      -278.8998 
  10   2.0000     -10.248088      -278.8646 
  11   2.0000     -10.247624      -278.8520 
  12   2.0000     -10.245839      -278.8034 
  13   2.0000     -10.244374      -278.7636 
  14   2.0000     -10.244215      -278.7593 
  15   2.0000     -10.243139      -278.7300 
  16   2.0000     -10.242910      -278.7237 
  17   2.0000     -10.241756      -278.6924 
  18   2.0000     -10.241349      -278.6813 
  19   2.0000     -10.241293      -278.6798 
  20   2.0000     -10.239983      -278.6441 
  21   2.0000     -10.233931      -278.4794 
  22   2.0000     -10.233840      -278.4769 
  23   2.0000     -10.232706      -278.4461 
  24   2.0000     -10.226948      -278.2894 
  25   2.0000     -10.225073      -278.2384 
  26   2.0000     -10.224956      -278.2352 
  27   2.0000     -10.222044      -278.1560 
  28   2.0000     -10.220534      -278.1149 
  29   2.0000      -1.043171       -28.3861 
  30   2.0000      -0.901457       -24.5299 
  31   2.0000      -0.882188       -24.0055 
  32   2.0000      -0.859946       -23.4003 
  33   2.0000      -0.845622       -23.0106 
  34   2.0000      -0.822076       -22.3698 
  35   2.0000      -0.814111       -22.1531 
  36   2.0000      -0.795825       -21.6555 
  37   2.0000      -0.794952       -21.6317 
  38   2.0000      -0.776585       -21.1320 
  39   2.0000      -0.758185       -20.6313 
  40   2.0000      -0.740253       -20.1433 
  41   2.0000      -0.733141       -19.9498 
  42   2.0000      -0.715119       -19.4594 
  43   2.0000      -0.703034       -19.1305 
  44   2.0000      -0.702812       -19.1245 
  45   2.0000      -0.695893       -18.9362 
  46   2.0000      -0.670515       -18.2456 
  47   2.0000      -0.663600       -18.0575 
  48   2.0000      -0.633687       -17.2435 
  49   2.0000      -0.622171       -16.9301 
  50   2.0000      -0.612961       -16.6795 
  51   2.0000      -0.608030       -16.5453 
  52   2.0000      -0.596670       -16.2362 
  53   2.0000      -0.584637       -15.9088 
  54   2.0000      -0.563745       -15.3403 
  55   2.0000      -0.540963       -14.7203 
  56   2.0000      -0.529647       -14.4124 
  57   2.0000      -0.528453       -14.3799 
  58   2.0000      -0.515104       -14.0167 
  59   2.0000      -0.507300       -13.8043 
  60   2.0000      -0.500557       -13.6208 
  61   2.0000      -0.491863       -13.3843 
  62   2.0000      -0.485785       -13.2189 
  63   2.0000      -0.481679       -13.1071 
  64   2.0000      -0.474952       -12.9241 
  65   2.0000      -0.468345       -12.7443 
  66   2.0000      -0.464967       -12.6524 
  67   2.0000      -0.459269       -12.4973 
  68   2.0000      -0.458346       -12.4722 
  69   2.0000      -0.451331       -12.2813 
  70   2.0000      -0.450366       -12.2551 
  71   2.0000      -0.443440       -12.0666 
  72   2.0000      -0.436642       -11.8816 
  73   2.0000      -0.433708       -11.8018 
  74   2.0000      -0.432410       -11.7665 
  75   2.0000      -0.425187       -11.5699 
  76   2.0000      -0.420428       -11.4404 
  77   2.0000      -0.414872       -11.2893 
  78   2.0000      -0.409234       -11.1358 
  79   2.0000      -0.403533       -10.9807 
  80   2.0000      -0.401609       -10.9283 
  81   2.0000      -0.397650       -10.8206 
  82   2.0000      -0.395267       -10.7558 
  83   2.0000      -0.388007       -10.5582 
  84   2.0000      -0.384803       -10.4710 
  85   2.0000      -0.380797       -10.3620 
  86   2.0000      -0.375003       -10.2044 
  87   2.0000      -0.373004       -10.1500 
  88   2.0000      -0.366762        -9.9801 
  89   2.0000      -0.363869        -9.9014 
  90   2.0000      -0.360748        -9.8165 
  91   2.0000      -0.357010        -9.7147 
  92   2.0000      -0.355676        -9.6784 
  93   2.0000      -0.345328        -9.3969 
  94   2.0000      -0.340843        -9.2748 
  95   2.0000      -0.338831        -9.2200 
  96   2.0000      -0.337812        -9.1923 
  97   2.0000      -0.334735        -9.1086 
  98   2.0000      -0.331813        -9.0291 
  99   2.0000      -0.329252        -8.9594 
 100   2.0000      -0.327937        -8.9236 
 101   2.0000      -0.321633        -8.7521 
 102   2.0000      -0.319031        -8.6813 
 103   2.0000      -0.315349        -8.5811 
 104   2.0000      -0.310271        -8.4429 
 105   2.0000      -0.300583        -8.1793 
 106   2.0000      -0.276517        -7.5244 
 107   2.0000      -0.274823        -7.4783 
 108   2.0000      -0.255277        -6.9464 
 109   2.0000      -0.220906        -6.0112 
 110   0.0000      -0.031463        -0.8562 
 111   0.0000       0.019428         0.5287 
 112   0.0000       0.028441         0.7739 
 113   0.0000       0.080366         2.1869 
 114   0.0000       0.089206         2.4274 
 115   0.0000       0.102130         2.7791 
 116   0.0000       0.104848         2.8531 
 117   0.0000       0.107649         2.9293 
 118   0.0000       0.108733         2.9588 
 119   0.0000       0.114215         3.1079 
 120   0.0000       0.117778         3.2049 
 121   0.0000       0.121378         3.3029 
 122   0.0000       0.123870         3.3707 
 123   0.0000       0.130519         3.5516 
 124   0.0000       0.133531         3.6336 
 125   0.0000       0.137244         3.7346 
 126   0.0000       0.139899         3.8068 
 127   0.0000       0.142681         3.8825 
 128   0.0000       0.146721         3.9925 
 129   0.0000       0.149104         4.0573 
 130   0.0000       0.151144         4.1128 
 131   0.0000       0.157079         4.2743 
 132   0.0000       0.158562         4.3147 
 133   0.0000       0.163905         4.4601 
 134   0.0000       0.166846         4.5401 
 135   0.0000       0.168306         4.5799 
 136   0.0000       0.173789         4.7290 
 137   0.0000       0.175892         4.7863 
 138   0.0000       0.177273         4.8238 
 139   0.0000       0.179150         4.8749 
 140   0.0000       0.183528         4.9941 
 141   0.0000       0.185426         5.0457 
 142   0.0000       0.191130         5.2009 
 143   0.0000       0.193950         5.2776 
 144   0.0000       0.194487         5.2923 
 145   0.0000       0.200087         5.4447 
 146   0.0000       0.202844         5.5197 
 147   0.0000       0.204354         5.5607 
 148   0.0000       0.207107         5.6357 
 149   0.0000       0.211266         5.7488 
 150   0.0000       0.212304         5.7771 
 151   0.0000       0.219895         5.9837 
 152   0.0000       0.225513         6.1365 
 153   0.0000       0.227112         6.1800 
 154   0.0000       0.231404         6.2968 
 155   0.0000       0.235805         6.4166 
 156   0.0000       0.240458         6.5432 
 157   0.0000       0.245259         6.6738 
 158   0.0000       0.249891         6.7999 
 159   0.0000       0.251154         6.8342 
 160   0.0000       0.254527         6.9260 
 161   0.0000       0.260992         7.1020 
 162   0.0000       0.262653         7.1472 
 163   0.0000       0.264763         7.2046 
 164   0.0000       0.269679         7.3383 
 165   0.0000       0.273919         7.4537 
 166   0.0000       0.276992         7.5373 
 167   0.0000       0.279136         7.5957 
 168   0.0000       0.281597         7.6626 
 169   0.0000       0.291583         7.9344 
 170   0.0000       0.295186         8.0324 
 171   0.0000       0.297334         8.0909 
 172   0.0000       0.300503         8.1771 
 173   0.0000       0.305631         8.3166 
 174   0.0000       0.311615         8.4795 
 175   0.0000       0.318593         8.6694 
 176   0.0000       0.327967         8.9244 
 177   0.0000       0.333281         9.0690 
 178   0.0000       0.344580         9.3765 
 179   0.0000       0.356798         9.7090 
 180   0.0000       0.362859         9.8739 
 181   0.0000       0.379744        10.3334 
 182   0.0000       0.382849        10.4179 
 183   0.0000       0.413836        11.2610 
 184   0.0000       0.421630        11.4731 
 185   0.0000       0.464425        12.6376 
 186   0.0000       0.482996        13.1430 
 187   0.0000       0.499968        13.6048 
 188   0.0000       0.505263        13.7489 
 189   0.0000       0.516256        14.0480 
 190   0.0000       0.522754        14.2249 
 191   0.0000       0.525850        14.3091 
 192   0.0000       0.543050        14.7771 
 193   0.0000       0.561324        15.2744 
 194   0.0000       0.569795        15.5049 
 195   0.0000       0.574131        15.6229 
 196   0.0000       0.579331        15.7644 
 197   0.0000       0.584112        15.8945 
 198   0.0000       0.599512        16.3136 
 199   0.0000       0.613519        16.6947 
 200   0.0000       0.617394        16.8002 
 201   0.0000       0.627347        17.0710 
 202   0.0000       0.628600        17.1051 
 203   0.0000       0.640088        17.4177 
 204   0.0000       0.645196        17.5567 
 205   0.0000       0.651262        17.7217 
 206   0.0000       0.656602        17.8671 
 207   0.0000       0.659575        17.9479 
 208   0.0000       0.669092        18.2069 
 209   0.0000       0.670186        18.2367 
 210   0.0000       0.680578        18.5195 
 211   0.0000       0.682484        18.5713 
 212   0.0000       0.688190        18.7266 
 213   0.0000       0.696539        18.9538 
 214   0.0000       0.703450        19.1418 
 215   0.0000       0.707606        19.2549 
 216   0.0000       0.711213        19.3531 
 217   0.0000       0.716509        19.4972 
 218   0.0000       0.720314        19.6007 
 219   0.0000       0.726010        19.7557 
 220   0.0000       0.727919        19.8077 
 221   0.0000       0.733351        19.9555 
 222   0.0000       0.737297        20.0629 
 223   0.0000       0.742003        20.1909 
 224   0.0000       0.746136        20.3034 
 225   0.0000       0.749313        20.3898 
 226   0.0000       0.753300        20.4983 
 227   0.0000       0.758027        20.6270 
 228   0.0000       0.763249        20.7691 
 229   0.0000       0.764415        20.8008 
 230   0.0000       0.774674        21.0799 
 231   0.0000       0.779066        21.1995 
 232   0.0000       0.780060        21.2265 
 233   0.0000       0.784907        21.3584 
 234   0.0000       0.789465        21.4824 
 235   0.0000       0.794847        21.6289 
 236   0.0000       0.800851        21.7923 
 237   0.0000       0.804193        21.8832 
 238   0.0000       0.809850        22.0371 
 239   0.0000       0.813120        22.1261 
 240   0.0000       0.822708        22.3870 
 241   0.0000       0.823117        22.3981 
 242   0.0000       0.834808        22.7163 
 243   0.0000       0.847487        23.0613 
 244   0.0000       0.851934        23.1823 
 245   0.0000       0.855772        23.2867 
 246   0.0000       0.860136        23.4055 
 247   0.0000       0.864108        23.5136 
 248   0.0000       0.867721        23.6119 
 249   0.0000       0.869913        23.6715 
 250   0.0000       0.871465        23.7138 
 251   0.0000       0.874766        23.8036 
 252   0.0000       0.877284        23.8721 
 253   0.0000       0.878662        23.9096 
 254   0.0000       0.882382        24.0108 
 255   0.0000       0.885403        24.0931 
 256   0.0000       0.886372        24.1194 
 257   0.0000       0.892469        24.2853 
 258   0.0000       0.893423        24.3113 
 259   0.0000       0.894500        24.3406 
 260   0.0000       0.900906        24.5149 
 261   0.0000       0.902209        24.5504 
 262   0.0000       0.908258        24.7150 
 263   0.0000       0.909430        24.7469 
 264   0.0000       0.913741        24.8641 
 265   0.0000       0.916099        24.9283 
 266   0.0000       0.922431        25.1006 
 267   0.0000       0.925824        25.1930 
 268   0.0000       0.927936        25.2504 
 269   0.0000       0.932512        25.3749 
 270   0.0000       0.935480        25.4557 
 271   0.0000       0.941956        25.6319 
 272   0.0000       0.949437        25.8355 
 273   0.0000       0.953258        25.9395 
 274   0.0000       0.961588        26.1661 
 275   0.0000       0.963538        26.2192 
 276   0.0000       0.971804        26.4441 
 277   0.0000       0.972568        26.4649 
 278   0.0000       0.979656        26.6578 
 279   0.0000       0.983243        26.7554 
 280   0.0000       0.993938        27.0464 
 281   0.0000       0.997678        27.1482 
 282   0.0000       1.006454        27.3870 
 283   0.0000       1.011642        27.5282 
 284   0.0000       1.012085        27.5402 
 285   0.0000       1.025607        27.9082 
 286   0.0000       1.030136        28.0314 
 287   0.0000       1.037831        28.2408 
 288   0.0000       1.059499        28.8304 
 289   0.0000       1.069644        29.1065 
 290   0.0000       1.070995        29.1433 
 291   0.0000       1.076091        29.2819 
 292   0.0000       1.080650        29.4060 
 293   0.0000       1.093153        29.7462 
 294   0.0000       1.099954        29.9313 
 295   0.0000       1.116153        30.3721 
 296   0.0000       1.120513        30.4907 
 297   0.0000       1.133713        30.8499 
 298   0.0000       1.138296        30.9746 
 299   0.0000       1.153255        31.3817 
 300   0.0000       1.162990        31.6466 
 301   0.0000       1.171806        31.8864 
 302   0.0000       1.204431        32.7742 
 303   0.0000       1.211548        32.9679 
 304   0.0000       1.229018        33.4433 
 305   0.0000       1.234055        33.5803 
 306   0.0000       1.245182        33.8831 
 307   0.0000       1.275482        34.7076 
 308   0.0000       1.292023        35.1577 
 309   0.0000       1.308550        35.6075 
 310   0.0000       1.322797        35.9951 
 311   0.0000       1.334092        36.3025 
 312   0.0000       1.355057        36.8730 
 313   0.0000       1.368770        37.2461 
 314   0.0000       1.410672        38.3863 
 315   0.0000       1.491110        40.5752 
 316   0.0000       1.527095        41.5544 
 317   0.0000       1.561474        42.4899 
 318   0.0000       1.591449        43.3055 
 319   0.0000       1.675377        45.5893 
 320   0.0000       6.202068       168.7668 
 321   0.0000       6.231934       169.5795 
 322   0.0000       6.247297       169.9976 
 323   0.0000       6.266746       170.5268 
 324   0.0000       6.275730       170.7713 
 325   0.0000       6.292153       171.2182 
 326   0.0000       6.298765       171.3981 
 327   0.0000       6.305231       171.5741 
 328   0.0000       6.318801       171.9433 
 329   0.0000       6.336614       172.4280 
 330   0.0000       6.341396       172.5582 
 331   0.0000       6.351181       172.8244 
 332   0.0000       6.362029       173.1196 
 333   0.0000       6.375723       173.4923 
 334   0.0000       6.385715       173.7641 
 335   0.0000       6.397644       174.0887 
 336   0.0000       6.407397       174.3541 
 337   0.0000       6.415575       174.5767 
 338   0.0000       6.421905       174.7489 
 339   0.0000       6.422521       174.7657 
 340   0.0000       6.431438       175.0083 
 341   0.0000       6.442939       175.3213 
 342   0.0000       6.453994       175.6221 
 343   0.0000       6.455210       175.6552 
 344   0.0000       6.478978       176.3020 
 345   0.0000       6.481827       176.3795 
 346   0.0000       6.485794       176.4874 
 347   0.0000       6.503000       176.9556 
 348   0.0000       6.508731       177.1116 
 349   0.0000       6.520061       177.4199 
 350   0.0000       6.526271       177.5889 
 351   0.0000       6.532444       177.7568 
 352   0.0000       6.540865       177.9860 
 353   0.0000       6.545128       178.1020 
 354   0.0000       6.550586       178.2505 
 355   0.0000       6.556931       178.4232 
 356   0.0000       6.561019       178.5344 
 357   0.0000       6.570673       178.7971 
 358   0.0000       6.575093       178.9174 
 359   0.0000       6.581168       179.0827 
 360   0.0000       6.584563       179.1751 
 361   0.0000       6.586827       179.2367 
 362   0.0000       6.588569       179.2841 
 363   0.0000       6.594799       179.4536 
 364   0.0000       6.597553       179.5285 
 365   0.0000       6.600033       179.5960 
 366   0.0000       6.609763       179.8608 
 367   0.0000       6.611143       179.8983 
 368   0.0000       6.613951       179.9748 
 369   0.0000       6.617569       180.0732 
 370   0.0000       6.623855       180.2443 
 371   0.0000       6.628683       180.3756 
 372   0.0000       6.632174       180.4706 
 373   0.0000       6.634632       180.5375 
 374   0.0000       6.636753       180.5952 
[...]
     69 H        0.000      0.000      0.000      0.000      0.000      0.000
     70 H        0.000      0.000      0.000     -0.000      0.001      0.019
     71 H        0.000      0.000      0.000      0.000      0.001      0.014
     72 H        0.000      0.000      0.000      0.000      0.003      0.035
                 25 H       27 H       28 H       30 H       31 H       33 H  
      3 H        0.074     -0.003      0.002      0.000      0.000      0.088
      4 H        2.370     -0.106      0.060      0.000      0.000      2.616
      8 H        0.127      0.000      0.000      0.000      0.000      0.117
      9 H       -0.262      0.014      0.000      0.000      0.000     -0.307
     10 H        0.000      0.000      0.000      0.000      0.000      0.000
     11 H        0.000      0.000      0.000      0.000      0.000      0.000
     13 H       -0.038      0.000      0.000      0.000      0.000      0.000
     16 H       -0.263      0.013     -0.004     -0.030     -0.002     -0.302
     17 H       -0.239      0.012      0.000      0.000      0.000     -0.294
     19 H        0.920     -0.043      0.068      0.062      0.005      0.982
     21 H       -2.901      0.184      0.680     -0.223     -0.028     -2.442
     24 H      -13.554      4.360      2.312      0.670     -0.501     -0.172
     25 H        0.000     12.945      5.291     -0.645     -0.366     -2.260
     27 H       12.945      0.000    -13.650      3.974     13.019      0.064
     28 H        5.291    -13.650      0.000      2.646      4.103      0.283
     30 H       -0.645      3.974      2.646      0.000    -13.006      0.033
     31 H       -0.366     13.019      4.103    -13.006      0.000     -0.313
     33 H       -2.260      0.064      0.283      0.033     -0.313      0.000
     35 H       -0.028      0.001     -0.001      0.000     -0.000     -0.036
     37 H        0.274      0.006     -0.035      0.542     -0.041      6.124
     38 H        0.186      0.002     -0.028     -0.022      0.120     12.291
     40 H       -0.014      0.023      0.138     -0.001     -0.038     -0.246
     41 H        0.009      0.018     -0.030      0.012      0.092     -0.386
     42 H       -0.019      0.006     -0.006     -0.262     -0.390     -0.205
     45 H       -0.061     -0.118     -0.148     -0.152      1.810     -0.479
     46 H       -0.011     -0.207      0.025     -0.198     -0.477     -0.175
     47 H        0.016      0.035      0.058     -0.310      0.054      0.866
     48 H       -0.014      0.031      0.022      0.037      0.018      0.000
     52 H       -0.002     -0.000      0.010     -0.010      0.002      0.017
     53 H       -0.000      0.000     -0.001      0.000     -0.001     -0.003
     57 H        0.000      0.000      0.000     -0.002     -0.000     -0.000
     58 H        0.000      0.000      0.000      0.000     -0.000     -0.000
     61 H        0.000      0.000      0.000      0.000      0.000      0.000
     62 H        0.000      0.000      0.000      0.000      0.000      0.000
     63 H        0.000      0.000      0.000      0.000      0.000      0.000
     64 H        0.000      0.000      0.000     -0.000      0.000      0.000
     65 H        0.000      0.000     -0.000      0.000      0.000     -0.000
     66 H        0.000      0.000      0.000      0.000     -0.000     -0.000
     67 H        0.000      0.000      0.000     -0.000      0.000     -0.000
     68 H        0.000      0.000      0.000     -0.000     -0.000     -0.000
     69 H       -0.000      0.000     -0.000      0.000     -0.000     -0.000
     70 H        0.003     -0.003     -0.007     -0.457     -0.103      0.005
     71 H       -0.000     -0.004     -0.005      0.039     -0.001      0.002
     72 H        0.000     -0.008     -0.010      0.051     -0.061      0.007
                 35 H       37 H       38 H       40 H       41 H       42 H  
      3 H       -0.267     -0.001     -0.001      0.000      0.000      0.000
      4 H       -0.643     -0.044     -0.020      0.000      0.000      0.000
      8 H       -0.028     -0.002     -0.002      0.000     -0.000      0.000
      9 H       -0.144      0.005      0.002      0.000      0.001      0.000
     10 H       -0.394     -0.000     -0.000      0.000      0.000      0.000
     11 H       -0.144     -0.002     -0.001      0.000      0.000      0.000
     13 H       12.458      0.000      0.000      0.000      0.000      0.000
     16 H       -0.003      0.004      0.004      0.000      0.001     -0.001
     17 H       -0.001      0.005      0.004     -0.001      0.000      0.000
     19 H        0.044     -0.008      0.087      0.013     -0.007      0.004
     21 H       -0.015      0.046     -0.537     -0.010      0.061     -0.026
     24 H       -0.001     -0.050     -0.079     -0.022      0.075     -0.024
     25 H       -0.028      0.274      0.186     -0.014      0.009     -0.019
     27 H        0.001      0.006      0.002      0.023      0.018      0.006
     28 H       -0.001     -0.035     -0.028      0.138     -0.030     -0.006
     30 H        0.000      0.542     -0.022     -0.001      0.012     -0.262
     31 H       -0.000     -0.041      0.120     -0.038      0.092     -0.390
     33 H       -0.036      6.124     12.291     -0.246     -0.386     -0.205
     35 H        0.000      0.000     -0.000      0.000      0.000      0.000
     37 H        0.000      0.000    -12.092      9.395      2.139     -0.247
     38 H       -0.000    -12.092      0.000      7.384     11.178     -0.455
     40 H        0.000      9.395      7.384      0.000    -13.985      9.804
     41 H        0.000      2.139     11.178    -13.985      0.000      7.956
     42 H        0.000     -0.247     -0.455      9.804      7.956      0.000
     45 H       -0.000      0.091     -0.088     -0.108     -0.030     -0.099
     46 H        0.000      0.051      0.032     -0.070      0.018      0.952
     47 H        0.000     -0.159      0.005      0.037      0.033     -0.397
     48 H        0.000      0.133      0.005     -0.158     -0.450     10.719
     52 H        0.000     -0.007      0.000     -0.022      0.073     -0.575
     53 H        0.000      0.008      0.013     -0.211     -0.022     -0.435
     57 H        0.000     -0.004     -0.008      0.008      0.021      0.041
     58 H        0.000      0.000      0.000      0.003      0.000      0.000
     61 H        0.000      0.000      0.000      0.002      0.000     -0.005
     62 H        0.000      0.000      0.000     -0.001     -0.001      0.001
     63 H        0.000     -0.000     -0.000     -0.000     -0.000      0.001
     64 H        0.000      0.000      0.000     -0.000      0.000     -0.000
     65 H        0.000     -0.000      0.000     -0.001     -0.000      0.002
     66 H        0.000      0.000      0.000      0.000     -0.000      0.000
     67 H        0.000      0.000      0.000     -0.000      0.000     -0.000
     68 H        0.000     -0.000      0.000      0.001      0.000      0.000
     69 H        0.000     -0.000     -0.000     -0.000     -0.000      0.001
     70 H        0.000     -0.016     -0.002      0.034     -0.003     -0.165
     71 H        0.000     -0.024      0.030     -0.003     -0.071     -0.352
     72 H        0.000      0.064      0.008     -0.040     -0.012     -0.444
                 45 H       46 H       47 H       48 H       52 H       53 H  
      3 H        0.001     -0.000     -0.001      0.000      0.000      0.000
      4 H        0.026     -0.021      0.000      0.000      0.000      0.000
      8 H        0.001     -0.001      0.000      0.000      0.000      0.000
      9 H       -0.003      0.003      0.000      0.000      0.000      0.000
     10 H        0.000     -0.000      0.000      0.000      0.000      0.000
     11 H        0.000      0.000      0.000      0.000      0.000      0.000
     13 H        0.000      0.000      0.000      0.000      0.000      0.000
     16 H       -0.003      0.001      0.003     -0.002      0.000      0.000
     17 H       -0.003      0.001      0.001     -0.002      0.000      0.000
     19 H        0.010     -0.011     -0.008      0.005      0.000      0.000
     21 H       -0.018      0.047      0.016     -0.015      0.001     -0.000
     24 H       -0.022     -0.022     -0.015      0.003      0.000     -0.000
     25 H       -0.061     -0.011      0.016     -0.014     -0.002     -0.000
     27 H       -0.118     -0.207      0.035      0.031     -0.000      0.000
     28 H       -0.148      0.025      0.058      0.022      0.010     -0.001
     30 H       -0.152     -0.198     -0.310      0.037     -0.010      0.000
     31 H        1.810     -0.477      0.054      0.018      0.002     -0.001
     33 H       -0.479     -0.175      0.866      0.000      0.017     -0.003
     35 H       -0.000      0.000      0.000      0.000      0.000      0.000
     37 H        0.091      0.051     -0.159      0.133     -0.007      0.008
     38 H       -0.088      0.032      0.005      0.005      0.000      0.013
     40 H       -0.108     -0.070      0.037     -0.158     -0.022     -0.211
     41 H       -0.030      0.018      0.033     -0.450      0.073     -0.022
     42 H       -0.099      0.952     -0.397     10.719     -0.575     -0.435
     45 H        0.000    -13.644    -13.073     -0.241      0.015     -0.000
     46 H      -13.644      0.000    -13.038     -0.140      0.013      0.001
     47 H      -13.073    -13.038      0.000     -0.050      0.009     -0.004
     48 H       -0.241     -0.140     -0.050      0.000      5.974     -1.933
     52 H        0.015      0.013      0.009      5.974      0.000     17.421
     53 H       -0.000      0.001     -0.004     -1.933     17.421      0.000
     57 H        0.005      0.000      0.006      2.747     -2.668      4.790
     58 H        0.000      0.000      0.000     -0.087      0.230     -0.414
     61 H        0.000      0.000      0.000      0.059     -0.345     -0.607
     62 H        0.000      0.000      0.000      0.055     -0.237      0.665
     63 H        0.000      0.000      0.000     -0.034     -0.107     -0.524
     64 H        0.000      0.000      0.000      0.007     -0.007      0.024
     65 H       -0.000      0.000      0.000     -0.004      0.036      0.001
     66 H        0.000      0.000      0.000     -0.028      0.023     -0.027
     67 H       -0.000      0.000      0.000      0.009      0.000     -0.009
     68 H        0.000      0.000      0.000     -0.006      0.163     -0.026
     69 H       -0.000      0.000     -0.000     -0.008      0.116     -0.182
     70 H       -0.026     -0.076     -0.315      5.482     -0.025     -0.408
     71 H        0.022     -0.039     -0.059     12.355     -0.244      0.136
     72 H       -0.011     -0.030     -0.018      1.931     -0.211     -0.050
                 57 H       58 H       61 H       62 H       63 H       64 H  
      3 H        0.000      0.000      0.000      0.000      0.000      0.000
      4 H        0.000      0.000      0.000      0.000      0.000      0.000
      8 H        0.000      0.000      0.000      0.000      0.000      0.000
      9 H        0.000      0.000      0.000      0.000      0.000      0.000
     10 H        0.000      0.000      0.000      0.000      0.000      0.000
     11 H        0.000      0.000      0.000      0.000      0.000      0.000
     13 H        0.000      0.000      0.000      0.000      0.000      0.000
     16 H        0.000      0.000      0.000      0.000      0.000      0.000
     17 H        0.000      0.000      0.000      0.000      0.000      0.000
     19 H        0.000      0.000      0.000      0.000      0.000      0.000
     21 H        0.000      0.000      0.000      0.000      0.000      0.000
     24 H        0.000      0.000      0.000      0.000      0.000      0.000
     25 H        0.000      0.000      0.000      0.000      0.000      0.000
     27 H        0.000      0.000      0.000      0.000      0.000      0.000
     28 H        0.000      0.000      0.000      0.000      0.000      0.000
     30 H       -0.002      0.000      0.000      0.000      0.000     -0.000
     31 H       -0.000     -0.000      0.000      0.000      0.000      0.000
     33 H       -0.000     -0.000      0.000      0.000      0.000      0.000
     35 H        0.000      0.000      0.000      0.000      0.000      0.000
     37 H       -0.004      0.000      0.000      0.000     -0.000      0.000
     38 H       -0.008      0.000      0.000      0.000     -0.000      0.000
     40 H        0.008      0.003      0.002     -0.001     -0.000     -0.000
     41 H        0.021      0.000      0.000     -0.001     -0.000      0.000
     42 H        0.041      0.000     -0.005      0.001      0.001     -0.000
     45 H        0.005      0.000      0.000      0.000      0.000      0.000
     46 H        0.000      0.000      0.000      0.000      0.000      0.000
     47 H        0.006      0.000      0.000      0.000      0.000      0.000
     48 H        2.747     -0.087      0.059      0.055     -0.034      0.007
     52 H       -2.668      0.230     -0.345     -0.237     -0.107     -0.007
     53 H        4.790     -0.414     -0.607      0.665     -0.524      0.024
     57 H        0.000      3.523     13.225      3.313      3.902     -0.453
     58 H        3.523      0.000     -0.266     -0.302     -0.138      3.812
     61 H       13.225     -0.266      0.000    -12.781    -12.695     -0.296
     62 H        3.313     -0.302    -12.781      0.000    -12.928     -0.004
     63 H        3.902     -0.138    -12.695    -12.928      0.000     -0.092
     64 H       -0.453      3.812     -0.296     -0.004     -0.092      0.000
     65 H       -0.455     13.052      0.028      0.054      0.060    -12.338
     66 H        0.584      2.931     -0.110      0.042     -0.110    -13.036
     67 H       -0.362      2.304      0.013      0.043      0.019      2.870
     68 H       -0.219      4.930     -0.033     -0.005      0.540     -0.197
     69 H       -0.262     13.134      0.044      0.054     -0.056     -0.185
     70 H        0.416      0.156     -0.006     -0.020     -0.016      0.004
     71 H       -0.140      0.012     -0.000     -0.000      0.002     -0.007
     72 H        0.006      0.024      0.001     -0.003     -0.003      0.001
                 65 H       66 H       67 H       68 H       69 H       70 H  
      3 H        0.000      0.000      0.000      0.000      0.000      0.000
      4 H        0.000      0.000      0.000      0.000      0.000      0.000
      8 H        0.000      0.000      0.000      0.000      0.000      0.000
      9 H        0.000      0.000      0.000      0.000      0.000      0.000
     10 H        0.000      0.000      0.000      0.000      0.000      0.000
     11 H        0.000      0.000      0.000      0.000      0.000      0.000
     13 H        0.000      0.000      0.000      0.000      0.000      0.000
     16 H        0.000      0.000      0.000      0.000      0.000      0.000
     17 H        0.000      0.000      0.000      0.000      0.000      0.000
     19 H        0.000      0.000      0.000      0.000      0.000     -0.000
     21 H        0.000      0.000      0.000      0.000      0.000      0.001
     24 H        0.000      0.000      0.000      0.000      0.000      0.019
     25 H        0.000      0.000      0.000      0.000     -0.000      0.003
     27 H        0.000      0.000      0.000      0.000      0.000     -0.003
     28 H       -0.000      0.000      0.000      0.000     -0.000     -0.007
     30 H        0.000      0.000     -0.000     -0.000      0.000     -0.457
     31 H        0.000     -0.000      0.000     -0.000     -0.000     -0.103
     33 H       -0.000     -0.000     -0.000     -0.000     -0.000      0.005
     35 H        0.000      0.000      0.000      0.000      0.000      0.000
     37 H       -0.000      0.000      0.000     -0.000     -0.000     -0.016
     38 H        0.000      0.000      0.000      0.000     -0.000     -0.002
     40 H       -0.001      0.000     -0.000      0.001     -0.000      0.034
     41 H       -0.000     -0.000      0.000      0.000     -0.000     -0.003
     42 H        0.002      0.000     -0.000      0.000      0.001     -0.165
     45 H       -0.000      0.000     -0.000      0.000     -0.000     -0.026
     46 H        0.000      0.000      0.000      0.000      0.000     -0.076
     47 H        0.000      0.000      0.000      0.000     -0.000     -0.315
     48 H       -0.004     -0.028      0.009     -0.006     -0.008      5.482
     52 H        0.036      0.023      0.000      0.163      0.116     -0.025
     53 H        0.001     -0.027     -0.009     -0.026     -0.182     -0.408
     57 H       -0.455      0.584     -0.362     -0.219     -0.262      0.416
     58 H       13.052      2.931      2.304      4.930     13.134      0.156
     61 H        0.028     -0.110      0.013     -0.033      0.044     -0.006
     62 H        0.054      0.042      0.043     -0.005      0.054     -0.020
     63 H        0.060     -0.110      0.019      0.540     -0.056     -0.016
     64 H      -12.338    -13.036      2.870     -0.197     -0.185      0.004
     65 H        0.000    -12.684     -0.339     -0.215     -0.337      0.006
     66 H      -12.684      0.000      0.136     -0.235     -0.186      0.015
     67 H       -0.339      0.136      0.000    -12.721    -12.007      0.005
     68 H       -0.215     -0.235    -12.721      0.000    -13.137      0.006
     69 H       -0.337     -0.186    -12.007    -13.137      0.000     -0.001
     70 H        0.006      0.015      0.005      0.006     -0.001      0.000
     71 H       -0.025     -0.002     -0.001      0.001      0.001    -11.561
     72 H        0.001      0.004      0.000     -0.000     -0.001    -13.443
                 71 H       72 H  
      3 H        0.000      0.000
      4 H        0.000      0.000
      8 H        0.000      0.000
      9 H        0.000      0.000
     10 H        0.000      0.000
     11 H        0.000      0.000
     13 H        0.000      0.000
     16 H        0.000      0.000
     17 H        0.000      0.000
     19 H        0.000      0.000
     21 H        0.001      0.003
     24 H        0.014      0.035
     25 H       -0.000      0.000
     27 H       -0.004     -0.008
     28 H       -0.005     -0.010
     30 H        0.039      0.051
     31 H       -0.001     -0.061
     33 H        0.002      0.007
     35 H        0.000      0.000
     37 H       -0.024      0.064
     38 H        0.030      0.008
     40 H       -0.003     -0.040
     41 H       -0.071     -0.012
     42 H       -0.352     -0.444
     45 H        0.022     -0.011
     46 H       -0.039     -0.030
     47 H       -0.059     -0.018
     48 H       12.355      1.931
     52 H       -0.244     -0.211
     53 H        0.136     -0.050
     57 H       -0.140      0.006
     58 H        0.012      0.024
     61 H       -0.000      0.001
     62 H       -0.000     -0.003
     63 H        0.002     -0.003
     64 H       -0.007      0.001
     65 H       -0.025      0.001
     66 H       -0.002      0.004
     67 H       -0.001      0.000
     68 H        0.001     -0.000
     69 H        0.001     -0.001
     70 H      -11.561    -13.443
     71 H        0.000    -13.075
     72 H      -13.075      0.000

Maximum memory used throughout the entire EPRNMR-calculation: 987.7 MB

Timings for individual modules:

Sum of individual times         ...      384.918 sec (=   6.415 min)
GTO integral calculation        ...        0.583 sec (=   0.010 min)   0.2 %
SCF iterations                  ...      105.585 sec (=   1.760 min)  27.4 %
EPR/NMR calculation             ...      278.750 sec (=   4.646 min)  72.4 %
                             ****ORCA TERMINATED NORMALLY****
TOTAL RUN TIME: 0 days 0 hours 6 minutes 25 seconds 405 msec
