
                                 *****************
                                 * O   R   C   A *
                                 *****************

                                            #,                                       
                                            ###                                      
                                            ####                                     
                                            #####                                    
                                            ######                                   
                                           ########,                                 
                                     ,,################,,,,,                         
                               ,,#################################,,                 
                          ,,##########################################,,             
                       ,#########################################, ''#####,          
                    ,#############################################,,   '####,        
                  ,##################################################,,,,####,       
                ,###########''''           ''''###############################       
              ,#####''   ,,,,##########,,,,          '''####'''          '####       
            ,##' ,,,,###########################,,,                        '##       
           ' ,,###''''                  '''############,,,                           
         ,,##''                                '''############,,,,        ,,,,,,###''
      ,#''                                            '''#######################'''  
     '                                                          ''''####''''         
             ,#######,   #######,   ,#######,      ##                                
            ,#'     '#,  ##    ##  ,#'     '#,    #''#        ,####,   ,####,        
            ##       ##  ##   ,#'  ##            #'  '#       #'       #'  '#        
            ##       ##  #######   ##           ,######,      #####,   #    #        
            '#,     ,#'  ##    ##  '#,     ,#' ,#      #,     #,   #   #,  ,#        
             '#######'   ##     ##  '#######'  #'      '#     '####' # '####'        



                #########################################################
                #                        -***-                          #
                #          Department of theory and spectroscopy        #
                #                                                       #
                #                      Frank Neese                      #
                #                                                       #
                #     Directorship, Architecture, Infrastructure        #
                #                    SHARK, DRIVERS                     #
                #        Core code/Algorithms in most modules           #
                #                                                       #
                #        Max Planck Institute fuer Kohlenforschung      #
                #                Kaiser Wilhelm Platz 1                 #
                #                 D-45470 Muelheim/Ruhr                 #
                #                      Germany                          #
                #                                                       #
                #                  All rights reserved                  #
                #                        -***-                          #
                #########################################################


                         Program Version 6.0.0  -   RELEASE  -


 With contributions from (in alphabetic order):
   Daniel Aravena         : Magnetic Suceptibility
   Michael Atanasov       : Ab Initio Ligand Field Theory (pilot matlab implementation)
   Alexander A. Auer      : GIAO ZORA, VPT2 properties, NMR spectrum
   Ute Becker             : All parallelization in ORCA, NUMFREQ, NUMCALC
   Giovanni Bistoni       : ED, misc. LED, open-shell LED, HFLD
   Martin Brehm           : Molecular dynamics
   Dmytro Bykov           : pre 5.0 version of the SCF Hessian
   Marcos Casanova-Páez   : Triplet and SCS-CIS(D). UHF-(DLPNO)-IP/EA/STEOM-CCSD. UHF-CVS-IP/STEOM-CCSD
   Vijay G. Chilkuri      : MRCI spin determinant printing, contributions to CSF-ICE
   Pauline Colinet        : FMM embedding
   Dipayan Datta          : RHF DLPNO-CCSD density
   Achintya Kumar Dutta   : EOM-CC, STEOM-CC
   Nicolas Foglia         : Exact transition moments, OPA infrastructure, MCD improvements
   Dmitry Ganyushin       : Spin-Orbit,Spin-Spin,Magnetic field MRCI
   Miquel Garcia          : C-PCM and meta-GGA Hessian, CCSD/C-PCM, Gaussian charge scheme
   Tiago L. C. Gouveia    : GS-ROHF, GS-ROCIS
   Yang Guo               : DLPNO-NEVPT2, F12-NEVPT2, CIM, IAO-localization
   Andreas Hansen         : Spin unrestricted coupled pair/coupled cluster methods
   Ingolf Harden          : AUTO-CI MPn and infrastructure 
   Benjamin Helmich-Paris : MC-RPA, TRAH-(SCF,CASSCF), AVAS, COSX integrals, SCF dyn. polar.
   Lee Huntington         : MR-EOM, pCC
   Robert Izsak           : Overlap fitted RIJCOSX, COSX-SCS-MP3, EOM
   Riya Kayal             : Wick's Theorem for AUTO-CI, AUTO-CI UHF-CCSDT
   Emily Kempfer          : AUTO-CI, RHF CISDT and CCSDT
   Christian Kollmar      : KDIIS, OOCD, Brueckner-CCSD(T), CCSD density, CASPT2, CASPT2-K, improved NEVPT2
   Axel Koslowski         : Symmetry handling
   Simone Kossmann        : Meta GGA functionals, TD-DFT gradient, OOMP2, (MP2 Hessian; deprecated post 5.0)
   Lucas Lang             : DCDCAS
   Marvin Lechner         : AUTO-CI (C++ implementation), FIC-MRCC
   Spencer Leger          : CASSCF response
   Dagmar Lenk            : GEPOL surface, SMD, ORCA-2-JSON
   Dimitrios Liakos       : Extrapolation schemes; Compound Job, initial MDCI parallelization
   Dimitrios Manganas     : Further ROCIS development; embedding schemes. LFT, Crystal Embedding
   Dimitrios Pantazis     : SARC Basis sets
   Anastasios Papadopoulos: AUTO-CI, single reference methods and gradients
   Taras Petrenko         : pre 6.0 DFT Hessian and TD-DFT gradient, (ASA, deprecated), ECA, 1-Electron XAS/XES, NRVS
   Peter Pinski           : DLPNO-MP2, DLPNO-MP2 Gradient
   Christoph Reimann      : Effective Core Potentials
   Marius Retegan         : Local ZFS, SOC
   Christoph Riplinger    : Optimizer, TS searches, QM/MM, DLPNO-CCSD(T), (RO)-DLPNO pert. Triples
   Michael Roemelt        : Original ROCIS implementation
   Masaaki Saitow         : Open-shell DLPNO-CCSD energy and density
   Barbara Sandhoefer     : DKH picture change effects
   Kantharuban Sivalingam : CASSCF convergence/infrastructure, NEVPT2 and variants, FIC-MRCI
   Bernardo de Souza      : ESD, SOC TD-DFT
   Georgi Stoychev        : AutoAux, RI-MP2 NMR, DLPNO-MP2 response, X2C
   Van Anh Tran           : RI-MP2 g-tensors
   Willem Van den Heuvel  : Paramagnetic NMR
   Zikuan Wang            : NOTCH, Electric field optimization 
   Frank Wennmohs         : Technical directorship and infrastructure
   Hang Xu                : AUTO-CI-Response properties 


 We gratefully acknowledge several colleagues who have allowed us to
 interface, adapt or use parts of their codes:
   Stefan Grimme, W. Hujo, H. Kruse, P. Pracht,  : VdW corrections, initial TS optimization,
                  C. Bannwarth, S. Ehlert,         DFT functionals, gCP, sTDA/sTD-DF
                  L. Wittmann, M. Mueller
   Ed Valeev, F. Pavosevic, A. Kumar             : LibInt (2-el integral package), F12 methods
   Garnet Chan, S. Sharma, J. Yang, R. Olivares  : DMRG
   Ulf Ekstrom                                   : XCFun DFT Library
   Mihaly Kallay                                 : mrcc  (arbitrary order and MRCC methods)
   Frank Weinhold                                : gennbo (NPA and NBO analysis)
   Simon Mueller                                 : openCOSMO-RS
   Christopher J. Cramer and Donald G. Truhlar   : smd solvation model
   Lars Goerigk                                  : TD-DFT with DH, B97 family of functionals
   V. Asgeirsson, H. Jonsson                     : NEB implementation
   FAccTs GmbH                                   : IRC, NEB, NEB-TS, DLPNO-Multilevel, CI-OPT
                                                   MM, QMMM, 2- and 3-layer-ONIOM, Crystal-QMMM,
                                                   LR-CPCM, SF, NACMEs, symmetry and pop. for TD-DFT,
                                                   nearIR, NL-DFT gradient (VV10), updates on ESD,
                                                   ML-optimized integration grids, MBIS, APM,
                                                   GOAT, DOCKER, SOLVATOR, interface openCOSMO-RS
   S Lehtola, MJT Oliveira, MAL Marques          : LibXC Library
   Liviu Ungur et al                             : ANISO software


 Your calculation uses the libint2 library for the computation of 2-el integrals
 For citations please refer to: http://libint.valeyev.net

 Your ORCA version has been built with support for libXC version: 6.2.2
 For citations please refer to: https://libxc.gitlab.io

 This ORCA versions uses:
   CBLAS   interface :  Fast vector & matrix operations
   LAPACKE interface :  Fast linear algebra routines
   SCALAPACK package :  Parallel linear algebra routines
   Shared memory     :  Shared parallel matrices
   BLAS/LAPACK       :  OpenBLAS 0.3.27  USE64BITINT DYNAMIC_ARCH NO_AFFINITY Zen SINGLE_THREADED
        Core in use  :  Zen
   Copyright (c) 2011-2014, The OpenBLAS Project


NOTE: MaxCore=8000 MB was set to SCF,MP2,MDCI,CIPSI,MRCI and CIS
      => If you want to overwrite this, your respective input block should be placed after the MaxCore statement
Your calculation utilizes the atom-pairwise dispersion correction
based on EEQ partial charges (D4)


================================================================================

----- Orbital basis set information -----
Your calculation utilizes the basis: pcJ-0
   F. Jensen, Theor. Chem. Acc. 126, 371 (2010).

----- AuxJ basis set information -----
Your calculation utilizes the auxiliary basis: def2/J
   F. Weigend, Phys. Chem. Chem. Phys. 8, 1057 (2006).

================================================================================
                                        WARNINGS
                       Please study these warnings very carefully!
================================================================================

WARNING: Old DensityContainer found on disk!
         Will remove this file - 
         If you want to keep old densities, please start your calculation with a different basename. 


================================================================================
                                       INPUT FILE
================================================================================
NAME = inpJ
|  1> ! pbe0
|  2> ! D4
|  3> ! pcJ-0
|  4> ! def2/J RIJCOSX
|  5> ! DEFGRID2
|  6> ! scfconv7
|  7> ! smallprint printgap noloewdin
|  8> ! NOSOSCF
|  9> %MaxCore 8000
| 10> %output
| 11>        print[P_BondOrder_M] 1
| 12>        print[P_Mayer] 1
| 13>        print[P_basis] 2
| 14> end
| 15> %pal
| 16>     nprocs 4
| 17> end
| 18> ! CPCM(chloroform)
| 19> *xyz 0 1
| 20> C   -4.9403425600   0.2388672000  -0.4050174500
| 21> C   -6.3989112800  -0.1354880400  -0.5242872600
| 22> C   -7.2636987600   0.7916007400   0.3393859000
| 23> H   -6.5564905000  -1.1788623100  -0.2284683400
| 24> H   -6.7277657200  -0.0254054000  -1.5683173200
| 25> C   -4.6596652300   1.6620504100  -0.6970938500
| 26> C   -5.5499997200   2.6385181500   0.0393468500
| 27> C   -7.0322244500   2.2503685700  -0.0584011700
| 28> H   -5.3921821700   3.6542025000  -0.3388246900
| 29> H   -5.2557695600   2.6416656800   1.0999565400
| 30> H   -7.3800836600   2.3858575600  -1.0915707300
| 31> H   -7.6354128400   2.9045211700   0.5817466500
| 32> O   -7.0034976000   0.5739074800   1.7359856800
| 33> H   -8.3221032400   0.5383663200   0.2013498700
| 34> C   -4.0157731600  -0.6625612100   0.0035326000
| 35> C   -3.7262264000   2.0595626400  -1.5686568100
| 36> H   -3.1082946300   1.3420269600  -2.1019357500
| 37> H   -3.5670785700   3.1153743400  -1.7750305800
| 38> C   -2.6181378700  -0.3954728300   0.2550606300
| 39> H   -4.3766887000  -1.6738187600   0.1873217700
| 40> C   -1.6699639500  -1.3065427300   0.5604788800
| 41> H   -2.3189542700   0.6488168500   0.1994730400
| 42> C   -1.8790555400  -2.7964620800   0.6529257400
| 43> C   -0.9073808100  -3.5599767100  -0.2677267400
| 44> H   -2.9079631500  -3.0876848700   0.4252405500
| 45> H   -1.6783308800  -3.1027673700   1.6918676100
| 46> C    0.5539422300  -3.1362307600  -0.0672219700
| 47> H   -1.2020121600  -3.3960756300  -1.3120328900
| 48> H   -1.0060834200  -4.6363657800  -0.0811247600
| 49> C    0.7337816200  -1.6180074400  -0.2044771800
| 50> H    1.1810588900  -3.6787404100  -0.7819063800
| 51> H    0.8825077600  -3.4352565700   0.9395788800
| 52> C   -0.2396940000  -0.9392029300   0.8124968000
| 53> H    0.0283983800  -1.3823234100   1.7890606900
| 54> C    0.2066982200   0.5192406400   0.8407346900
| 55> H   -6.0459336700   0.4872896300   1.8460133900
| 56> C    1.7444798300   0.4331353600   0.6797551100
| 57> H   -0.0972629900   1.0244902600   1.7633412300
| 58> H   -0.2330708900   1.0775684100   0.0069184300
| 59> C    2.0850469400  -1.0408217100   0.3026629800
| 60> H    2.2662106400   0.7267662200   1.5962186600
| 61> H    2.0858158300   1.1148737900  -0.1084344100
| 62> H    2.3345752600  -1.5880609100   1.2262950800
| 63> C    3.3285407100  -1.1353642300  -0.6152096000
| 64> C    0.4430601200  -1.1525090000  -1.6376535800
| 65> H    0.6761390300  -0.0914157900  -1.7719926500
| 66> H   -0.6110804000  -1.2896947700  -1.8979492400
| 67> H    1.0439683900  -1.7182167300  -2.3581024300
| 68> H    3.0967998100  -0.5646254500  -1.5295084600
| 69> C    3.6753115100  -2.5676240500  -1.0196722800
| 70> C    4.4781815300  -0.4270745500   0.0619761300
| 71> C    5.5704927200  -0.9900076800   0.5778667700
| 72> H    4.3691667800   0.6543569200   0.1630193800
| 73> H    5.7170861900  -2.0703897300   0.5051970700
| 74> C    6.6735344700  -0.2461627600   1.2784610900
| 75> C    7.9939030200  -0.4702750000   0.5247690900
| 76> C    6.7662954900  -0.6728410100   2.7653859000
| 77> H    6.4352388700   0.8294411500   1.2581688300
| 78> H    6.9363049100  -1.7618354900   2.7817548300
| 79> C    5.4570162500  -0.3780398100   3.5028823500
| 80> C    7.9327497100   0.0060003600   3.4891928000
| 81> H    8.3095655300  -1.5182380100   0.6052100700
| 82> H    8.7989275100   0.1588289300   0.9154477600
| 83> H    7.8698714200  -0.2366981000  -0.5377438200
| 84> H    4.6074182500  -0.8880559000   3.0387617900
| 85> H    5.2476183900   0.6998054300   3.4902909400
| 86> H    5.5203893300  -0.6954382400   4.5495133200
| 87> H    8.9047175500  -0.2962952600   3.0893261200
| 88> H    7.9190969800  -0.2475606600   4.5549647500
| 89> H    7.8538998700   1.0977557900   3.4044506100
| 90> H    2.9174018900  -2.9828121100  -1.6869991600
| 91> H    3.7492729400  -3.2238772800  -0.1444339300
| 92> H    4.6351792700  -2.5965260100  -1.5465689600
| 93> *
| 94> %eprnmr
| 95>  Nuclei = all C { ssfc }
| 96>  SpinSpinRThresh 8.0
| 97> end
| 98> 
| 99>                          ****END OF INPUT****
================================================================================

                       ****************************
                       * Single Point Calculation *
                       ****************************

---------------------------------
CARTESIAN COORDINATES (ANGSTROEM)
---------------------------------
  C     -4.940343    0.238867   -0.405017
  C     -6.398911   -0.135488   -0.524287
  C     -7.263699    0.791601    0.339386
  H     -6.556490   -1.178862   -0.228468
  H     -6.727766   -0.025405   -1.568317
  C     -4.659665    1.662050   -0.697094
  C     -5.550000    2.638518    0.039347
  C     -7.032224    2.250369   -0.058401
  H     -5.392182    3.654202   -0.338825
  H     -5.255770    2.641666    1.099957
  H     -7.380084    2.385858   -1.091571
  H     -7.635413    2.904521    0.581747
  O     -7.003498    0.573907    1.735986
  H     -8.322103    0.538366    0.201350
  C     -4.015773   -0.662561    0.003533
  C     -3.726226    2.059563   -1.568657
  H     -3.108295    1.342027   -2.101936
  H     -3.567079    3.115374   -1.775031
  C     -2.618138   -0.395473    0.255061
  H     -4.376689   -1.673819    0.187322
  C     -1.669964   -1.306543    0.560479
  H     -2.318954    0.648817    0.199473
  C     -1.879056   -2.796462    0.652926
  C     -0.907381   -3.559977   -0.267727
  H     -2.907963   -3.087685    0.425241
  H     -1.678331   -3.102767    1.691868
  C      0.553942   -3.136231   -0.067222
  H     -1.202012   -3.396076   -1.312033
  H     -1.006083   -4.636366   -0.081125
  C      0.733782   -1.618007   -0.204477
  H      1.181059   -3.678740   -0.781906
  H      0.882508   -3.435257    0.939579
  C     -0.239694   -0.939203    0.812497
  H      0.028398   -1.382323    1.789061
  C      0.206698    0.519241    0.840735
  H     -6.045934    0.487290    1.846013
  C      1.744480    0.433135    0.679755
  H     -0.097263    1.024490    1.763341
  H     -0.233071    1.077568    0.006918
  C      2.085047   -1.040822    0.302663
  H      2.266211    0.726766    1.596219
  H      2.085816    1.114874   -0.108434
  H      2.334575   -1.588061    1.226295
  C      3.328541   -1.135364   -0.615210
  C      0.443060   -1.152509   -1.637654
  H      0.676139   -0.091416   -1.771993
  H     -0.611080   -1.289695   -1.897949
  H      1.043968   -1.718217   -2.358102
  H      3.096800   -0.564625   -1.529508
  C      3.675312   -2.567624   -1.019672
  C      4.478182   -0.427075    0.061976
  C      5.570493   -0.990008    0.577867
  H      4.369167    0.654357    0.163019
  H      5.717086   -2.070390    0.505197
  C      6.673534   -0.246163    1.278461
  C      7.993903   -0.470275    0.524769
  C      6.766295   -0.672841    2.765386
  H      6.435239    0.829441    1.258169
  H      6.936305   -1.761835    2.781755
  C      5.457016   -0.378040    3.502882
  C      7.932750    0.006000    3.489193
  H      8.309566   -1.518238    0.605210
  H      8.798928    0.158829    0.915448
  H      7.869871   -0.236698   -0.537744
  H      4.607418   -0.888056    3.038762
  H      5.247618    0.699805    3.490291
  H      5.520389   -0.695438    4.549513
  H      8.904718   -0.296295    3.089326
  H      7.919097   -0.247561    4.554965
  H      7.853900    1.097756    3.404451
  H      2.917402   -2.982812   -1.686999
  H      3.749273   -3.223877   -0.144434
  H      4.635179   -2.596526   -1.546569

----------------------------
CARTESIAN COORDINATES (A.U.)
----------------------------
  NO LB      ZA    FRAG     MASS         X           Y           Z
   0 C     6.0000    0    12.011   -9.335894    0.451394   -0.765372
   1 C     6.0000    0    12.011  -12.092190   -0.256035   -0.990759
   2 C     6.0000    0    12.011  -13.726401    1.495909    0.641346
   3 H     1.0000    0     1.008  -12.389971   -2.227727   -0.431743
   4 H     1.0000    0     1.008  -12.713635   -0.048009   -2.963690
   5 C     6.0000    0    12.011   -8.805491    3.140820   -1.317316
   6 C     6.0000    0    12.011  -10.487980    4.986077    0.074355
   7 C     6.0000    0    12.011  -13.288978    4.252580   -0.110362
   8 H     1.0000    0     1.008  -10.189748    6.905442   -0.640286
   9 H     1.0000    0     1.008   -9.931965    4.992025    2.078617
  10 H     1.0000    0     1.008  -13.946337    4.508617   -2.062770
  11 H     1.0000    0     1.008  -14.428839    5.488750    1.099342
  12 O     8.0000    0    15.999  -13.234692    1.084528    3.280538
  13 H     1.0000    0     1.008  -15.726496    1.017365    0.380496
  14 C     6.0000    0    12.011   -7.588711   -1.252059    0.006676
  15 C     6.0000    0    12.011   -7.041547    3.892009   -2.964332
  16 H     1.0000    0     1.008   -5.873826    2.536063   -3.972083
  17 H     1.0000    0     1.008   -6.740802    5.887204   -3.354322
  18 C     6.0000    0    12.011   -4.947564   -0.747335    0.481995
  19 H     1.0000    0     1.008   -8.270743   -3.163059    0.353987
  20 C     6.0000    0    12.011   -3.155775   -2.469008    1.059152
  21 H     1.0000    0     1.008   -4.382188    1.226086    0.376949
  22 C     6.0000    0    12.011   -3.550900   -5.284547    1.233851
  23 C     6.0000    0    12.011   -1.714701   -6.727381   -0.505930
  24 H     1.0000    0     1.008   -5.495254   -5.834879    0.803588
  25 H     1.0000    0     1.008   -3.171586   -5.863381    3.197166
  26 C     6.0000    0    12.011    1.046799   -5.926617   -0.127031
  27 H     1.0000    0     1.008   -2.271474   -6.417653   -2.479383
  28 H     1.0000    0     1.008   -1.901222   -8.761462   -0.153304
  29 C     6.0000    0    12.011    1.386646   -3.057591   -0.386406
  30 H     1.0000    0     1.008    2.231878   -6.951812   -1.477589
  31 H     1.0000    0     1.008    1.667698   -6.491694    1.775547
  32 C     6.0000    0    12.011   -0.452956   -1.774836    1.535396
  33 H     1.0000    0     1.008    0.053665   -2.612213    3.380835
  34 C     6.0000    0    12.011    0.390603    0.981223    1.588758
  35 H     1.0000    0     1.008  -11.425159    0.920844    3.488460
  36 C     6.0000    0    12.011    3.296589    0.818507    1.284551
  37 H     1.0000    0     1.008   -0.183800    1.936006    3.332232
  38 H     1.0000    0     1.008   -0.440440    2.036309    0.013074
  39 C     6.0000    0    12.011    3.940168   -1.966868    0.571950
  40 H     1.0000    0     1.008    4.282517    1.373389    3.016416
  41 H     1.0000    0     1.008    3.941621    2.106806   -0.204911
  42 H     1.0000    0     1.008    4.411708   -3.001000    2.317362
  43 C     6.0000    0    12.011    6.290030   -2.145527   -1.162578
  44 C     6.0000    0    12.011    0.837262   -2.177926   -3.094717
  45 H     1.0000    0     1.008    1.277718   -0.172751   -3.348581
  46 H     1.0000    0     1.008   -1.154775   -2.437170   -3.586604
  47 H     1.0000    0     1.008    1.972814   -3.246959   -4.456168
  48 H     1.0000    0     1.008    5.852104   -1.066987   -2.890352
  49 C     6.0000    0    12.011    6.945332   -4.852106   -1.926901
  50 C     6.0000    0    12.011    8.462537   -0.807054    0.117118
  51 C     6.0000    0    12.011   10.526706   -1.870843    1.092010
  52 H     1.0000    0     1.008    8.256529    1.236555    0.308062
  53 H     1.0000    0     1.008   10.803727   -3.912470    0.954684
  54 C     6.0000    0    12.011   12.611152   -0.465180    2.415941
  55 C     6.0000    0    12.011   15.106287   -0.888691    0.991670
  56 C     6.0000    0    12.011   12.786445   -1.271485    5.225822
  57 H     1.0000    0     1.008   12.160839    1.567417    2.377595
  58 H     1.0000    0     1.008   13.107717   -3.329387    5.256755
  59 C     6.0000    0    12.011   10.312266   -0.714392    6.619488
  60 C     6.0000    0    12.011   14.990724    0.011339    6.593619
  61 H     1.0000    0     1.008   15.702803   -2.869054    1.143681
  62 H     1.0000    0     1.008   16.627563    0.300143    1.729946
  63 H     1.0000    0     1.008   14.871902   -0.447295   -1.016189
  64 H     1.0000    0     1.008    8.706759   -1.678182    5.742428
  65 H     1.0000    0     1.008    9.916562    1.322441    6.595694
  66 H     1.0000    0     1.008   10.432024   -1.314188    8.597334
  67 H     1.0000    0     1.008   16.827477   -0.559917    5.837980
  68 H     1.0000    0     1.008   14.964925   -0.467822    8.607636
  69 H     1.0000    0     1.008   14.841720    2.074458    6.433479
  70 H     1.0000    0     1.008    5.513091   -5.636698   -3.187966
  71 H     1.0000    0     1.008    7.085099   -6.092245   -0.272941
  72 H     1.0000    0     1.008    8.759219   -4.906723   -2.922592

--------------------------------
INTERNAL COORDINATES (ANGSTROEM)
--------------------------------
 C      0   0   0     0.000000000000     0.00000000     0.00000000
 C      1   0   0     1.510559447442     0.00000000     0.00000000
 C      2   1   0     1.534041172482   110.49365421     0.00000000
 H      2   1   3     1.095887727509   110.70025772   237.86355835
 H      2   1   3     1.100119173781   109.80201297   118.75089635
 C      1   2   3     1.479709037696   113.94934356   306.17654065
 C      6   1   2     1.512788701690   114.39915384    49.76743230
 C      3   2   1     1.529646524885   110.15881714    56.71493084
 H      7   6   1     1.095232756810   110.22440879   188.73692998
 H      7   6   1     1.100669890803   108.27693202    72.06443521
 H      8   3   2     1.098545691405   108.31721349    64.42151328
 H      8   3   2     1.096148297161   109.51055576   181.42970471
 O      3   2   1     1.437214648064   110.70121281   292.67294852
 H      3   2   1     1.096996654660   109.48422625   177.15572733
 C      1   2   3     1.354368818722   121.20043536   122.95675195
 C      6   1   2     1.337514865560   123.15124727   231.71257500
 H     16   6   1     1.086776680048   121.35518415   359.04238815
 H     16   6   1     1.087500119814   120.95282444   178.41911558
 C     15   1   2     1.444986836085   126.14087184   185.15412254
 H     15   1   2     1.089348575276   116.26853915     3.07944129
 C     19  15   1     1.349949055590   126.44120122   185.56995612
 H     19  15   1     1.087723192005   115.76003346     6.27395610
 C     21  19  15     1.507357085908   125.69925548     2.22439831
 C     23  21  19     1.541008552888   111.44612250   124.55697692
 H     23  21  19     1.093298737343   112.39942986     0.94701450
 H     23  21  19     1.101595900979   107.90297648   243.09932020
 C     24  23  21     1.534675151349   112.67772382    51.21467962
 H     24  23  21     1.097381670776   108.98051915   289.07700048
 H     24  23  21     1.096893766131   109.13704323   173.12744283
 C     27  24  23     1.534986400024   111.89933777   306.27764369
 H     27  24  23     1.094698968434   108.86584782   182.72460129
 H     27  24  23     1.100463399714   109.19605123    66.28489910
 C     21  19  15     1.498039949580   122.89978981   180.27553027
 H     33  21  19     1.105398713253   106.37266952   127.25413535
 C     33  21  19     1.525490425857   121.12684490     4.72495470
 H     13   3   2     0.967748639340   107.64863023    42.70546572
 C     35  33  21     1.548580260908   103.62100390   197.08312457
 H     35  33  21     1.094930328078   112.05687734    75.08041788
 H     35  33  21     1.095616869304   110.83395106   315.45064329
 C     30  27  24     1.554429951408   116.09979656   166.09628325
 H     37  35  33     1.094681487249   111.79815841   248.96106869
 H     37  35  33     1.096594852839   110.44134734   130.37255294
 H     40  30  27     1.102193894308   106.60928821   320.62671660
 C     40  30  27     1.548452491113   118.81817703    80.83202849
 C     30  27  24     1.534666863434   111.18126897   294.10969155
 H     45  30  27     1.094665046635   111.61021013   186.34291439
 H     45  30  27     1.094434101265   111.50288592    66.35093162
 H     45  30  27     1.095519297047   110.70783857   306.22539282
 H     44  40  30     1.102446826439   106.92906839    61.38411458
 C     44  40  30     1.528138815433   113.35016132   302.15926079
 C     44  40  30     1.510605441113   108.46978028   176.23016219
 C     51  44  40     1.332734255990   126.81506915   110.39968577
 H     51  44  40     1.091598817512   115.46774070   292.79589986
 H     52  51  44     1.092701196443   120.12177210     2.04304519
 C     52  51  44     1.503608582201   124.93594105   181.81253586
 C     55  52  51     1.536766421683   109.24658476   239.98389450
 C     55  52  51     1.549711046114   110.77928201   115.80085918
 H     55  52  51     1.101871290125   108.40196327   358.17446050
 H     57  55  52     1.102306727834   107.18646721    57.98709985
 C     57  55  52     1.531346103785   110.97175438   299.85194564
 C     57  55  52     1.531449470752   112.14968387   176.68006824
 H     56  55  52     1.097424276117   110.51469195   292.80771245
 H     56  55  52     1.093830886122   111.91870856   172.21802431
 H     56  55  52     1.094931819763   110.33339750    52.06374216
 H     60  57  55     1.094230811062   111.70572989    58.17496412
 H     60  57  55     1.098069382493   110.27251871   298.40570300
 H     60  57  55     1.095533795918   110.78545972   179.09535809
 H     61  57  55     1.093616699598   112.43312657   295.26507669
 H     61  57  55     1.095604598980   110.34550307   175.10234601
 H     61  57  55     1.097874516950   110.46360803    56.10155247
 H     50  44  40     1.091848561855   111.14019103    68.42542358
 H     50  44  40     1.096440041372   111.40792998   308.07610936
 H     50  44  40     1.095354532274   110.54251849   187.98065405

---------------------------
INTERNAL COORDINATES (A.U.)
---------------------------
 C      0   0   0     0.000000000000     0.00000000     0.00000000
 C      1   0   0     2.854543664672     0.00000000     0.00000000
 C      2   1   0     2.898917694151   110.49365421     0.00000000
 H      2   1   3     2.070927678516   110.70025772   237.86355835
 H      2   1   3     2.078923953122   109.80201297   118.75089635
 C      1   2   3     2.796244839133   113.94934356   306.17654065
 C      6   1   2     2.858756344684   114.39915384    49.76743230
 C      3   2   1     2.890613013737   110.15881714    56.71493084
 H      7   6   1     2.069689963270   110.22440879   188.73692998
 H      7   6   1     2.079964657471   108.27693202    72.06443521
 H      8   3   2     2.075950502354   108.31721349    64.42151328
 H      8   3   2     2.071420083798   109.51055576   181.42970471
 O      3   2   1     2.715942080502   110.70121281   292.67294852
 H      3   2   1     2.073023247135   109.48422625   177.15572733
 C      1   2   3     2.559386151707   121.20043536   122.95675195
 C      6   1   2     2.527536795958   123.15124727   231.71257500
 H     16   6   1     2.053710294023   121.35518415   359.04238815
 H     16   6   1     2.055077397054   120.95282444   178.41911558
 C     15   1   2     2.730629387323   126.14087184   185.15412254
 H     15   1   2     2.058570471648   116.26853915     3.07944129
 C     19  15   1     2.551034009810   126.44120122   185.56995612
 H     19  15   1     2.055498942404   115.76003346     6.27395610
 C     21  19  15     2.848492078392   125.69925548     2.22439831
 C     23  21  19     2.912084134989   111.44612250   124.55697692
 H     23  21  19     2.066035196141   112.39942986     0.94701450
 H     23  21  19     2.081714563100   107.90297648   243.09932020
 C     24  23  21     2.900115740584   112.67772382    51.21467962
 H     24  23  21     2.073750822152   108.98051915   289.07700048
 H     24  23  21     2.072828815992   109.13704323   173.12744283
 C     27  24  23     2.900703915340   111.89933777   306.27764369
 H     27  24  23     2.068681249426   108.86584782   182.72460129
 H     27  24  23     2.079574445864   109.19605123    66.28489910
 C     21  19  15     2.830885242380   122.89978981   180.27553027
 H     33  21  19     2.088900836837   106.37266952   127.25413535
 C     33  21  19     2.882759124789   121.12684490     4.72495470
 H     13   3   2     1.828779894827   107.64863023    42.70546572
 C     35  33  21     2.926392589513   103.62100390   197.08312457
 H     35  33  21     2.069118455792   112.05687734    75.08041788
 H     35  33  21     2.070415830689   110.83395106   315.45064329
 C     30  27  24     2.937446902526   116.09979656   166.09628325
 H     37  35  33     2.068648214775   111.79815841   248.96106869
 H     37  35  33     2.072263951733   110.44134734   130.37255294
 H     40  30  27     2.082844606722   106.60928821   320.62671660
 C     40  30  27     2.926151139591   118.81817703    80.83202849
 C     30  27  24     2.900100078694   111.18126897   294.10969155
 H     45  30  27     2.068617146515   111.61021013   186.34291439
 H     45  30  27     2.068180723015   111.50288592    66.35093162
 H     45  30  27     2.070231445845   110.70783857   306.22539282
 H     44  40  30     2.083322579181   106.92906839    61.38411458
 C     44  40  30     2.887763855783   113.35016132   302.15926079
 C     44  40  30     2.854630580115   108.46978028   176.23016219
 C     51  44  40     2.518502753117   126.81506915   110.39968577
 H     51  44  40     2.062822813211   115.46774070   292.79589986
 H     52  51  44     2.064906007484   120.12177210     2.04304519
 C     52  51  44     2.841408432974   124.93594105   181.81253586
 C     55  52  51     2.904067668786   109.24658476   239.98389450
 C     55  52  51     2.928529463868   110.77928201   115.80085918
 H     55  52  51     2.082234973167   108.40196327   358.17446050
 H     57  55  52     2.083057831186   107.18646721    57.98709985
 C     57  55  52     2.893824752402   110.97175438   299.85194564
 C     57  55  52     2.894020087660   112.14968387   176.68006824
 H     56  55  52     2.073831334578   110.51469195   292.80771245
 H     56  55  52     2.067040811595   111.91870856   172.21802431
 H     56  55  52     2.069121274668   110.33339750    52.06374216
 H     60  57  55     2.067796560206   111.70572989    58.17496412
 H     60  57  55     2.075050408956   110.27251871   298.40570300
 H     60  57  55     2.070258844740   110.78545972   179.09535809
 H     61  57  55     2.066636057723   112.43312657   295.26507669
 H     61  57  55     2.070392643137   110.34550307   175.10234601
 H     61  57  55     2.074682166447   110.46360803    56.10155247
 H     50  44  40     2.063294761622   111.14019103    68.42542358
 H     50  44  40     2.071971400458   111.40792998   308.07610936
 H     50  44  40     2.069920085548   110.54251849   187.98065405

---------------------
BASIS SET INFORMATION
---------------------
There are 3 groups of distinct atoms

 Group   1 Type C   : 7s4p contracted to 4s3p pattern {4111/211}
 Group   2 Type H   : 5s contracted to 3s pattern {311}
 Group   3 Type O   : 7s4p contracted to 4s3p pattern {4111/211}

Atom   0C    basis set group =>   1
Atom   1C    basis set group =>   1
Atom   2C    basis set group =>   1
Atom   3H    basis set group =>   2
Atom   4H    basis set group =>   2
Atom   5C    basis set group =>   1
Atom   6C    basis set group =>   1
Atom   7C    basis set group =>   1
Atom   8H    basis set group =>   2
Atom   9H    basis set group =>   2
Atom  10H    basis set group =>   2
Atom  11H    basis set group =>   2
Atom  12O    basis set group =>   3
Atom  13H    basis set group =>   2
Atom  14C    basis set group =>   1
Atom  15C    basis set group =>   1
Atom  16H    basis set group =>   2
Atom  17H    basis set group =>   2
Atom  18C    basis set group =>   1
Atom  19H    basis set group =>   2
Atom  20C    basis set group =>   1
Atom  21H    basis set group =>   2
Atom  22C    basis set group =>   1
Atom  23C    basis set group =>   1
Atom  24H    basis set group =>   2
Atom  25H    basis set group =>   2
Atom  26C    basis set group =>   1
Atom  27H    basis set group =>   2
Atom  28H    basis set group =>   2
Atom  29C    basis set group =>   1
Atom  30H    basis set group =>   2
Atom  31H    basis set group =>   2
Atom  32C    basis set group =>   1
Atom  33H    basis set group =>   2
Atom  34C    basis set group =>   1
Atom  35H    basis set group =>   2
Atom  36C    basis set group =>   1
Atom  37H    basis set group =>   2
Atom  38H    basis set group =>   2
Atom  39C    basis set group =>   1
Atom  40H    basis set group =>   2
Atom  41H    basis set group =>   2
Atom  42H    basis set group =>   2
Atom  43C    basis set group =>   1
Atom  44C    basis set group =>   1
Atom  45H    basis set group =>   2
Atom  46H    basis set group =>   2
Atom  47H    basis set group =>   2
Atom  48H    basis set group =>   2
Atom  49C    basis set group =>   1
Atom  50C    basis set group =>   1
Atom  51C    basis set group =>   1
Atom  52H    basis set group =>   2
Atom  53H    basis set group =>   2
Atom  54C    basis set group =>   1
Atom  55C    basis set group =>   1
Atom  56C    basis set group =>   1
Atom  57H    basis set group =>   2
Atom  58H    basis set group =>   2
Atom  59C    basis set group =>   1
Atom  60C    basis set group =>   1
Atom  61H    basis set group =>   2
Atom  62H    basis set group =>   2
Atom  63H    basis set group =>   2
Atom  64H    basis set group =>   2
Atom  65H    basis set group =>   2
Atom  66H    basis set group =>   2
Atom  67H    basis set group =>   2
Atom  68H    basis set group =>   2
Atom  69H    basis set group =>   2
Atom  70H    basis set group =>   2
Atom  71H    basis set group =>   2
Atom  72H    basis set group =>   2

-------------------------
BASIS SET IN INPUT FORMAT
-------------------------

 # Basis set for element : H 
 NewGTO H 
 S 3 
   1    1357.7500000000      0.0012928364
   2      54.3100000000      0.0588280685
   3       4.3448000000      0.9761499708
 S 1 
   1       0.6604910000      1.0000000000
 S 1 
   1       0.1366870000      1.0000000000
  end;

 # Basis set for element : C 
 NewGTO C 
 S 4 
   1  139534.0000000000      0.0001655246
   2    5581.3600000000      0.0074486101
   3     446.5090000000      0.1285821065
   4      67.4620000000      0.9218029311
 S 1 
   1      15.0674000000      1.0000000000
 S 1 
   1       3.9387600000      1.0000000000
 S 1 
   1       0.2999150000      1.0000000000
 P 2 
   1      28.3900000000      0.0816325586
   2       4.3676900000      0.9660360576
 P 1 
   1       0.8698170000      1.0000000000
 P 1 
   1       0.1889340000      1.0000000000
  end;

 # Basis set for element : O 
 NewGTO O 
 S 4 
   1  253789.0000000000      0.0001641076
   2   10151.6000000000      0.0074010921
   3     812.1250000000      0.1277711901
   4     122.6930000000      0.9223372164
 S 1 
   1      27.5608000000      1.0000000000
 S 1 
   1       7.3172600000      1.0000000000
 S 1 
   1       0.5792400000      1.0000000000
 P 2 
   1      53.4157000000      0.0793786106
   2       8.2177900000      0.9670506337
 P 1 
   1       1.6754400000      1.0000000000
 P 1 
   1       0.3506720000      1.0000000000
  end;

---------------------------------
AUXILIARY/J BASIS SET INFORMATION
---------------------------------
There are 3 groups of distinct atoms

 Group   1 Type C   : 12s5p4d2f1g contracted to 6s4p3d1f1g pattern {711111/2111/211/2/1}
 Group   2 Type H   : 5s2p1d contracted to 3s1p1d pattern {311/2/1}
 Group   3 Type O   : 12s5p4d2f1g contracted to 6s4p3d1f1g pattern {711111/2111/211/2/1}

Atom   0C    basis set group =>   1
Atom   1C    basis set group =>   1
Atom   2C    basis set group =>   1
Atom   3H    basis set group =>   2
Atom   4H    basis set group =>   2
Atom   5C    basis set group =>   1
Atom   6C    basis set group =>   1
Atom   7C    basis set group =>   1
Atom   8H    basis set group =>   2
Atom   9H    basis set group =>   2
Atom  10H    basis set group =>   2
Atom  11H    basis set group =>   2
Atom  12O    basis set group =>   3
Atom  13H    basis set group =>   2
Atom  14C    basis set group =>   1
Atom  15C    basis set group =>   1
Atom  16H    basis set group =>   2
Atom  17H    basis set group =>   2
Atom  18C    basis set group =>   1
Atom  19H    basis set group =>   2
Atom  20C    basis set group =>   1
Atom  21H    basis set group =>   2
Atom  22C    basis set group =>   1
Atom  23C    basis set group =>   1
Atom  24H    basis set group =>   2
Atom  25H    basis set group =>   2
Atom  26C    basis set group =>   1
Atom  27H    basis set group =>   2
Atom  28H    basis set group =>   2
Atom  29C    basis set group =>   1
Atom  30H    basis set group =>   2
Atom  31H    basis set group =>   2
Atom  32C    basis set group =>   1
Atom  33H    basis set group =>   2
Atom  34C    basis set group =>   1
Atom  35H    basis set group =>   2
Atom  36C    basis set group =>   1
Atom  37H    basis set group =>   2
Atom  38H    basis set group =>   2
Atom  39C    basis set group =>   1
Atom  40H    basis set group =>   2
Atom  41H    basis set group =>   2
Atom  42H    basis set group =>   2
Atom  43C    basis set group =>   1
Atom  44C    basis set group =>   1
Atom  45H    basis set group =>   2
Atom  46H    basis set group =>   2
Atom  47H    basis set group =>   2
Atom  48H    basis set group =>   2
Atom  49C    basis set group =>   1
Atom  50C    basis set group =>   1
Atom  51C    basis set group =>   1
Atom  52H    basis set group =>   2
Atom  53H    basis set group =>   2
Atom  54C    basis set group =>   1
Atom  55C    basis set group =>   1
Atom  56C    basis set group =>   1
Atom  57H    basis set group =>   2
Atom  58H    basis set group =>   2
Atom  59C    basis set group =>   1
Atom  60C    basis set group =>   1
Atom  61H    basis set group =>   2
Atom  62H    basis set group =>   2
Atom  63H    basis set group =>   2
Atom  64H    basis set group =>   2
Atom  65H    basis set group =>   2
Atom  66H    basis set group =>   2
Atom  67H    basis set group =>   2
Atom  68H    basis set group =>   2
Atom  69H    basis set group =>   2
Atom  70H    basis set group =>   2
Atom  71H    basis set group =>   2
Atom  72H    basis set group =>   2

-------------------------------------
AUXILIARY/J BASIS SET IN INPUT FORMAT
-------------------------------------

 # Auxiliary/J basis set for element : H 
 NewAuxJGTO H 
 S 3 
   1      15.6752927000      0.1007184237
   2       3.6063578000      0.3404257499
   3       1.2080016000      0.6491996172
 S 1 
   1       0.4726794000      1.0000000000
 S 1 
   1       0.2018100000      1.0000000000
 P 2 
   1       2.0281365000      0.5596620919
   2       0.5358730000      0.5596620919
 D 1 
   1       2.2165124000      1.0000000000
  end;

 # Auxiliary/J basis set for element : C 
 NewAuxJGTO C 
 S 7 
   1    1861.0916331000      0.0134602335
   2     642.9939764000      0.0299160374
   3     235.1105725000      0.1008649584
   4      90.7028894000      0.2370970548
   5      36.7794552000      0.3924037254
   6      15.6046273000      0.3195862154
   7       6.8907294000      0.0530104441
 S 1 
   1       3.1478850000     -1.0000000000
 S 1 
   1       1.4777287000      1.0000000000
 S 1 
   1       0.7076466000      1.0000000000
 S 1 
   1       0.3430122000      1.0000000000
 S 1 
   1       0.1669453000      1.0000000000
 P 2 
   1      13.5472892000     -0.6769313712
   2       5.4669419000     -0.3779500978
 P 1 
   1       2.1751721000      1.0000000000
 P 1 
   1       0.8582194000      1.0000000000
 P 1 
   1       0.3376720000      1.0000000000
 D 2 
   1       5.9287253000     -0.3533329857
   2       1.9809209000     -0.7456525731
 D 1 
   1       0.8055417000     -1.0000000000
 D 1 
   1       0.3531244000     -1.0000000000
 F 2 
   1       1.6755626000      0.6311076882
   2       0.5997536000      0.4968166032
 G 1 
   1       1.0024600000     -1.0000000000
  end;

 # Auxiliary/J basis set for element : O 
 NewAuxJGTO O 
 S 7 
   1    2876.8216605000      0.0168151159
   2    1004.7443032000      0.0340137548
   3     369.7579954000      0.1194951309
   4     142.9442404000      0.2664627624
   5      57.8366425000      0.4202764046
   6      24.3864983000      0.2765077335
   7      10.6622662000      0.0057008815
 S 1 
   1       4.8070437000     -1.0000000000
 S 1 
   1       2.2210770000      1.0000000000
 S 1 
   1       1.0447795000      1.0000000000
 S 1 
   1       0.4968425000      1.0000000000
 S 1 
   1       0.2371384000      1.0000000000
 P 2 
   1      64.2613382000     -0.2731534179
   2      16.3006076000     -0.8168011598
 P 1 
   1       4.3550542000      1.0000000000
 P 1 
   1       1.2019554000      1.0000000000
 P 1 
   1       0.3354196000      1.0000000000
 D 2 
   1       9.2146611000     -0.4661230638
   2       2.8435251000     -0.6600908911
 D 1 
   1       0.9955759000     -1.0000000000
 D 1 
   1       0.3649441000     -1.0000000000
 F 2 
   1       2.6420115000      0.5931563945
   2       0.7345613000      0.5931563945
 G 1 
   1       1.3931000000     -1.0000000000
  end;


Checking for AutoStart:
The File: inpJ.gbw exists
Trying to determine its content:
     ... Fine, the file contains calculation information
     ... Fine, the calculation information was read
     ... Fine, the file contains a basis set
     ... Fine, the basis set was read
     ... Fine, the file contains a geometry
     ... Fine, the geometry was read
     ... Fine, the file contains a set of orbitals
     ... Fine, the orbitals can be read
     => possible old guess file was deleted
     => GBW file was renamed to GES file
     => GES file is set as startup file
     => Guess is set to MORead
     ... now leaving AutoStart



           ************************************************************
           *        Program running with 4 parallel MPI-processes     *
           *              working on a common directory               *
           ************************************************************
------------------------------------------------------------------------------
                             ORCA STARTUP CALCULATIONS
                           -- RI-GTO INTEGRALS CHOSEN --
------------------------------------------------------------------------------
------------------------------------------------------------------------------
                   ___                                                        
                  /   \      - P O W E R E D   B Y -                         
                 /     \                                                     
                 |  |  |   _    _      __       _____    __    __             
                 |  |  |  | |  | |    /  \     |  _  \  |  |  /  |          
                  \  \/   | |  | |   /    \    | | | |  |  | /  /          
                 / \  \   | |__| |  /  /\  \   | |_| |  |  |/  /          
                |  |  |   |  __  | /  /__\  \  |    /   |      \           
                |  |  |   | |  | | |   __   |  |    \   |  |\   \          
                \     /   | |  | | |  |  |  |  | |\  \  |  | \   \       
                 \___/    |_|  |_| |__|  |__|  |_| \__\ |__|  \__/        
                                                                              
                      - O R C A' S   B I G   F R I E N D -                    
                                      &                                       
                       - I N T E G R A L  F E E D E R -                       
                                                                              
 v1 FN, 2020, v2 2021, v3 2022-2024                                           
------------------------------------------------------------------------------


----------------------
SHARK INTEGRAL PACKAGE
----------------------

Number of atoms                             ...     73
Number of basis functions                   ...    509
Number of shells                            ...    335
Maximum angular momentum                    ...      1
Integral batch strategy                     ... SHARK/LIBINT Hybrid
RI-J (if used) integral strategy            ... SPLIT-RIJ (Revised 2003 algorithm where possible)
Printlevel                                  ...      1
Contraction scheme used                     ... SEGMENTED contraction
Prescreening option                         ... SCHWARTZ
   Thresh                                   ... 3.000e-11
   Tcut                                     ... 1.000e-12
   Tpresel                                  ... 1.000e-12 
Coulomb Range Separation                    ... NOT USED
Exchange Range Separation                   ... NOT USED
Multipole approximations                    ... NOT USED
Finite Nucleus Model                        ... NOT USED
CABS basis                                  ... NOT available
Auxiliary Coulomb fitting basis             ... AVAILABLE
   # of basis functions in Aux-J            ...   1905
   # of shells in Aux-J                     ...    655
   Maximum angular momentum in Aux-J        ...      4
Auxiliary J/K fitting basis                 ... NOT available
Auxiliary Correlation fitting basis         ... NOT available
Auxiliary 'external' fitting basis          ... NOT available

Checking pre-screening integrals            ... done (  0.0 sec) Dimension = 335
Check shell pair data                       ... done (  0.0 sec)
Shell pair information
Shell pair cut-off parameter TPreSel        ...   1.0e-12
Total number of shell pairs                 ...     56280
Shell pairs after pre-screening             ...     21868
Total number of primitive shell pairs       ...    145865
Primitive shell pairs kept                  ...     37636
          la=0 lb=0:  11009 shell pairs
          la=1 lb=0:   8993 shell pairs
          la=1 lb=1:   1866 shell pairs

Calculating one electron integrals          ... done (  0.0 sec)
Calculating RI/J V-Matrix + Cholesky decomp.... done (  0.2 sec)
Calculating Nuclear repulsion               ... done (  0.0 sec) ENN=   2784.401789644583 Eh

Diagonalization of the overlap matrix:
Smallest eigenvalue                        ... 7.570e-03
Time for diagonalization                   ...    0.026 sec
Threshold for overlap eigenvalues          ... 1.000e-07
Number of eigenvalues below threshold      ... 0
Time for construction of square roots      ...    0.013 sec
Total time needed                          ...    0.040 sec

-------------------
DFT GRID GENERATION
-------------------

General Integration Accuracy     IntAcc      ... 4.388
Radial Grid Type                 RadialGrid  ... OptM3 with GC (2021)
Angular Grid (max. ang.)         AngularGrid ... 4 (Lebedev-302)
Angular grid pruning method      GridPruning ... 4 (adaptive)
Weight generation scheme         WeightScheme... mBecke (2022)
Basis function cutoff            BFCut       ... 1.0000e-11
Integration weight cutoff        WCut        ... 1.0000e-14
Partially contracted basis set               ... off
Rotationally invariant grid construction     ... off
Angular grids for H and He will be reduced by one unit

Total number of grid points                  ...   309819
Total number of batches                      ...     4877
Average number of points per batch           ...       63
Average number of grid points per atom       ...     4244

--------------------
COSX GRID GENERATION
--------------------

GRIDX 1
-------
General Integration Accuracy     IntAcc      ... 3.816
Radial Grid Type                 RadialGrid  ... OptM3 with GC (2021)
Angular Grid (max. ang.)         AngularGrid ... 1 (Lebedev-50)
Angular grid pruning method      GridPruning ... 4 (adaptive)
Weight generation scheme         WeightScheme... mBecke (2022)
Basis function cutoff            BFCut       ... 1.0000e-11
Integration weight cutoff        WCut        ... 1.0000e-14
Partially contracted basis set               ... on
Rotationally invariant grid construction     ... off
Angular grids for H and He will be reduced by one unit

Total number of grid points                  ...    39391
Total number of batches                      ...      351
Average number of points per batch           ...      112
Average number of grid points per atom       ...      540
UseSFitting                                  ... on

GRIDX 2
-------
General Integration Accuracy     IntAcc      ... 4.020
Radial Grid Type                 RadialGrid  ... OptM3 with GC (2021)
Angular Grid (max. ang.)         AngularGrid ... 2 (Lebedev-110)
Angular grid pruning method      GridPruning ... 4 (adaptive)
Weight generation scheme         WeightScheme... mBecke (2022)
Basis function cutoff            BFCut       ... 1.0000e-11
Integration weight cutoff        WCut        ... 1.0000e-14
Partially contracted basis set               ... on
Rotationally invariant grid construction     ... off
Angular grids for H and He will be reduced by one unit

Total number of grid points                  ...    81360
Total number of batches                      ...      677
Average number of points per batch           ...      120
Average number of grid points per atom       ...     1115
UseSFitting                                  ... on

GRIDX 3
-------
General Integration Accuracy     IntAcc      ... 4.338
Radial Grid Type                 RadialGrid  ... OptM3 with GC (2021)
Angular Grid (max. ang.)         AngularGrid ... 3 (Lebedev-194)
Angular grid pruning method      GridPruning ... 4 (adaptive)
Weight generation scheme         WeightScheme... mBecke (2022)
Basis function cutoff            BFCut       ... 1.0000e-11
Integration weight cutoff        WCut        ... 1.0000e-14
Partially contracted basis set               ... on
Rotationally invariant grid construction     ... off
Angular grids for H and He will be reduced by one unit

Total number of grid points                  ...   176218
Total number of batches                      ...     1417
Average number of points per batch           ...      124
Average number of grid points per atom       ...     2414
UseSFitting                                  ... on
Initializing property integral containers    ... done (  0.0 sec)

SHARK setup successfully completed in   3.7 seconds

Maximum memory used throughout the entire STARTUP-calculation: 85.6 MB


           ************************************************************
           *        Program running with 4 parallel MPI-processes     *
           *              working on a common directory               *
           ************************************************************
-------------------------------------------------------------------------------
                                 ORCA GUESS
                   Start orbitals & Density for SCF / CASSCF
-------------------------------------------------------------------------------

------------
SCF SETTINGS
------------
Hamiltonian:
 Density Functional     Method          .... DFT(GTOs)
 Exchange Functional    Exchange        .... PBE
   PBE kappa parameter   XKappa         ....  0.804000
   PBE mue parameter    XMuePBE         ....  0.219520
 Correlation Functional Correlation     .... PBE
   PBE beta parameter  CBetaPBE         ....  0.066725
 LDA part of GGA corr.  LDAOpt          .... PW91-LDA
 Gradients option       PostSCFGGA      .... off
 Hybrid DFT is turned on
   Fraction HF Exchange ScalHFX         ....  0.250000
   Scaling of DF-GGA-X  ScalDFX         ....  0.750000
   Scaling of DF-GGA-C  ScalDFC         ....  1.000000
   Scaling of DF-LDA-C  ScalLDAC        ....  1.000000
   Perturbative correction              ....  0.000000
   NL short-range parameter             ....  6.900000
 RI-approximation to the Coulomb term is turned on
   Number of AuxJ basis functions       .... 1905
   RIJ-COSX (HFX calculated with COS-X)).... on


General Settings:
 Integral files         IntName         .... inpJ
 Hartree-Fock type      HFTyp           .... RHF
 Total Charge           Charge          ....    0
 Multiplicity           Mult            ....    1
 Number of Electrons    NEL             ....  220
 Basis Dimension        Dim             ....  509
 Nuclear Repulsion      ENuc            ....   2784.4017896446 Eh

Convergence Acceleration:
 AO-DIIS                CNVDIIS         .... on
   Start iteration      DIISMaxIt       ....    12
   Startup error        DIISStart       ....  0.200000
   # of expansion vecs  DIISMaxEq       ....     5
   Bias factor          DIISBfac        ....   1.050
   Max. coefficient     DIISMaxC        ....  10.000
 MO-DIIS                CNVKDIIS        .... off
 Trust-Rad. Augm. Hess. CNVTRAH         .... auto
   Auto Start mean grad. ratio tolernc. ....  1.125000
   Auto Start start iteration           ....     1
   Auto Start num. interpolation iter.  ....    10
   Max. Number of Micro iterations      ....    24
   Max. Number of Macro iterations      .... Maxiter - #DIIS iter
   Number of Davidson start vectors     ....     2
   Converg. threshold    (grad. norm)   ....   1.000e-04
   Grad. Scal. Fac. for Micro threshold ....   0.100
   Minimum threshold for Micro iter.    ....   1.000e-02
   NR start threshold (gradient norm)   ....   1.000e-04
   Initial trust radius                 ....   0.400
   Minimum AH scaling param. (alpha)    ....   1.000
   Maximum AH scaling param. (alpha)    .... 1000.000
   Quad. conv. algorithm                .... NR
   White noise on init. David. guess    .... on
   Maximum white noise                  ....   0.010
   Pseudo random numbers                .... off
   Inactive MOs                         .... canonical
   Orbital update algorithm             .... Taylor
   Preconditioner                       .... Diag
   Full preconditioner red. dimension   ....   250
 SOSCF                  CNVSOSCF        .... off
 Level Shifting         CNVShift        .... on
   Level shift para.    LevelShift      ....    0.2500
   Turn off err/grad.   ShiftErr        ....    0.0010
 Zerner damping         CNVZerner       .... off
 Static damping         CNVDamp         .... on
   Fraction old density DampFac         ....    0.7000
   Max. Damping (<1)    DampMax         ....    0.9800
   Min. Damping (>=0)   DampMin         ....    0.0000
   Turn off err/grad.   DampErr         ....    0.1000

SCF Procedure:
 Maximum # iterations   MaxIter         ....   125
 SCF integral mode      SCFMode         .... Direct
   Integral package                     .... SHARK and LIBINT hybrid scheme
 Reset frequency        DirectResetFreq ....    20
 Integral Threshold     Thresh          ....  3.000e-11 Eh
 Primitive CutOff       TCut            ....  1.000e-12 Eh

Convergence Tolerance:
 Convergence Check Mode ConvCheckMode   .... Total+1el-Energy
 Convergence forced     ConvForced      .... 0
 Energy Change          TolE            ....  1.000e-07 Eh
 1-El. energy change                    ....  1.000e-04 Eh
 DIIS Error             TolErr          ....  1.000e-07

---------------------
INITIAL GUESS: MOREAD
---------------------
Guess MOs are being read from file: inpJ.ges
Input Geometry matches current geometry (good)
Input basis set matches current basis set (good)
Occupation numbers will be reassigned to an Aufbau configuration
MOs were renormalized
MOs were reorthogonalized (Cholesky)
                      ------------------
                      INITIAL GUESS DONE (   0.1 sec)
                      ------------------
             **** ENERGY FILE WAS UPDATED (inpJ.en.tmp) ****
Finished Guess after   0.2 sec
Maximum memory used throughout the entire GUESS-calculation: 36.7 MB


           ************************************************************
           *        Program running with 4 parallel MPI-processes     *
           *              working on a common directory               *
           ************************************************************

-------------------------------------------------------------------------------------------
                                      ORCA LEAN-SCF
                              memory conserving SCF solver
-------------------------------------------------------------------------------------------

--------------------
CPCM SOLVATION MODEL
--------------------
CPCM parameters:
  Epsilon                                         ...       4.8030
  Refrac                                          ...       1.4459
  Rsolv                                           ...       1.3000
  Surface type                                    ... GAUSSIAN VDW
  Discretization scheme                           ... Constant charge density
    Threshold for H atoms                         ...       5.0000 (charges/Ang^2)
    Threshold for non-H atoms                     ...       5.0000 (charges/Ang^2)
  Epsilon function type                           ...         CPCM
Solvent:                                          ... CHLOROFORM
Radii:
  Scheme                                          ... Element-dependent radii
  Radius for C  used is    3.8550 Bohr (=   2.0400 Ang.)
  Radius for H  used is    2.4944 Bohr (=   1.3200 Ang.)
  Radius for O  used is    3.4469 Bohr (=   1.8240 Ang.)
Calculating surface                               ...        done! (  0.0s)
Cavity surface points                             ...         5328
Cavity Volume                                     ...    3617.9055
Cavity Surface-area                               ...    1798.8882
Calculating surface distance matrix               ...        done! (  0.3s)
Performing Cholesky decomposition & store         ...        done! (  0.9s)
Overall time for CPCM initialization              ...                 1.2s

----------------------------------------D-I-I-S--------------------------------------------
Iteration    Energy (Eh)           Delta-E    RMSDP     MaxDP     DIISErr   Damp  Time(sec)
-------------------------------------------------------------------------------------------
               ***  Starting incremental Fock matrix formation  ***
    1    -1165.5119702200595384     0.00e+00  4.40e-08  5.30e-06  6.72e-06  0.700   6.3

  HOMO= 109 E= -6.017 eV LUMO=  5.932 eV gap=  11.949 eV
    2    -1165.5119702381139177    -1.81e-08  2.96e-08  3.18e-06  3.30e-06  0.700   2.0
                 **** Energy Check signals convergence ****

  HOMO= 109 E= -6.017 eV LUMO=  5.932 eV gap=  11.949 eV

               *****************************************************
               *                     SUCCESS                       *
               *           SCF CONVERGED AFTER   2 CYCLES          *
               *****************************************************

Recomputing exchange energy using gridx3       ... done (    8.226 sec)
Old exchange energy                            :    -42.067523880 Eh
New exchange energy                            :    -42.067506904 Eh
Exchange energy change after final integration :      0.000016977 Eh
Total energy after final integration           :  -1165.511953262 Eh
             **** ENERGY FILE WAS UPDATED (inpJ.en.tmp) ****

----------------
TOTAL SCF ENERGY
----------------

Total Energy       :      -1165.51195326150992 Eh          -31715.19262 eV

Components:
Nuclear Repulsion  :       2784.40178964458255 Eh           75767.42464 eV
Electronic Energy  :      -3949.90039767974258 Eh         -107482.25411 eV
One Electron Energy:      -7110.47848212389727 Eh         -193485.95613 eV
Two Electron Energy:       3160.57808444415468 Eh           86003.70202 eV
CPCM Dielectric    :         -0.01336220295371 Eh              -0.36360 eV

Virial components:
Potential Energy   :      -2322.40686789171150 Eh          -63195.90369 eV
Kinetic Energy     :       1156.89491463020158 Eh           31480.71108 eV
Virial Ratio       :          2.00744841949112

DFT components:
N(Alpha)           :      110.000164320228 electrons
N(Beta)            :      110.000164320228 electrons
N(Total)           :      220.000328640456 electrons
E(X)               :     -125.745001093254 Eh       
E(C)               :       -7.328056222292 Eh       
E(XC)              :     -133.073057315546 Eh       

CPCM Solvation Model Properties:
Surface-charge          :         -0.03342574979363
Corrected charge        :         -0.00000000000000
Outlying charge corr.   :          0.00003917071323 Eh               0.00107 eV
Free-energy (cav+disp)  :  This term is not implemented in the current solvation scheme

---------------
SCF CONVERGENCE
---------------

  Last Energy change         ...    1.8054e-08  Tolerance :   1.0000e-07
  Last MAX-Density change    ...    3.1799e-06  Tolerance :   1.0000e-05
  Last RMS-Density change    ...    2.9553e-08  Tolerance :   1.0000e-06
  Last DIIS Error            ...    3.3039e-06  Tolerance :   1.0000e-07


----------------
ORBITAL ENERGIES
----------------

  NO   OCC          E(Eh)            E(eV) 
   0   2.0000     -19.212622      -522.8020 
   1   2.0000     -10.300601      -280.2936 
   2   2.0000     -10.270696      -279.4798 
   3   2.0000     -10.268532      -279.4210 
   4   2.0000     -10.264125      -279.3010 
   5   2.0000     -10.257767      -279.1280 
   6   2.0000     -10.257716      -279.1266 
   7   2.0000     -10.252477      -278.9841 
   8   2.0000     -10.249707      -278.9087 
   9   2.0000     -10.248876      -278.8861 
  10   2.0000     -10.248361      -278.8721 
  11   2.0000     -10.247743      -278.8553 
  12   2.0000     -10.247430      -278.8468 
  13   2.0000     -10.246925      -278.8330 
  14   2.0000     -10.244985      -278.7802 
  15   2.0000     -10.243725      -278.7459 
  16   2.0000     -10.243130      -278.7297 
  17   2.0000     -10.242368      -278.7090 
  18   2.0000     -10.241941      -278.6974 
  19   2.0000     -10.241690      -278.6906 
  20   2.0000     -10.240414      -278.6558 
  21   2.0000     -10.235954      -278.5345 
  22   2.0000     -10.235591      -278.5246 
  23   2.0000     -10.234487      -278.4945 
  24   2.0000     -10.226320      -278.2723 
  25   2.0000     -10.224707      -278.2284 
  26   2.0000     -10.224632      -278.2264 
  27   2.0000     -10.222087      -278.1571 
  28   2.0000     -10.221593      -278.1437 
  29   2.0000      -1.043392       -28.3921 
  30   2.0000      -0.902303       -24.5529 
  31   2.0000      -0.882410       -24.0116 
  32   2.0000      -0.860524       -23.4161 
  33   2.0000      -0.846790       -23.0423 
  34   2.0000      -0.822934       -22.3932 
  35   2.0000      -0.815086       -22.1796 
  36   2.0000      -0.796216       -21.6661 
  37   2.0000      -0.795315       -21.6416 
  38   2.0000      -0.776766       -21.1369 
  39   2.0000      -0.759206       -20.6590 
  40   2.0000      -0.742331       -20.1998 
  41   2.0000      -0.734664       -19.9912 
  42   2.0000      -0.715997       -19.4833 
  43   2.0000      -0.703236       -19.1360 
  44   2.0000      -0.700629       -19.0651 
  45   2.0000      -0.696537       -18.9537 
  46   2.0000      -0.671254       -18.2658 
  47   2.0000      -0.659811       -17.9544 
  48   2.0000      -0.633608       -17.2413 
  49   2.0000      -0.622660       -16.9434 
  50   2.0000      -0.613632       -16.6978 
  51   2.0000      -0.606891       -16.5143 
  52   2.0000      -0.597911       -16.2700 
  53   2.0000      -0.576143       -15.6776 
  54   2.0000      -0.566334       -15.4107 
  55   2.0000      -0.547559       -14.8998 
  56   2.0000      -0.540866       -14.7177 
  57   2.0000      -0.529802       -14.4166 
  58   2.0000      -0.515491       -14.0272 
  59   2.0000      -0.510145       -13.8817 
  60   2.0000      -0.500694       -13.6246 
  61   2.0000      -0.492265       -13.3952 
  62   2.0000      -0.481645       -13.1062 
  63   2.0000      -0.479567       -13.0497 
  64   2.0000      -0.473915       -12.8959 
  65   2.0000      -0.467511       -12.7216 
  66   2.0000      -0.465048       -12.6546 
  67   2.0000      -0.460997       -12.5444 
  68   2.0000      -0.459515       -12.5040 
  69   2.0000      -0.451738       -12.2924 
  70   2.0000      -0.448868       -12.2143 
  71   2.0000      -0.444799       -12.1036 
  72   2.0000      -0.436633       -11.8814 
  73   2.0000      -0.435430       -11.8487 
  74   2.0000      -0.431315       -11.7367 
  75   2.0000      -0.425132       -11.5684 
  76   2.0000      -0.420974       -11.4553 
  77   2.0000      -0.413378       -11.2486 
  78   2.0000      -0.413125       -11.2417 
  79   2.0000      -0.402356       -10.9487 
  80   2.0000      -0.399271       -10.8647 
  81   2.0000      -0.396957       -10.8017 
  82   2.0000      -0.395690       -10.7673 
  83   2.0000      -0.390716       -10.6319 
  84   2.0000      -0.381868       -10.3911 
  85   2.0000      -0.380615       -10.3571 
  86   2.0000      -0.376996       -10.2586 
  87   2.0000      -0.374329       -10.1860 
  88   2.0000      -0.366604        -9.9758 
  89   2.0000      -0.363075        -9.8798 
  90   2.0000      -0.361872        -9.8470 
  91   2.0000      -0.358259        -9.7487 
  92   2.0000      -0.350954        -9.5500 
  93   2.0000      -0.346436        -9.4270 
  94   2.0000      -0.343749        -9.3539 
  95   2.0000      -0.340765        -9.2727 
  96   2.0000      -0.339255        -9.2316 
  97   2.0000      -0.335166        -9.1203 
  98   2.0000      -0.332715        -9.0536 
  99   2.0000      -0.329236        -8.9590 
 100   2.0000      -0.325926        -8.8689 
 101   2.0000      -0.323622        -8.8062 
 102   2.0000      -0.321062        -8.7365 
 103   2.0000      -0.319486        -8.6936 
 104   2.0000      -0.311585        -8.4787 
 105   2.0000      -0.302063        -8.2195 
 106   2.0000      -0.276886        -7.5344 
 107   2.0000      -0.275369        -7.4932 
 108   2.0000      -0.256045        -6.9674 
 109   2.0000      -0.221119        -6.0170 
 110   0.0000      -0.031985        -0.8704 
 111   0.0000       0.019102         0.5198 
 112   0.0000       0.029424         0.8007 
 113   0.0000       0.080407         2.1880 
 114   0.0000       0.088920         2.4196 
 115   0.0000       0.093258         2.5377 
 116   0.0000       0.101029         2.7491 
 117   0.0000       0.104539         2.8446 
 118   0.0000       0.108585         2.9547 
 119   0.0000       0.116846         3.1795 
 120   0.0000       0.117875         3.2075 
*Only the first 10 virtual orbitals were printed.

                    ********************************
                    * MULLIKEN POPULATION ANALYSIS *
                    ********************************

-----------------------
MULLIKEN ATOMIC CHARGES
-----------------------
   0 C :    0.078464
   1 C :   -0.500349
   2 C :   -0.074242
   3 H :    0.222960
   4 H :    0.219789
   5 C :    0.138776
   6 C :   -0.480142
   7 C :   -0.439879
   8 H :    0.225460
   9 H :    0.207275
  10 H :    0.208917
  11 H :    0.227923
  12 O :   -0.488083
  13 H :    0.247439
  14 C :   -0.280245
  15 C :   -0.514092
  16 H :    0.200942
  17 H :    0.196957
  18 C :   -0.260434
  19 H :    0.220147
  20 C :    0.154026
  21 H :    0.219640
  22 C :   -0.479279
  23 C :   -0.427618
  24 H :    0.211900
  25 H :    0.207290
  26 C :   -0.397097
  27 H :    0.208655
  28 H :    0.217538
  29 C :    0.000494
  30 H :    0.222762
  31 H :    0.194697
  32 C :   -0.229755
  33 H :    0.228544
  34 C :   -0.430663
  35 H :    0.341100
  36 C :   -0.426616
  37 H :    0.208853
  38 H :    0.198798
  39 C :   -0.186786
  40 H :    0.211504
  41 H :    0.205437
  42 H :    0.215515
  43 C :   -0.240830
  44 C :   -0.627802
  45 H :    0.205690
  46 H :    0.209874
  47 H :    0.201532
  48 H :    0.218672
  49 C :   -0.637233
  50 C :   -0.183252
  51 C :   -0.171876
  52 H :    0.215978
  53 H :    0.212915
  54 C :   -0.239127
  55 C :   -0.615963
  56 C :   -0.201737
  57 H :    0.212383
  58 H :    0.209639
  59 C :   -0.607688
  60 C :   -0.610980
  61 H :    0.193284
  62 H :    0.210329
  63 H :    0.205972
  64 H :    0.209785
  65 H :    0.189688
  66 H :    0.200781
  67 H :    0.209064
  68 H :    0.205731
  69 H :    0.191877
  70 H :    0.214133
  71 H :    0.191729
  72 H :    0.200907
Sum of atomic charges:   -0.0000000

--------------------------------
MULLIKEN REDUCED ORBITAL CHARGES
--------------------------------
  0 C s       :     3.354299  s :     3.354299
      pz      :     1.004264  p :     2.567237
      px      :     0.806039
      py      :     0.756934

  1 C s       :     3.377991  s :     3.377991
      pz      :     1.129625  p :     3.122358
      px      :     0.876299
      py      :     1.116434

  2 C s       :     3.312689  s :     3.312689
      pz      :     0.707512  p :     2.761553
      px      :     1.145762
      py      :     0.908279

  3 H s       :     0.777040  s :     0.777040

  4 H s       :     0.780211  s :     0.780211

  5 C s       :     3.341432  s :     3.341432
      pz      :     0.882154  p :     2.519792
      px      :     0.869235
      py      :     0.768404

  6 C s       :     3.367260  s :     3.367260
      pz      :     1.129422  p :     3.112881
      px      :     0.893993
      py      :     1.089467

  7 C s       :     3.338590  s :     3.338590
      pz      :     1.183208  p :     3.101289
      px      :     0.960666
      py      :     0.957415

  8 H s       :     0.774540  s :     0.774540

  9 H s       :     0.792725  s :     0.792725

 10 H s       :     0.791083  s :     0.791083

 11 H s       :     0.772077  s :     0.772077

 12 O s       :     3.684963  s :     3.684963
      pz      :     1.450019  p :     4.803120
      px      :     1.451567
      py      :     1.901534

 13 H s       :     0.752561  s :     0.752561

 14 C s       :     3.394114  s :     3.394114
      pz      :     0.984590  p :     2.886131
      px      :     0.828874
      py      :     1.072667

 15 C s       :     3.385215  s :     3.385215
      pz      :     0.989863  p :     3.128877
      px      :     0.989791
      py      :     1.149223

 16 H s       :     0.799058  s :     0.799058

 17 H s       :     0.803043  s :     0.803043

 18 C s       :     3.397301  s :     3.397301
      pz      :     1.020174  p :     2.863133
      px      :     0.768127
      py      :     1.074832

 19 H s       :     0.779853  s :     0.779853

 20 C s       :     3.350736  s :     3.350736
      pz      :     0.946132  p :     2.495237
      px      :     0.757559
      py      :     0.791547

 21 H s       :     0.780360  s :     0.780360

 22 C s       :     3.372504  s :     3.372504
      pz      :     1.105144  p :     3.106775
      px      :     1.118627
      py      :     0.883004

 23 C s       :     3.327516  s :     3.327516
      pz      :     1.092349  p :     3.100103
      px      :     0.893391
      py      :     1.114362

 24 H s       :     0.788100  s :     0.788100

 25 H s       :     0.792710  s :     0.792710

 26 C s       :     3.350082  s :     3.350082
      pz      :     1.176484  p :     3.047015
      px      :     0.957318
      py      :     0.913212

 27 H s       :     0.791345  s :     0.791345

 28 H s       :     0.782462  s :     0.782462

 29 C s       :     3.318156  s :     3.318156
      pz      :     0.868641  p :     2.681350
      px      :     0.906075
      py      :     0.906634

 30 H s       :     0.777238  s :     0.777238

 31 H s       :     0.805303  s :     0.805303

 32 C s       :     3.362642  s :     3.362642
      pz      :     1.075391  p :     2.867113
      px      :     0.863244
      py      :     0.928478

 33 H s       :     0.771456  s :     0.771456

 34 C s       :     3.344670  s :     3.344670
      pz      :     1.190443  p :     3.085993
      px      :     0.927387
      py      :     0.968163

 35 H s       :     0.658900  s :     0.658900

 36 C s       :     3.336013  s :     3.336013
      pz      :     1.166784  p :     3.090603
      px      :     0.950018
      py      :     0.973801

 37 H s       :     0.791147  s :     0.791147

 38 H s       :     0.801202  s :     0.801202

 39 C s       :     3.338725  s :     3.338725
      pz      :     1.059359  p :     2.848061
      px      :     0.858778
      py      :     0.929924

 40 H s       :     0.788496  s :     0.788496

 41 H s       :     0.794563  s :     0.794563

 42 H s       :     0.784485  s :     0.784485

 43 C s       :     3.349348  s :     3.349348
      pz      :     1.051799  p :     2.891482
      px      :     0.874442
      py      :     0.965241

 44 C s       :     3.365627  s :     3.365627
      pz      :     0.958936  p :     3.262174
      px      :     1.161835
      py      :     1.141402

 45 H s       :     0.794310  s :     0.794310

 46 H s       :     0.790126  s :     0.790126

 47 H s       :     0.798468  s :     0.798468

 48 H s       :     0.781328  s :     0.781328

 49 C s       :     3.351773  s :     3.351773
      pz      :     1.148652  p :     3.285460
      px      :     1.163355
      py      :     0.973454

 50 C s       :     3.343419  s :     3.343419
      pz      :     0.947940  p :     2.839832
      px      :     0.812362
      py      :     1.079530

 51 C s       :     3.340717  s :     3.340717
      pz      :     0.948604  p :     2.831158
      px      :     0.817050
      py      :     1.065504

 52 H s       :     0.784022  s :     0.784022

 53 H s       :     0.787085  s :     0.787085

 54 C s       :     3.337155  s :     3.337155
      pz      :     0.881142  p :     2.901972
      px      :     0.882874
      py      :     1.137956

 55 C s       :     3.343741  s :     3.343741
      pz      :     1.116513  p :     3.272222
      px      :     0.999592
      py      :     1.156117

 56 C s       :     3.310031  s :     3.310031
      pz      :     0.875948  p :     2.891707
      px      :     0.892950
      py      :     1.122810

 57 H s       :     0.787617  s :     0.787617

 58 H s       :     0.790361  s :     0.790361

 59 C s       :     3.340943  s :     3.340943
      pz      :     1.110909  p :     3.266746
      px      :     1.007000
      py      :     1.148837

 60 C s       :     3.341730  s :     3.341730
      pz      :     1.117803  p :     3.269250
      px      :     1.037888
      py      :     1.113560

 61 H s       :     0.806716  s :     0.806716

 62 H s       :     0.789671  s :     0.789671

 63 H s       :     0.794028  s :     0.794028

 64 H s       :     0.790215  s :     0.790215

 65 H s       :     0.810312  s :     0.810312

 66 H s       :     0.799219  s :     0.799219

 67 H s       :     0.790936  s :     0.790936

 68 H s       :     0.794269  s :     0.794269

 69 H s       :     0.808123  s :     0.808123

 70 H s       :     0.785867  s :     0.785867

 71 H s       :     0.808271  s :     0.808271

 72 H s       :     0.799093  s :     0.799093


------------------------
MULLIKEN OVERLAP CHARGES
------------------------
B(  0-C ,  1-C ) :   0.5245 B(  0-C ,  2-C ) :  -0.1798 B(  0-C ,  3-H ) :  -0.0796 
B(  0-C ,  4-H ) :  -0.0864 B(  0-C ,  5-C ) :   0.4158 B(  0-C ,  6-C ) :  -0.1416 
B(  0-C , 14-C ) :   0.9503 B(  0-C , 15-C ) :  -0.2023 B(  0-C , 18-C ) :  -0.1863 
B(  0-C , 19-H ) :  -0.0751 B(  1-C ,  2-C ) :   0.5263 B(  1-C ,  3-H ) :   0.8090 
B(  1-C ,  4-H ) :   0.7737 B(  1-C ,  5-C ) :  -0.1406 B(  1-C ,  7-C ) :  -0.1580 
B(  1-C , 12-O ) :  -0.1100 B(  1-C , 13-H ) :  -0.0575 B(  1-C , 14-C ) :  -0.1136 
B(  2-C ,  3-H ) :  -0.0592 B(  2-C ,  4-H ) :  -0.0536 B(  2-C ,  6-C ) :  -0.1580 
B(  2-C ,  7-C ) :   0.5149 B(  2-C , 10-H ) :  -0.0623 B(  2-C , 11-H ) :  -0.0697 
B(  2-C , 12-O ) :   0.6967 B(  2-C , 13-H ) :   0.8216 B(  2-C , 35-H ) :  -0.1151 
B(  5-C ,  6-C ) :   0.5300 B(  5-C ,  7-C ) :  -0.1575 B(  5-C ,  8-H ) :  -0.0730 
B(  5-C ,  9-H ) :  -0.0939 B(  5-C , 14-C ) :  -0.1993 B(  5-C , 15-C ) :   1.0620 
B(  5-C , 16-H ) :  -0.0996 B(  5-C , 17-H ) :  -0.0951 B(  6-C ,  7-C ) :   0.5526 
B(  6-C ,  8-H ) :   0.8228 B(  6-C ,  9-H ) :   0.7936 B(  6-C , 10-H ) :  -0.0741 
B(  6-C , 11-H ) :  -0.0561 B(  6-C , 15-C ) :  -0.1298 B(  7-C ,  9-H ) :  -0.0776 
B(  7-C , 10-H ) :   0.7763 B(  7-C , 11-H ) :   0.8043 B(  7-C , 12-O ) :  -0.1080 
B(  7-C , 13-H ) :  -0.0824 B( 12-O , 35-H ) :   0.6664 B( 14-C , 18-C ) :   0.6123 
B( 14-C , 19-H ) :   0.8212 B( 14-C , 20-C ) :  -0.1940 B( 14-C , 21-H ) :  -0.0737 
B( 15-C , 16-H ) :   0.8137 B( 15-C , 17-H ) :   0.8065 B( 18-C , 19-H ) :  -0.0601 
B( 18-C , 20-C ) :   0.9186 B( 18-C , 21-H ) :   0.8334 B( 18-C , 22-C ) :  -0.1509 
B( 18-C , 32-C ) :  -0.1498 B( 20-C , 21-H ) :  -0.0830 B( 20-C , 22-C ) :   0.5337 
B( 20-C , 23-C ) :  -0.1729 B( 20-C , 24-H ) :  -0.0673 B( 20-C , 25-H ) :  -0.0917 
B( 20-C , 29-C ) :  -0.1244 B( 20-C , 32-C ) :   0.5192 B( 20-C , 33-H ) :  -0.0912 
[...]
        0.0000         1.3963        0.0000
        0.0000         0.0000        1.3963

 Diagonalized JT*J matrix:
 
 J[55,60](FC)             1.396            1.396            1.396  iso=      1.396
                ---------------  ---------------  ---------------  ---------------
 J[55,60](Total)          1.396            1.396            1.396  iso=      1.396



-----------------------------------------------------------
 NUCLEUS A = C   56 NUCLEUS B = C   59 
 ( 13C  gnA =  1.405  13C  gnB =  1.405) r(AB) =     1.5313
-----------------------------------------------------------

Fermi-contact contribution to J (Hz):
       27.7496         0.0000        0.0000
        0.0000        27.7496        0.0000
        0.0000         0.0000       27.7496

Total spin-spin coupling tensor J (Hz):
       27.7496         0.0000        0.0000
        0.0000        27.7496        0.0000
        0.0000         0.0000       27.7496

 Diagonalized JT*J matrix:
 
 J[56,59](FC)            27.750           27.750           27.750  iso=     27.750
                ---------------  ---------------  ---------------  ---------------
 J[56,59](Total)         27.750           27.750           27.750  iso=     27.750



-----------------------------------------------------------
 NUCLEUS A = C   56 NUCLEUS B = C   60 
 ( 13C  gnA =  1.405  13C  gnB =  1.405) r(AB) =     1.5314
-----------------------------------------------------------

Fermi-contact contribution to J (Hz):
       26.7921         0.0000        0.0000
        0.0000        26.7921        0.0000
        0.0000         0.0000       26.7921

Total spin-spin coupling tensor J (Hz):
       26.7921         0.0000        0.0000
        0.0000        26.7921        0.0000
        0.0000         0.0000       26.7921

 Diagonalized JT*J matrix:
 
 J[56,60](FC)            26.792           26.792           26.792  iso=     26.792
                ---------------  ---------------  ---------------  ---------------
 J[56,60](Total)         26.792           26.792           26.792  iso=     26.792



-----------------------------------------------------------
 NUCLEUS A = C   59 NUCLEUS B = C   60 
 ( 13C  gnA =  1.405  13C  gnB =  1.405) r(AB) =     2.5054
-----------------------------------------------------------

Fermi-contact contribution to J (Hz):
       -0.9675         0.0000        0.0000
        0.0000        -0.9675        0.0000
        0.0000         0.0000       -0.9675

Total spin-spin coupling tensor J (Hz):
       -0.9675         0.0000        0.0000
        0.0000        -0.9675        0.0000
        0.0000         0.0000       -0.9675

 Diagonalized JT*J matrix:
 
 J[59,60](FC)            -0.968           -0.968           -0.968  iso=     -0.968
                ---------------  ---------------  ---------------  ---------------
 J[59,60](Total)         -0.968           -0.968           -0.968  iso=     -0.968



-----------------------------------------------------------------------------
                SUMMARY OF ISOTROPIC COUPLING CONSTANTS J (Hz)                
-----------------------------------------------------------------------------
                  0 C        1 C        2 C        5 C        6 C        7 C  
      0 C        0.000     33.098     -3.750     41.289     -0.889      2.286
      1 C       33.098      0.000     23.417     -1.196      1.439     -0.659
      2 C       -3.750     23.417      0.000      2.288     -2.760     25.794
      5 C       41.289     -1.196      2.288      0.000     30.343     -2.774
      6 C       -0.889      1.439     -2.760     30.343      0.000     24.777
      7 C        2.286     -0.659     25.794     -2.774     24.777      0.000
     14 C       69.393     -0.359      2.837     -3.017      2.182     -0.622
     15 C       -3.412      2.415     -0.864     64.585     -1.087      2.601
     18 C       -2.399      4.172     -1.094      3.182     -0.813      0.191
     20 C        6.804     -1.098      1.083     -1.387      0.605     -0.102
     22 C       -0.919      0.326     -0.329      0.423     -0.182      0.037
     23 C        0.824     -0.286      0.281     -0.343      0.153      0.000
     26 C       -0.094      0.039      0.000      0.049      0.000      0.000
     29 C        1.156     -0.363      0.000     -0.446      0.207      0.000
     32 C       -1.120      0.544     -0.374      0.472     -0.215      0.044
     34 C        0.022     -0.015      0.013     -0.015      0.006     -0.001
     36 C       -0.016      0.000      0.000      0.016     -0.008      0.000
     39 C       -0.072      0.000      0.000      0.031      0.000      0.000
     43 C        0.000      0.000      0.000      0.000      0.000      0.000
     44 C        0.009     -0.003      0.000     -0.002     -0.004      0.000
     49 C        0.000      0.000      0.000      0.000      0.000      0.000
     50 C        0.000      0.000      0.000      0.000      0.000      0.000
     51 C        0.000      0.000      0.000      0.000      0.000      0.000
     54 C        0.000      0.000      0.000      0.000      0.000      0.000
     55 C        0.000      0.000      0.000      0.000      0.000      0.000
     56 C        0.000      0.000      0.000      0.000      0.000      0.000
     59 C        0.000      0.000      0.000      0.000      0.000      0.000
     60 C        0.000      0.000      0.000      0.000      0.000      0.000
                 14 C       15 C       18 C       20 C       22 C       23 C  
      0 C       69.393     -3.412     -2.399      6.804     -0.919      0.824
      1 C       -0.359      2.415      4.172     -1.098      0.326     -0.286
      2 C        2.837     -0.864     -1.094      1.083     -0.329      0.281
      5 C       -3.017     64.585      3.182     -1.387      0.423     -0.343
      6 C        2.182     -1.087     -0.813      0.605     -0.182      0.153
      7 C       -0.622      2.601      0.191     -0.102      0.037      0.000
     14 C        0.000      3.105     54.118     -2.623      3.800     -0.923
     15 C        3.105      0.000     -1.143      1.008     -0.271      0.253
     18 C       54.118     -1.143      0.000     69.990     -2.141      2.360
     20 C       -2.623      1.008     69.990      0.000     32.143     -2.972
     22 C        3.800     -0.271     -2.141     32.143      0.000     24.191
     23 C       -0.923      0.253      2.360     -2.972     24.191      0.000
     26 C        0.137     -0.034     -0.351      1.025     -1.921     25.410
     29 C       -1.126      0.323      2.265     -2.421      1.055     -2.215
     32 C        4.383     -0.316     -1.297     36.865     -0.192      1.537
     34 C        0.066      0.003      2.456     -1.350      1.618     -0.266
     36 C        0.015     -0.014     -0.155      3.487      0.075      0.156
     39 C        0.258     -0.024     -0.053      2.931     -0.335      2.542
     43 C        0.008      0.017      0.276      0.206     -0.004     -0.111
     44 C        0.006      0.027     -0.052      0.699     -0.135      0.586
     49 C       -0.002      0.000     -0.009     -0.031      0.144      0.054
     50 C        0.000      0.000      0.004      0.209     -0.006      0.117
     51 C        0.000      0.000      0.000      0.068     -0.004      0.002
     54 C        0.000      0.000      0.000      0.000      0.000      0.000
     55 C        0.000      0.000      0.000      0.000      0.000      0.000
     56 C        0.000      0.000      0.000      0.000      0.000      0.000
     59 C        0.000      0.000      0.000     -0.001      0.000      0.000
     60 C        0.000      0.000      0.000      0.000      0.000      0.000
                 26 C       29 C       32 C       34 C       36 C       39 C  
      0 C       -0.094      1.156     -1.120      0.022     -0.016     -0.072
      1 C        0.039     -0.363      0.544     -0.015      0.000      0.000
      2 C        0.000      0.000     -0.374      0.013      0.000      0.000
      5 C        0.049     -0.446      0.472     -0.015      0.016      0.031
      6 C        0.000      0.207     -0.215      0.006     -0.008      0.000
      7 C        0.000      0.000      0.044     -0.001      0.000      0.000
     14 C        0.137     -1.126      4.383      0.066      0.015      0.258
     15 C       -0.034      0.323     -0.316      0.003     -0.014     -0.024
     18 C       -0.351      2.265     -1.297      2.456     -0.155     -0.053
     20 C        1.025     -2.421     36.865     -1.350      3.487      2.931
     22 C       -1.921      1.055     -0.192      1.618      0.075     -0.335
     23 C       25.410     -2.215      1.537     -0.266      0.156      2.542
     26 C        0.000     27.869     -0.918      2.274      3.014     -0.542
     29 C       27.869      0.000     23.073      0.925      0.721     28.000
     32 C       -0.918     23.073      0.000     28.040      1.225      3.433
     34 C        2.274      0.925     28.040      0.000     26.086      0.018
     36 C        3.014      0.721      1.225     26.086      0.000     26.392
     39 C       -0.542     28.000      3.433      0.018     26.392      0.000
     43 C       -0.020     -0.672      2.830      1.558     -0.033     27.641
     44 C       -0.588     27.206     -0.993      0.810      0.295     -1.250
     49 C        0.439      0.100     -0.004      0.061      3.255     -0.998
     50 C       -0.070      3.011      0.005      0.102      1.419     -2.864
     51 C       -0.017      0.165      0.155     -0.036      0.089      2.890
     54 C       -0.002      0.099     -0.034      0.014     -0.000     -0.817
     55 C       -0.004      0.040      0.000     -0.006      0.008      1.008
     56 C       -0.008      0.116      0.058     -0.008      0.031      1.157
     59 C        0.001     -0.010      0.000      0.002     -0.009     -0.031
     60 C        0.000      0.000      0.000      0.000      0.003      0.091
                 43 C       44 C       49 C       50 C       51 C       54 C  
      0 C        0.000      0.009      0.000      0.000      0.000      0.000
      1 C        0.000     -0.003      0.000      0.000      0.000      0.000
      2 C        0.000      0.000      0.000      0.000      0.000      0.000
      5 C        0.000     -0.002      0.000      0.000      0.000      0.000
      6 C        0.000     -0.004      0.000      0.000      0.000      0.000
      7 C        0.000      0.000      0.000      0.000      0.000      0.000
     14 C        0.008      0.006     -0.002      0.000      0.000      0.000
     15 C        0.017      0.027      0.000      0.000      0.000      0.000
     18 C        0.276     -0.052     -0.009      0.004      0.000      0.000
     20 C        0.206      0.699     -0.031      0.209      0.068      0.000
     22 C       -0.004     -0.135      0.144     -0.006     -0.004      0.000
     23 C       -0.111      0.586      0.054      0.117      0.002      0.000
     26 C       -0.020     -0.588      0.439     -0.070     -0.017     -0.002
     29 C       -0.672     27.206      0.100      3.011      0.165      0.099
     32 C        2.830     -0.993     -0.004      0.005      0.155     -0.034
     34 C        1.558      0.810      0.061      0.102     -0.036      0.014
     36 C       -0.033      0.295      3.255      1.419      0.089     -0.000
     39 C       27.641     -1.250     -0.998     -2.864      2.890     -0.817
     43 C        0.000      1.445     27.207     35.718     -1.518      3.767
     44 C        1.445      0.000     -0.052     -0.099      0.080      0.008
     49 C       27.207     -0.052      0.000     -1.977      3.174     -0.082
     50 C       35.718     -0.099     -1.977      0.000     69.298     -0.435
     51 C       -1.518      0.080      3.174     69.298      0.000     36.811
     54 C        3.767      0.008     -0.082     -0.435     36.811      0.000
     55 C       -0.692      0.002      0.060      3.461     -2.567     26.846
     56 C       -0.549     -0.008      0.050      3.340     -1.842     26.148
     59 C       -0.039      0.004      0.004     -0.031      0.747     -0.549
     60 C        0.095      0.000      0.019      0.122      3.386     -0.599
                 55 C       56 C       59 C       60 C  
      0 C        0.000      0.000      0.000      0.000
      1 C        0.000      0.000      0.000      0.000
      2 C        0.000      0.000      0.000      0.000
      5 C        0.000      0.000      0.000      0.000
      6 C        0.000      0.000      0.000      0.000
      7 C        0.000      0.000      0.000      0.000
     14 C        0.000      0.000      0.000      0.000
     15 C        0.000      0.000      0.000      0.000
     18 C        0.000      0.000      0.000      0.000
     20 C        0.000      0.000     -0.001      0.000
     22 C        0.000      0.000      0.000      0.000
     23 C        0.000      0.000      0.000      0.000
     26 C       -0.004     -0.008      0.001      0.000
     29 C        0.040      0.116     -0.010      0.000
     32 C        0.000      0.058      0.000      0.000
     34 C       -0.006     -0.008      0.002      0.000
     36 C        0.008      0.031     -0.009      0.003
     39 C        1.008      1.157     -0.031      0.091
     43 C       -0.692     -0.549     -0.039      0.095
     44 C        0.002     -0.008      0.004      0.000
     49 C        0.060      0.050      0.004      0.019
     50 C        3.461      3.340     -0.031      0.122
     51 C       -2.567     -1.842      0.747      3.386
     54 C       26.846     26.148     -0.549     -0.599
     55 C        0.000     -1.180      2.622      1.396
     56 C       -1.180      0.000     27.750     26.792
     59 C        2.622     27.750      0.000     -0.968
     60 C        1.396     26.792     -0.968      0.000

NMR spin-spin coupling calculation done in   0.2 sec 

Maximum memory used throughout the entire PROP-calculation: 34.2 MB

--------------------------------
SUGGESTED CITATIONS FOR THIS RUN
--------------------------------

Below you find a list of papers that are relevant to this ORCA run
We neither can nor want to force you to cite these papers, but we appreciate if you do
You receive ORCA, which is the product of decades of hard work by many enthusiastic individuals, for free
The only thing we kindly ask in return is that you cite our papers,
We deeply appreciate it, if you show your appreciation for ORCA by not just citing the generic ORCA reference.

Please note that relegating all ORCA citations to the supporting information does *not* help us.
SI sections are not indexed - citations you put there will not count into any citation statistics
But we need these citations in order to attract the funding resources that allow us to do what we are doing

Therefore, if you are a happy ORCA user, please consider citing a few of the papers listed below in the main body of your paper

In addition to the list printed below, the program has created the file inpJ.bibtex that contains the list in bibtex format
You can import this file easily into all common literature databanks and citation aid programs


List of essential papers. We consider these as the minimum necessary citations

  1. Neese,F.
     Software update: the ORCA program system, version 5.0
     WIRES Comput. Molec. Sci., 2022 12(1)e1606
     doi.org/10.1002/wcms.1606

List of papers to cite with high priority. The work reported in these papers was absolutely
necessary for this run to complete.
Our perspective: the developers of density functionals and basis sets usually get cited in chemistry papers
Good! But without the algorithms to do something with them, the functionals or basis sets would not do anything.
Hence, in our opinion, the algorithm design and method developments papers are equally worthy of getting cited

  1. Neese,F.
     An improvement of the resolution of the identity approximation for the formation of the Coulomb matrix
     J. Comp. Chem., 2003 24(14)1740-1747
     doi.org/10.1002/jcc.10318
  2. Neese,F.; Wennmohs,F.; Hansen,A.; Becker,U.
     Efficient, approximate and parallel Hartree-Fock and hybrid DFT calculations. A 'chain-of-spheres' algorithm for the Hartree-Fock exchange
     Chem. Phys., 2009 356(1-3)98-109
     doi.org/10.1016/j.chemphys.2008.10.036
  3. Stoychev,G.L.; Auer,A.A.; Izsak,R.; Neese,F.
     Self-Consistent Field Calculation of Nuclear Magnetic Resonance Chemical Shielding Constants Using Gauge-Including Atomic Orbitals and Approximate Two-Electron Integrals
     J. Chem. Theory Comput., 2018 14(2)619-637
     doi.org/10.1021/acs.jctc.7b01006
  4. Garcia-Rates,M.; Neese,F.
     Effect of the Solute Cavity on the Solvation Energy and its Derivatives within the Framework of the Gaussian Charge Scheme
     J. Comput. Chem., 2020 41 922-939
     doi.org/10.1002/jcc.26139
  5. Helmich-Paris,B.; de Souza,B.; Neese,F.; Izsák,R.
     An improved chain of spheres for exchange algorithm
     J. Chem. Phys., 2021 155 104109
     doi.org/doi: 10.1063/5.0058766.
  6. Neese,F.
     The SHARK Integral Generation and Digestion System
     J. Comp. Chem., 2022  1-16
     doi.org/10.1002/jcc.26942
  7. Grimme,S.; Bannwarth,C.; Dohm,S.; Hansen,A.; Pisarek,J.; Pracht,P.; Seibert,J.; Neese,F.
     Fully Automated Quantum-Chemistry-Based Computation of Spin-Spin-Coupled Nuclear Magnetic Resonance Spectra
     Angew. Chem., Int. Ed., 2017 56 14763-14769
     doi.org/10.1002/anie.201708266
  8. Caldeweyher,E.; Bannwarth,C.; Grimme,S.
     Extension of the D3 dispersion coefficient model
     J. Chem. Phys., 2017 147 034112-XXXX
     doi.org/10.1063/1.4993215
  9. Caldeweyher,E.; Ehlert,S.; Hansen,A.; Neugebauer,H.; Spicher,S.; Bannwarth,C.; Grimme,S.
     A generally applicable atomic-charge dependent London dispersion correction
     J. Chem. Phys., 2019 150 154122-XXXX
     doi.org/10.1063/1.5090222
 10. Caldeweyher,E.; Mewes,J.; Ehlert,S.; Grimme,S.
     Extension and evaluation of the D4 London-dispersion model for periodic systems
     Phys. Chem. Chem. Phys., 2020 22(16)8499-8512
     doi.org/10.1039/D0CP00502A

List of suggested additional citations. These are papers that are important in the 'surrounding' of 
of this run, or papers that preceded the highly important papers. If you like your results we are grateful for a citation.

  1. Izsak,R.; Neese,F.
     An overlap fitted chain of spheres exchange method
     J. Chem. Phys., 2011 135 144105
     doi.org/10.1063/1.3646921
  2. Izsak,R.; Hansen,A.; Neese,F.
     The resolution of identity and chain of spheres approximations for the LPNO-CCSD singles Fock term
     Molec. Phys., 2012 110 2413-2417
     doi.org/10.1080/00268976.2012.687466
  3. Neese,F.
     The ORCA program system
     WIRES Comput. Molec. Sci., 2012 2(1)73-78
     doi.org/10.1002/wcms.81
  4. Izsak,R.; Neese,F.; Klopper,W.
     Robust fitting techniques in the chain of spheres approximation to the Fock exchange: The role of the complementary space
     J. Chem. Phys., 2013 139 
     doi.org/10.1063/1.4819264
  5. Neese,F.
     Software update: the ORCA program system, version 4.0
     WIRES Comput. Molec. Sci., 2018 8(1)1-6
     doi.org/10.1002/wcms.1327
  6. Neese,F.; Wennmohs,F.; Becker,U.; Riplinger,C.
     The ORCA quantum chemistry program package
     J. Chem. Phys., 2020 152 Art. No. L224108
     doi.org/10.1063/5.0004608

Timings for individual modules:

Sum of individual times          ...      136.220 sec (=   2.270 min)
Startup calculation              ...        3.862 sec (=   0.064 min)   2.8 %
SCF iterations                   ...       18.843 sec (=   0.314 min)  13.8 %
Property integrals               ...        0.652 sec (=   0.011 min)   0.5 %
SCF Response                     ...      112.337 sec (=   1.872 min)  82.5 %
Property calculations            ...        0.526 sec (=   0.009 min)   0.4 %
                             ****ORCA TERMINATED NORMALLY****
TOTAL RUN TIME: 0 days 0 hours 2 minutes 16 seconds 540 msec
