
                                 *****************
                                 * O   R   C   A *
                                 *****************

                                            #,                                       
                                            ###                                      
                                            ####                                     
                                            #####                                    
                                            ######                                   
                                           ########,                                 
                                     ,,################,,,,,                         
                               ,,#################################,,                 
                          ,,##########################################,,             
                       ,#########################################, ''#####,          
                    ,#############################################,,   '####,        
                  ,##################################################,,,,####,       
                ,###########''''           ''''###############################       
              ,#####''   ,,,,##########,,,,          '''####'''          '####       
            ,##' ,,,,###########################,,,                        '##       
           ' ,,###''''                  '''############,,,                           
         ,,##''                                '''############,,,,        ,,,,,,###''
      ,#''                                            '''#######################'''  
     '                                                          ''''####''''         
             ,#######,   #######,   ,#######,      ##                                
            ,#'     '#,  ##    ##  ,#'     '#,    #''#        ,####,   ,####,        
            ##       ##  ##   ,#'  ##            #'  '#       #'       #'  '#        
            ##       ##  #######   ##           ,######,      #####,   #    #        
            '#,     ,#'  ##    ##  '#,     ,#' ,#      #,     #,   #   #,  ,#        
             '#######'   ##     ##  '#######'  #'      '#     '####' # '####'        



                #########################################################
                #                        -***-                          #
                #          Department of theory and spectroscopy        #
                #                                                       #
                #                      Frank Neese                      #
                #                                                       #
                #     Directorship, Architecture, Infrastructure        #
                #                    SHARK, DRIVERS                     #
                #        Core code/Algorithms in most modules           #
                #                                                       #
                #        Max Planck Institute fuer Kohlenforschung      #
                #                Kaiser Wilhelm Platz 1                 #
                #                 D-45470 Muelheim/Ruhr                 #
                #                      Germany                          #
                #                                                       #
                #                  All rights reserved                  #
                #                        -***-                          #
                #########################################################


                         Program Version 6.0.0  -   RELEASE  -


 With contributions from (in alphabetic order):
   Daniel Aravena         : Magnetic Suceptibility
   Michael Atanasov       : Ab Initio Ligand Field Theory (pilot matlab implementation)
   Alexander A. Auer      : GIAO ZORA, VPT2 properties, NMR spectrum
   Ute Becker             : All parallelization in ORCA, NUMFREQ, NUMCALC
   Giovanni Bistoni       : ED, misc. LED, open-shell LED, HFLD
   Martin Brehm           : Molecular dynamics
   Dmytro Bykov           : pre 5.0 version of the SCF Hessian
   Marcos Casanova-Páez   : Triplet and SCS-CIS(D). UHF-(DLPNO)-IP/EA/STEOM-CCSD. UHF-CVS-IP/STEOM-CCSD
   Vijay G. Chilkuri      : MRCI spin determinant printing, contributions to CSF-ICE
   Pauline Colinet        : FMM embedding
   Dipayan Datta          : RHF DLPNO-CCSD density
   Achintya Kumar Dutta   : EOM-CC, STEOM-CC
   Nicolas Foglia         : Exact transition moments, OPA infrastructure, MCD improvements
   Dmitry Ganyushin       : Spin-Orbit,Spin-Spin,Magnetic field MRCI
   Miquel Garcia          : C-PCM and meta-GGA Hessian, CCSD/C-PCM, Gaussian charge scheme
   Tiago L. C. Gouveia    : GS-ROHF, GS-ROCIS
   Yang Guo               : DLPNO-NEVPT2, F12-NEVPT2, CIM, IAO-localization
   Andreas Hansen         : Spin unrestricted coupled pair/coupled cluster methods
   Ingolf Harden          : AUTO-CI MPn and infrastructure 
   Benjamin Helmich-Paris : MC-RPA, TRAH-(SCF,CASSCF), AVAS, COSX integrals, SCF dyn. polar.
   Lee Huntington         : MR-EOM, pCC
   Robert Izsak           : Overlap fitted RIJCOSX, COSX-SCS-MP3, EOM
   Riya Kayal             : Wick's Theorem for AUTO-CI, AUTO-CI UHF-CCSDT
   Emily Kempfer          : AUTO-CI, RHF CISDT and CCSDT
   Christian Kollmar      : KDIIS, OOCD, Brueckner-CCSD(T), CCSD density, CASPT2, CASPT2-K, improved NEVPT2
   Axel Koslowski         : Symmetry handling
   Simone Kossmann        : Meta GGA functionals, TD-DFT gradient, OOMP2, (MP2 Hessian; deprecated post 5.0)
   Lucas Lang             : DCDCAS
   Marvin Lechner         : AUTO-CI (C++ implementation), FIC-MRCC
   Spencer Leger          : CASSCF response
   Dagmar Lenk            : GEPOL surface, SMD, ORCA-2-JSON
   Dimitrios Liakos       : Extrapolation schemes; Compound Job, initial MDCI parallelization
   Dimitrios Manganas     : Further ROCIS development; embedding schemes. LFT, Crystal Embedding
   Dimitrios Pantazis     : SARC Basis sets
   Anastasios Papadopoulos: AUTO-CI, single reference methods and gradients
   Taras Petrenko         : pre 6.0 DFT Hessian and TD-DFT gradient, (ASA, deprecated), ECA, 1-Electron XAS/XES, NRVS
   Peter Pinski           : DLPNO-MP2, DLPNO-MP2 Gradient
   Christoph Reimann      : Effective Core Potentials
   Marius Retegan         : Local ZFS, SOC
   Christoph Riplinger    : Optimizer, TS searches, QM/MM, DLPNO-CCSD(T), (RO)-DLPNO pert. Triples
   Michael Roemelt        : Original ROCIS implementation
   Masaaki Saitow         : Open-shell DLPNO-CCSD energy and density
   Barbara Sandhoefer     : DKH picture change effects
   Kantharuban Sivalingam : CASSCF convergence/infrastructure, NEVPT2 and variants, FIC-MRCI
   Bernardo de Souza      : ESD, SOC TD-DFT
   Georgi Stoychev        : AutoAux, RI-MP2 NMR, DLPNO-MP2 response, X2C
   Van Anh Tran           : RI-MP2 g-tensors
   Willem Van den Heuvel  : Paramagnetic NMR
   Zikuan Wang            : NOTCH, Electric field optimization 
   Frank Wennmohs         : Technical directorship and infrastructure
   Hang Xu                : AUTO-CI-Response properties 


 We gratefully acknowledge several colleagues who have allowed us to
 interface, adapt or use parts of their codes:
   Stefan Grimme, W. Hujo, H. Kruse, P. Pracht,  : VdW corrections, initial TS optimization,
                  C. Bannwarth, S. Ehlert,         DFT functionals, gCP, sTDA/sTD-DF
                  L. Wittmann, M. Mueller
   Ed Valeev, F. Pavosevic, A. Kumar             : LibInt (2-el integral package), F12 methods
   Garnet Chan, S. Sharma, J. Yang, R. Olivares  : DMRG
   Ulf Ekstrom                                   : XCFun DFT Library
   Mihaly Kallay                                 : mrcc  (arbitrary order and MRCC methods)
   Frank Weinhold                                : gennbo (NPA and NBO analysis)
   Simon Mueller                                 : openCOSMO-RS
   Christopher J. Cramer and Donald G. Truhlar   : smd solvation model
   Lars Goerigk                                  : TD-DFT with DH, B97 family of functionals
   V. Asgeirsson, H. Jonsson                     : NEB implementation
   FAccTs GmbH                                   : IRC, NEB, NEB-TS, DLPNO-Multilevel, CI-OPT
                                                   MM, QMMM, 2- and 3-layer-ONIOM, Crystal-QMMM,
                                                   LR-CPCM, SF, NACMEs, symmetry and pop. for TD-DFT,
                                                   nearIR, NL-DFT gradient (VV10), updates on ESD,
                                                   ML-optimized integration grids, MBIS, APM,
                                                   GOAT, DOCKER, SOLVATOR, interface openCOSMO-RS
   S Lehtola, MJT Oliveira, MAL Marques          : LibXC Library
   Liviu Ungur et al                             : ANISO software


 Your calculation uses the libint2 library for the computation of 2-el integrals
 For citations please refer to: http://libint.valeyev.net

 Your ORCA version has been built with support for libXC version: 6.2.2
 For citations please refer to: https://libxc.gitlab.io

 This ORCA versions uses:
   CBLAS   interface :  Fast vector & matrix operations
   LAPACKE interface :  Fast linear algebra routines
   SCALAPACK package :  Parallel linear algebra routines
   Shared memory     :  Shared parallel matrices
   BLAS/LAPACK       :  OpenBLAS 0.3.27  USE64BITINT DYNAMIC_ARCH NO_AFFINITY Zen SINGLE_THREADED
        Core in use  :  Zen
   Copyright (c) 2011-2014, The OpenBLAS Project


NOTE: MaxCore=8000 MB was set to SCF,MP2,MDCI,CIPSI,MRCI and CIS
      => If you want to overwrite this, your respective input block should be placed after the MaxCore statement
Your calculation utilizes the atom-pairwise dispersion correction
based on EEQ partial charges (D4)


================================================================================

----- Orbital basis set information -----
Your calculation utilizes the basis: def2-SVP
   F. Weigend and R. Ahlrichs, Phys. Chem. Chem. Phys. 7, 3297 (2005).

----- AuxJ basis set information -----
Your calculation utilizes the auxiliary basis: def2/J
   F. Weigend, Phys. Chem. Chem. Phys. 8, 1057 (2006).

================================================================================
                                        WARNINGS
                       Please study these warnings very carefully!
================================================================================

WARNING: Old DensityContainer found on disk!
         Will remove this file - 
         If you want to keep old densities, please start your calculation with a different basename. 


================================================================================
                                       INPUT FILE
================================================================================
NAME = inpS
|  1> ! wb97x-d4
|  2> ! def2-svp
|  3> ! def2/J RIJCOSX
|  4> ! DEFGRID2
|  5> ! scfconv7
|  6> ! smallprint printgap noloewdin
|  7> ! NOSOSCF
|  8> %MaxCore 8000
|  9> %output
| 10>        print[P_BondOrder_M] 1
| 11>        print[P_Mayer] 1
| 12>        print[P_basis] 2
| 13> end
| 14> %pal
| 15>     nprocs 4
| 16> end
| 17> ! CPCM(chloroform)
| 18> *xyz 0 1
| 19> C   -4.9403425600   0.2388672000  -0.4050174500
| 20> C   -6.3989112800  -0.1354880400  -0.5242872600
| 21> C   -7.2636987600   0.7916007400   0.3393859000
| 22> H   -6.5564905000  -1.1788623100  -0.2284683400
| 23> H   -6.7277657200  -0.0254054000  -1.5683173200
| 24> C   -4.6596652300   1.6620504100  -0.6970938500
| 25> C   -5.5499997200   2.6385181500   0.0393468500
| 26> C   -7.0322244500   2.2503685700  -0.0584011700
| 27> H   -5.3921821700   3.6542025000  -0.3388246900
| 28> H   -5.2557695600   2.6416656800   1.0999565400
| 29> H   -7.3800836600   2.3858575600  -1.0915707300
| 30> H   -7.6354128400   2.9045211700   0.5817466500
| 31> O   -7.0034976000   0.5739074800   1.7359856800
| 32> H   -8.3221032400   0.5383663200   0.2013498700
| 33> C   -4.0157731600  -0.6625612100   0.0035326000
| 34> C   -3.7262264000   2.0595626400  -1.5686568100
| 35> H   -3.1082946300   1.3420269600  -2.1019357500
| 36> H   -3.5670785700   3.1153743400  -1.7750305800
| 37> C   -2.6181378700  -0.3954728300   0.2550606300
| 38> H   -4.3766887000  -1.6738187600   0.1873217700
| 39> C   -1.6699639500  -1.3065427300   0.5604788800
| 40> H   -2.3189542700   0.6488168500   0.1994730400
| 41> C   -1.8790555400  -2.7964620800   0.6529257400
| 42> C   -0.9073808100  -3.5599767100  -0.2677267400
| 43> H   -2.9079631500  -3.0876848700   0.4252405500
| 44> H   -1.6783308800  -3.1027673700   1.6918676100
| 45> C    0.5539422300  -3.1362307600  -0.0672219700
| 46> H   -1.2020121600  -3.3960756300  -1.3120328900
| 47> H   -1.0060834200  -4.6363657800  -0.0811247600
| 48> C    0.7337816200  -1.6180074400  -0.2044771800
| 49> H    1.1810588900  -3.6787404100  -0.7819063800
| 50> H    0.8825077600  -3.4352565700   0.9395788800
| 51> C   -0.2396940000  -0.9392029300   0.8124968000
| 52> H    0.0283983800  -1.3823234100   1.7890606900
| 53> C    0.2066982200   0.5192406400   0.8407346900
| 54> H   -6.0459336700   0.4872896300   1.8460133900
| 55> C    1.7444798300   0.4331353600   0.6797551100
| 56> H   -0.0972629900   1.0244902600   1.7633412300
| 57> H   -0.2330708900   1.0775684100   0.0069184300
| 58> C    2.0850469400  -1.0408217100   0.3026629800
| 59> H    2.2662106400   0.7267662200   1.5962186600
| 60> H    2.0858158300   1.1148737900  -0.1084344100
| 61> H    2.3345752600  -1.5880609100   1.2262950800
| 62> C    3.3285407100  -1.1353642300  -0.6152096000
| 63> C    0.4430601200  -1.1525090000  -1.6376535800
| 64> H    0.6761390300  -0.0914157900  -1.7719926500
| 65> H   -0.6110804000  -1.2896947700  -1.8979492400
| 66> H    1.0439683900  -1.7182167300  -2.3581024300
| 67> H    3.0967998100  -0.5646254500  -1.5295084600
| 68> C    3.6753115100  -2.5676240500  -1.0196722800
| 69> C    4.4781815300  -0.4270745500   0.0619761300
| 70> C    5.5704927200  -0.9900076800   0.5778667700
| 71> H    4.3691667800   0.6543569200   0.1630193800
| 72> H    5.7170861900  -2.0703897300   0.5051970700
| 73> C    6.6735344700  -0.2461627600   1.2784610900
| 74> C    7.9939030200  -0.4702750000   0.5247690900
| 75> C    6.7662954900  -0.6728410100   2.7653859000
| 76> H    6.4352388700   0.8294411500   1.2581688300
| 77> H    6.9363049100  -1.7618354900   2.7817548300
| 78> C    5.4570162500  -0.3780398100   3.5028823500
| 79> C    7.9327497100   0.0060003600   3.4891928000
| 80> H    8.3095655300  -1.5182380100   0.6052100700
| 81> H    8.7989275100   0.1588289300   0.9154477600
| 82> H    7.8698714200  -0.2366981000  -0.5377438200
| 83> H    4.6074182500  -0.8880559000   3.0387617900
| 84> H    5.2476183900   0.6998054300   3.4902909400
| 85> H    5.5203893300  -0.6954382400   4.5495133200
| 86> H    8.9047175500  -0.2962952600   3.0893261200
| 87> H    7.9190969800  -0.2475606600   4.5549647500
| 88> H    7.8538998700   1.0977557900   3.4044506100
| 89> H    2.9174018900  -2.9828121100  -1.6869991600
| 90> H    3.7492729400  -3.2238772800  -0.1444339300
| 91> H    4.6351792700  -2.5965260100  -1.5465689600
| 92> *
| 93> %eprnmr
| 94>  Nuclei = all C { shift }
| 95>  origin giao
| 96>  giao_2el giao_2el_same_as_scf
| 97>  giao_1el giao_1el_analytic
| 98> end
| 99> 
|100>                          ****END OF INPUT****
================================================================================

                       ****************************
                       * Single Point Calculation *
                       ****************************

---------------------------------
CARTESIAN COORDINATES (ANGSTROEM)
---------------------------------
  C     -4.940343    0.238867   -0.405017
  C     -6.398911   -0.135488   -0.524287
  C     -7.263699    0.791601    0.339386
  H     -6.556490   -1.178862   -0.228468
  H     -6.727766   -0.025405   -1.568317
  C     -4.659665    1.662050   -0.697094
  C     -5.550000    2.638518    0.039347
  C     -7.032224    2.250369   -0.058401
  H     -5.392182    3.654202   -0.338825
  H     -5.255770    2.641666    1.099957
  H     -7.380084    2.385858   -1.091571
  H     -7.635413    2.904521    0.581747
  O     -7.003498    0.573907    1.735986
  H     -8.322103    0.538366    0.201350
  C     -4.015773   -0.662561    0.003533
  C     -3.726226    2.059563   -1.568657
  H     -3.108295    1.342027   -2.101936
  H     -3.567079    3.115374   -1.775031
  C     -2.618138   -0.395473    0.255061
  H     -4.376689   -1.673819    0.187322
  C     -1.669964   -1.306543    0.560479
  H     -2.318954    0.648817    0.199473
  C     -1.879056   -2.796462    0.652926
  C     -0.907381   -3.559977   -0.267727
  H     -2.907963   -3.087685    0.425241
  H     -1.678331   -3.102767    1.691868
  C      0.553942   -3.136231   -0.067222
  H     -1.202012   -3.396076   -1.312033
  H     -1.006083   -4.636366   -0.081125
  C      0.733782   -1.618007   -0.204477
  H      1.181059   -3.678740   -0.781906
  H      0.882508   -3.435257    0.939579
  C     -0.239694   -0.939203    0.812497
  H      0.028398   -1.382323    1.789061
  C      0.206698    0.519241    0.840735
  H     -6.045934    0.487290    1.846013
  C      1.744480    0.433135    0.679755
  H     -0.097263    1.024490    1.763341
  H     -0.233071    1.077568    0.006918
  C      2.085047   -1.040822    0.302663
  H      2.266211    0.726766    1.596219
  H      2.085816    1.114874   -0.108434
  H      2.334575   -1.588061    1.226295
  C      3.328541   -1.135364   -0.615210
  C      0.443060   -1.152509   -1.637654
  H      0.676139   -0.091416   -1.771993
  H     -0.611080   -1.289695   -1.897949
  H      1.043968   -1.718217   -2.358102
  H      3.096800   -0.564625   -1.529508
  C      3.675312   -2.567624   -1.019672
  C      4.478182   -0.427075    0.061976
  C      5.570493   -0.990008    0.577867
  H      4.369167    0.654357    0.163019
  H      5.717086   -2.070390    0.505197
  C      6.673534   -0.246163    1.278461
  C      7.993903   -0.470275    0.524769
  C      6.766295   -0.672841    2.765386
  H      6.435239    0.829441    1.258169
  H      6.936305   -1.761835    2.781755
  C      5.457016   -0.378040    3.502882
  C      7.932750    0.006000    3.489193
  H      8.309566   -1.518238    0.605210
  H      8.798928    0.158829    0.915448
  H      7.869871   -0.236698   -0.537744
  H      4.607418   -0.888056    3.038762
  H      5.247618    0.699805    3.490291
  H      5.520389   -0.695438    4.549513
  H      8.904718   -0.296295    3.089326
  H      7.919097   -0.247561    4.554965
  H      7.853900    1.097756    3.404451
  H      2.917402   -2.982812   -1.686999
  H      3.749273   -3.223877   -0.144434
  H      4.635179   -2.596526   -1.546569

----------------------------
CARTESIAN COORDINATES (A.U.)
----------------------------
  NO LB      ZA    FRAG     MASS         X           Y           Z
   0 C     6.0000    0    12.011   -9.335894    0.451394   -0.765372
   1 C     6.0000    0    12.011  -12.092190   -0.256035   -0.990759
   2 C     6.0000    0    12.011  -13.726401    1.495909    0.641346
   3 H     1.0000    0     1.008  -12.389971   -2.227727   -0.431743
   4 H     1.0000    0     1.008  -12.713635   -0.048009   -2.963690
   5 C     6.0000    0    12.011   -8.805491    3.140820   -1.317316
   6 C     6.0000    0    12.011  -10.487980    4.986077    0.074355
   7 C     6.0000    0    12.011  -13.288978    4.252580   -0.110362
   8 H     1.0000    0     1.008  -10.189748    6.905442   -0.640286
   9 H     1.0000    0     1.008   -9.931965    4.992025    2.078617
  10 H     1.0000    0     1.008  -13.946337    4.508617   -2.062770
  11 H     1.0000    0     1.008  -14.428839    5.488750    1.099342
  12 O     8.0000    0    15.999  -13.234692    1.084528    3.280538
  13 H     1.0000    0     1.008  -15.726496    1.017365    0.380496
  14 C     6.0000    0    12.011   -7.588711   -1.252059    0.006676
  15 C     6.0000    0    12.011   -7.041547    3.892009   -2.964332
  16 H     1.0000    0     1.008   -5.873826    2.536063   -3.972083
  17 H     1.0000    0     1.008   -6.740802    5.887204   -3.354322
  18 C     6.0000    0    12.011   -4.947564   -0.747335    0.481995
  19 H     1.0000    0     1.008   -8.270743   -3.163059    0.353987
  20 C     6.0000    0    12.011   -3.155775   -2.469008    1.059152
  21 H     1.0000    0     1.008   -4.382188    1.226086    0.376949
  22 C     6.0000    0    12.011   -3.550900   -5.284547    1.233851
  23 C     6.0000    0    12.011   -1.714701   -6.727381   -0.505930
  24 H     1.0000    0     1.008   -5.495254   -5.834879    0.803588
  25 H     1.0000    0     1.008   -3.171586   -5.863381    3.197166
  26 C     6.0000    0    12.011    1.046799   -5.926617   -0.127031
  27 H     1.0000    0     1.008   -2.271474   -6.417653   -2.479383
  28 H     1.0000    0     1.008   -1.901222   -8.761462   -0.153304
  29 C     6.0000    0    12.011    1.386646   -3.057591   -0.386406
  30 H     1.0000    0     1.008    2.231878   -6.951812   -1.477589
  31 H     1.0000    0     1.008    1.667698   -6.491694    1.775547
  32 C     6.0000    0    12.011   -0.452956   -1.774836    1.535396
  33 H     1.0000    0     1.008    0.053665   -2.612213    3.380835
  34 C     6.0000    0    12.011    0.390603    0.981223    1.588758
  35 H     1.0000    0     1.008  -11.425159    0.920844    3.488460
  36 C     6.0000    0    12.011    3.296589    0.818507    1.284551
  37 H     1.0000    0     1.008   -0.183800    1.936006    3.332232
  38 H     1.0000    0     1.008   -0.440440    2.036309    0.013074
  39 C     6.0000    0    12.011    3.940168   -1.966868    0.571950
  40 H     1.0000    0     1.008    4.282517    1.373389    3.016416
  41 H     1.0000    0     1.008    3.941621    2.106806   -0.204911
  42 H     1.0000    0     1.008    4.411708   -3.001000    2.317362
  43 C     6.0000    0    12.011    6.290030   -2.145527   -1.162578
  44 C     6.0000    0    12.011    0.837262   -2.177926   -3.094717
  45 H     1.0000    0     1.008    1.277718   -0.172751   -3.348581
  46 H     1.0000    0     1.008   -1.154775   -2.437170   -3.586604
  47 H     1.0000    0     1.008    1.972814   -3.246959   -4.456168
  48 H     1.0000    0     1.008    5.852104   -1.066987   -2.890352
  49 C     6.0000    0    12.011    6.945332   -4.852106   -1.926901
  50 C     6.0000    0    12.011    8.462537   -0.807054    0.117118
  51 C     6.0000    0    12.011   10.526706   -1.870843    1.092010
  52 H     1.0000    0     1.008    8.256529    1.236555    0.308062
  53 H     1.0000    0     1.008   10.803727   -3.912470    0.954684
  54 C     6.0000    0    12.011   12.611152   -0.465180    2.415941
  55 C     6.0000    0    12.011   15.106287   -0.888691    0.991670
  56 C     6.0000    0    12.011   12.786445   -1.271485    5.225822
  57 H     1.0000    0     1.008   12.160839    1.567417    2.377595
  58 H     1.0000    0     1.008   13.107717   -3.329387    5.256755
  59 C     6.0000    0    12.011   10.312266   -0.714392    6.619488
  60 C     6.0000    0    12.011   14.990724    0.011339    6.593619
  61 H     1.0000    0     1.008   15.702803   -2.869054    1.143681
  62 H     1.0000    0     1.008   16.627563    0.300143    1.729946
  63 H     1.0000    0     1.008   14.871902   -0.447295   -1.016189
  64 H     1.0000    0     1.008    8.706759   -1.678182    5.742428
  65 H     1.0000    0     1.008    9.916562    1.322441    6.595694
  66 H     1.0000    0     1.008   10.432024   -1.314188    8.597334
  67 H     1.0000    0     1.008   16.827477   -0.559917    5.837980
  68 H     1.0000    0     1.008   14.964925   -0.467822    8.607636
  69 H     1.0000    0     1.008   14.841720    2.074458    6.433479
  70 H     1.0000    0     1.008    5.513091   -5.636698   -3.187966
  71 H     1.0000    0     1.008    7.085099   -6.092245   -0.272941
  72 H     1.0000    0     1.008    8.759219   -4.906723   -2.922592

--------------------------------
INTERNAL COORDINATES (ANGSTROEM)
--------------------------------
 C      0   0   0     0.000000000000     0.00000000     0.00000000
 C      1   0   0     1.510559447442     0.00000000     0.00000000
 C      2   1   0     1.534041172482   110.49365421     0.00000000
 H      2   1   3     1.095887727509   110.70025772   237.86355835
 H      2   1   3     1.100119173781   109.80201297   118.75089635
 C      1   2   3     1.479709037696   113.94934356   306.17654065
 C      6   1   2     1.512788701690   114.39915384    49.76743230
 C      3   2   1     1.529646524885   110.15881714    56.71493084
 H      7   6   1     1.095232756810   110.22440879   188.73692998
 H      7   6   1     1.100669890803   108.27693202    72.06443521
 H      8   3   2     1.098545691405   108.31721349    64.42151328
 H      8   3   2     1.096148297161   109.51055576   181.42970471
 O      3   2   1     1.437214648064   110.70121281   292.67294852
 H      3   2   1     1.096996654660   109.48422625   177.15572733
 C      1   2   3     1.354368818722   121.20043536   122.95675195
 C      6   1   2     1.337514865560   123.15124727   231.71257500
 H     16   6   1     1.086776680048   121.35518415   359.04238815
 H     16   6   1     1.087500119814   120.95282444   178.41911558
 C     15   1   2     1.444986836085   126.14087184   185.15412254
 H     15   1   2     1.089348575276   116.26853915     3.07944129
 C     19  15   1     1.349949055590   126.44120122   185.56995612
 H     19  15   1     1.087723192005   115.76003346     6.27395610
 C     21  19  15     1.507357085908   125.69925548     2.22439831
 C     23  21  19     1.541008552888   111.44612250   124.55697692
 H     23  21  19     1.093298737343   112.39942986     0.94701450
 H     23  21  19     1.101595900979   107.90297648   243.09932020
 C     24  23  21     1.534675151349   112.67772382    51.21467962
 H     24  23  21     1.097381670776   108.98051915   289.07700048
 H     24  23  21     1.096893766131   109.13704323   173.12744283
 C     27  24  23     1.534986400024   111.89933777   306.27764369
 H     27  24  23     1.094698968434   108.86584782   182.72460129
 H     27  24  23     1.100463399714   109.19605123    66.28489910
 C     21  19  15     1.498039949580   122.89978981   180.27553027
 H     33  21  19     1.105398713253   106.37266952   127.25413535
 C     33  21  19     1.525490425857   121.12684490     4.72495470
 H     13   3   2     0.967748639340   107.64863023    42.70546572
 C     35  33  21     1.548580260908   103.62100390   197.08312457
 H     35  33  21     1.094930328078   112.05687734    75.08041788
 H     35  33  21     1.095616869304   110.83395106   315.45064329
 C     30  27  24     1.554429951408   116.09979656   166.09628325
 H     37  35  33     1.094681487249   111.79815841   248.96106869
 H     37  35  33     1.096594852839   110.44134734   130.37255294
 H     40  30  27     1.102193894308   106.60928821   320.62671660
 C     40  30  27     1.548452491113   118.81817703    80.83202849
 C     30  27  24     1.534666863434   111.18126897   294.10969155
 H     45  30  27     1.094665046635   111.61021013   186.34291439
 H     45  30  27     1.094434101265   111.50288592    66.35093162
 H     45  30  27     1.095519297047   110.70783857   306.22539282
 H     44  40  30     1.102446826439   106.92906839    61.38411458
 C     44  40  30     1.528138815433   113.35016132   302.15926079
 C     44  40  30     1.510605441113   108.46978028   176.23016219
 C     51  44  40     1.332734255990   126.81506915   110.39968577
 H     51  44  40     1.091598817512   115.46774070   292.79589986
 H     52  51  44     1.092701196443   120.12177210     2.04304519
 C     52  51  44     1.503608582201   124.93594105   181.81253586
 C     55  52  51     1.536766421683   109.24658476   239.98389450
 C     55  52  51     1.549711046114   110.77928201   115.80085918
 H     55  52  51     1.101871290125   108.40196327   358.17446050
 H     57  55  52     1.102306727834   107.18646721    57.98709985
 C     57  55  52     1.531346103785   110.97175438   299.85194564
 C     57  55  52     1.531449470752   112.14968387   176.68006824
 H     56  55  52     1.097424276117   110.51469195   292.80771245
 H     56  55  52     1.093830886122   111.91870856   172.21802431
 H     56  55  52     1.094931819763   110.33339750    52.06374216
 H     60  57  55     1.094230811062   111.70572989    58.17496412
 H     60  57  55     1.098069382493   110.27251871   298.40570300
 H     60  57  55     1.095533795918   110.78545972   179.09535809
 H     61  57  55     1.093616699598   112.43312657   295.26507669
 H     61  57  55     1.095604598980   110.34550307   175.10234601
 H     61  57  55     1.097874516950   110.46360803    56.10155247
 H     50  44  40     1.091848561855   111.14019103    68.42542358
 H     50  44  40     1.096440041372   111.40792998   308.07610936
 H     50  44  40     1.095354532274   110.54251849   187.98065405

---------------------------
INTERNAL COORDINATES (A.U.)
---------------------------
 C      0   0   0     0.000000000000     0.00000000     0.00000000
 C      1   0   0     2.854543664672     0.00000000     0.00000000
 C      2   1   0     2.898917694151   110.49365421     0.00000000
 H      2   1   3     2.070927678516   110.70025772   237.86355835
 H      2   1   3     2.078923953122   109.80201297   118.75089635
 C      1   2   3     2.796244839133   113.94934356   306.17654065
 C      6   1   2     2.858756344684   114.39915384    49.76743230
 C      3   2   1     2.890613013737   110.15881714    56.71493084
 H      7   6   1     2.069689963270   110.22440879   188.73692998
 H      7   6   1     2.079964657471   108.27693202    72.06443521
 H      8   3   2     2.075950502354   108.31721349    64.42151328
 H      8   3   2     2.071420083798   109.51055576   181.42970471
 O      3   2   1     2.715942080502   110.70121281   292.67294852
 H      3   2   1     2.073023247135   109.48422625   177.15572733
 C      1   2   3     2.559386151707   121.20043536   122.95675195
 C      6   1   2     2.527536795958   123.15124727   231.71257500
 H     16   6   1     2.053710294023   121.35518415   359.04238815
 H     16   6   1     2.055077397054   120.95282444   178.41911558
 C     15   1   2     2.730629387323   126.14087184   185.15412254
 H     15   1   2     2.058570471648   116.26853915     3.07944129
 C     19  15   1     2.551034009810   126.44120122   185.56995612
 H     19  15   1     2.055498942404   115.76003346     6.27395610
 C     21  19  15     2.848492078392   125.69925548     2.22439831
 C     23  21  19     2.912084134989   111.44612250   124.55697692
 H     23  21  19     2.066035196141   112.39942986     0.94701450
 H     23  21  19     2.081714563100   107.90297648   243.09932020
 C     24  23  21     2.900115740584   112.67772382    51.21467962
 H     24  23  21     2.073750822152   108.98051915   289.07700048
 H     24  23  21     2.072828815992   109.13704323   173.12744283
 C     27  24  23     2.900703915340   111.89933777   306.27764369
 H     27  24  23     2.068681249426   108.86584782   182.72460129
 H     27  24  23     2.079574445864   109.19605123    66.28489910
 C     21  19  15     2.830885242380   122.89978981   180.27553027
 H     33  21  19     2.088900836837   106.37266952   127.25413535
 C     33  21  19     2.882759124789   121.12684490     4.72495470
 H     13   3   2     1.828779894827   107.64863023    42.70546572
 C     35  33  21     2.926392589513   103.62100390   197.08312457
 H     35  33  21     2.069118455792   112.05687734    75.08041788
 H     35  33  21     2.070415830689   110.83395106   315.45064329
 C     30  27  24     2.937446902526   116.09979656   166.09628325
 H     37  35  33     2.068648214775   111.79815841   248.96106869
 H     37  35  33     2.072263951733   110.44134734   130.37255294
 H     40  30  27     2.082844606722   106.60928821   320.62671660
 C     40  30  27     2.926151139591   118.81817703    80.83202849
 C     30  27  24     2.900100078694   111.18126897   294.10969155
 H     45  30  27     2.068617146515   111.61021013   186.34291439
 H     45  30  27     2.068180723015   111.50288592    66.35093162
 H     45  30  27     2.070231445845   110.70783857   306.22539282
 H     44  40  30     2.083322579181   106.92906839    61.38411458
 C     44  40  30     2.887763855783   113.35016132   302.15926079
 C     44  40  30     2.854630580115   108.46978028   176.23016219
 C     51  44  40     2.518502753117   126.81506915   110.39968577
 H     51  44  40     2.062822813211   115.46774070   292.79589986
 H     52  51  44     2.064906007484   120.12177210     2.04304519
 C     52  51  44     2.841408432974   124.93594105   181.81253586
 C     55  52  51     2.904067668786   109.24658476   239.98389450
 C     55  52  51     2.928529463868   110.77928201   115.80085918
 H     55  52  51     2.082234973167   108.40196327   358.17446050
 H     57  55  52     2.083057831186   107.18646721    57.98709985
 C     57  55  52     2.893824752402   110.97175438   299.85194564
 C     57  55  52     2.894020087660   112.14968387   176.68006824
 H     56  55  52     2.073831334578   110.51469195   292.80771245
 H     56  55  52     2.067040811595   111.91870856   172.21802431
 H     56  55  52     2.069121274668   110.33339750    52.06374216
 H     60  57  55     2.067796560206   111.70572989    58.17496412
 H     60  57  55     2.075050408956   110.27251871   298.40570300
 H     60  57  55     2.070258844740   110.78545972   179.09535809
 H     61  57  55     2.066636057723   112.43312657   295.26507669
 H     61  57  55     2.070392643137   110.34550307   175.10234601
 H     61  57  55     2.074682166447   110.46360803    56.10155247
 H     50  44  40     2.063294761622   111.14019103    68.42542358
 H     50  44  40     2.071971400458   111.40792998   308.07610936
 H     50  44  40     2.069920085548   110.54251849   187.98065405

---------------------
BASIS SET INFORMATION
---------------------
There are 3 groups of distinct atoms

 Group   1 Type C   : 7s4p1d contracted to 3s2p1d pattern {511/31/1}
 Group   2 Type H   : 4s1p contracted to 2s1p pattern {31/1}
 Group   3 Type O   : 7s4p1d contracted to 3s2p1d pattern {511/31/1}

Atom   0C    basis set group =>   1
Atom   1C    basis set group =>   1
Atom   2C    basis set group =>   1
Atom   3H    basis set group =>   2
Atom   4H    basis set group =>   2
Atom   5C    basis set group =>   1
Atom   6C    basis set group =>   1
Atom   7C    basis set group =>   1
Atom   8H    basis set group =>   2
Atom   9H    basis set group =>   2
Atom  10H    basis set group =>   2
Atom  11H    basis set group =>   2
Atom  12O    basis set group =>   3
Atom  13H    basis set group =>   2
Atom  14C    basis set group =>   1
Atom  15C    basis set group =>   1
Atom  16H    basis set group =>   2
Atom  17H    basis set group =>   2
Atom  18C    basis set group =>   1
Atom  19H    basis set group =>   2
Atom  20C    basis set group =>   1
Atom  21H    basis set group =>   2
Atom  22C    basis set group =>   1
Atom  23C    basis set group =>   1
Atom  24H    basis set group =>   2
Atom  25H    basis set group =>   2
Atom  26C    basis set group =>   1
Atom  27H    basis set group =>   2
Atom  28H    basis set group =>   2
Atom  29C    basis set group =>   1
Atom  30H    basis set group =>   2
Atom  31H    basis set group =>   2
Atom  32C    basis set group =>   1
Atom  33H    basis set group =>   2
Atom  34C    basis set group =>   1
Atom  35H    basis set group =>   2
Atom  36C    basis set group =>   1
Atom  37H    basis set group =>   2
Atom  38H    basis set group =>   2
Atom  39C    basis set group =>   1
Atom  40H    basis set group =>   2
Atom  41H    basis set group =>   2
Atom  42H    basis set group =>   2
Atom  43C    basis set group =>   1
Atom  44C    basis set group =>   1
Atom  45H    basis set group =>   2
Atom  46H    basis set group =>   2
Atom  47H    basis set group =>   2
Atom  48H    basis set group =>   2
Atom  49C    basis set group =>   1
Atom  50C    basis set group =>   1
Atom  51C    basis set group =>   1
Atom  52H    basis set group =>   2
Atom  53H    basis set group =>   2
Atom  54C    basis set group =>   1
Atom  55C    basis set group =>   1
Atom  56C    basis set group =>   1
Atom  57H    basis set group =>   2
Atom  58H    basis set group =>   2
Atom  59C    basis set group =>   1
Atom  60C    basis set group =>   1
Atom  61H    basis set group =>   2
Atom  62H    basis set group =>   2
Atom  63H    basis set group =>   2
Atom  64H    basis set group =>   2
Atom  65H    basis set group =>   2
Atom  66H    basis set group =>   2
Atom  67H    basis set group =>   2
Atom  68H    basis set group =>   2
Atom  69H    basis set group =>   2
Atom  70H    basis set group =>   2
Atom  71H    basis set group =>   2
Atom  72H    basis set group =>   2

-------------------------
BASIS SET IN INPUT FORMAT
-------------------------

 # Basis set for element : H 
 NewGTO H 
 S 3 
   1      13.0107010000      0.0334854848
   2       1.9622572000      0.2347218709
   3       0.4445379600      0.8137702853
 S 1 
   1       0.1219496200      1.0000000000
 P 1 
   1       0.8000000000      1.0000000000
  end;

 # Basis set for element : C 
 NewGTO C 
 S 5 
   1    1238.4016938000      0.0055173650
   2     186.2900499200      0.0410888285
   3      42.2511763460      0.1822538213
   4      11.6765579320      0.4682845944
   5       3.5930506482      0.4457581734
 S 1 
   1       0.4024514736      1.0000000000
 S 1 
   1       0.1309018267      1.0000000000
 P 3 
   1       9.4680970621      0.0568883320
   2       2.0103545142      0.3129405934
   3       0.5477100471      0.7606501651
 P 1 
   1       0.1526861379      1.0000000000
 D 1 
   1       0.8000000000      1.0000000000
  end;

 # Basis set for element : O 
 NewGTO O 
 S 5 
   1    2266.1767785000     -0.0053893504
   2     340.8701019100     -0.0402347214
   3      77.3631351670     -0.1800818421
   4      21.4796449400     -0.4682885766
   5       6.6589433124     -0.4469261716
 S 1 
   1       0.8097597567      1.0000000000
 S 1 
   1       0.2553077223      1.0000000000
 P 3 
   1      17.7215043170      0.0626302488
   2       3.8635505440      0.3333113849
   3       1.0480920883      0.7414863830
 P 1 
   1       0.2764154441      1.0000000000
 D 1 
   1       1.2000000000      1.0000000000
  end;

---------------------------------
AUXILIARY/J BASIS SET INFORMATION
---------------------------------
There are 3 groups of distinct atoms

 Group   1 Type C   : 12s5p4d2f1g contracted to 6s4p3d1f1g pattern {711111/2111/211/2/1}
 Group   2 Type H   : 5s2p1d contracted to 3s1p1d pattern {311/2/1}
 Group   3 Type O   : 12s5p4d2f1g contracted to 6s4p3d1f1g pattern {711111/2111/211/2/1}

Atom   0C    basis set group =>   1
Atom   1C    basis set group =>   1
Atom   2C    basis set group =>   1
Atom   3H    basis set group =>   2
Atom   4H    basis set group =>   2
Atom   5C    basis set group =>   1
Atom   6C    basis set group =>   1
Atom   7C    basis set group =>   1
Atom   8H    basis set group =>   2
Atom   9H    basis set group =>   2
Atom  10H    basis set group =>   2
Atom  11H    basis set group =>   2
Atom  12O    basis set group =>   3
Atom  13H    basis set group =>   2
Atom  14C    basis set group =>   1
Atom  15C    basis set group =>   1
Atom  16H    basis set group =>   2
Atom  17H    basis set group =>   2
Atom  18C    basis set group =>   1
Atom  19H    basis set group =>   2
Atom  20C    basis set group =>   1
Atom  21H    basis set group =>   2
Atom  22C    basis set group =>   1
Atom  23C    basis set group =>   1
Atom  24H    basis set group =>   2
Atom  25H    basis set group =>   2
Atom  26C    basis set group =>   1
Atom  27H    basis set group =>   2
Atom  28H    basis set group =>   2
Atom  29C    basis set group =>   1
Atom  30H    basis set group =>   2
Atom  31H    basis set group =>   2
Atom  32C    basis set group =>   1
Atom  33H    basis set group =>   2
Atom  34C    basis set group =>   1
Atom  35H    basis set group =>   2
Atom  36C    basis set group =>   1
Atom  37H    basis set group =>   2
Atom  38H    basis set group =>   2
Atom  39C    basis set group =>   1
Atom  40H    basis set group =>   2
Atom  41H    basis set group =>   2
Atom  42H    basis set group =>   2
Atom  43C    basis set group =>   1
Atom  44C    basis set group =>   1
Atom  45H    basis set group =>   2
Atom  46H    basis set group =>   2
Atom  47H    basis set group =>   2
Atom  48H    basis set group =>   2
Atom  49C    basis set group =>   1
Atom  50C    basis set group =>   1
Atom  51C    basis set group =>   1
Atom  52H    basis set group =>   2
Atom  53H    basis set group =>   2
Atom  54C    basis set group =>   1
Atom  55C    basis set group =>   1
Atom  56C    basis set group =>   1
Atom  57H    basis set group =>   2
Atom  58H    basis set group =>   2
Atom  59C    basis set group =>   1
Atom  60C    basis set group =>   1
Atom  61H    basis set group =>   2
Atom  62H    basis set group =>   2
Atom  63H    basis set group =>   2
Atom  64H    basis set group =>   2
Atom  65H    basis set group =>   2
Atom  66H    basis set group =>   2
Atom  67H    basis set group =>   2
Atom  68H    basis set group =>   2
Atom  69H    basis set group =>   2
Atom  70H    basis set group =>   2
Atom  71H    basis set group =>   2
Atom  72H    basis set group =>   2

-------------------------------------
AUXILIARY/J BASIS SET IN INPUT FORMAT
-------------------------------------

 # Auxiliary/J basis set for element : H 
 NewAuxJGTO H 
 S 3 
   1      15.6752927000      0.1007184237
   2       3.6063578000      0.3404257499
   3       1.2080016000      0.6491996172
 S 1 
   1       0.4726794000      1.0000000000
 S 1 
   1       0.2018100000      1.0000000000
 P 2 
   1       2.0281365000      0.5596620919
   2       0.5358730000      0.5596620919
 D 1 
   1       2.2165124000      1.0000000000
  end;

 # Auxiliary/J basis set for element : C 
 NewAuxJGTO C 
 S 7 
   1    1861.0916331000      0.0134602335
   2     642.9939764000      0.0299160374
   3     235.1105725000      0.1008649584
   4      90.7028894000      0.2370970548
   5      36.7794552000      0.3924037254
   6      15.6046273000      0.3195862154
   7       6.8907294000      0.0530104441
 S 1 
   1       3.1478850000     -1.0000000000
 S 1 
   1       1.4777287000      1.0000000000
 S 1 
   1       0.7076466000      1.0000000000
 S 1 
   1       0.3430122000      1.0000000000
 S 1 
   1       0.1669453000      1.0000000000
 P 2 
   1      13.5472892000     -0.6769313712
   2       5.4669419000     -0.3779500978
 P 1 
   1       2.1751721000      1.0000000000
 P 1 
   1       0.8582194000      1.0000000000
 P 1 
   1       0.3376720000      1.0000000000
 D 2 
   1       5.9287253000     -0.3533329857
   2       1.9809209000     -0.7456525731
 D 1 
   1       0.8055417000     -1.0000000000
 D 1 
   1       0.3531244000     -1.0000000000
 F 2 
   1       1.6755626000      0.6311076882
   2       0.5997536000      0.4968166032
 G 1 
   1       1.0024600000     -1.0000000000
  end;

 # Auxiliary/J basis set for element : O 
 NewAuxJGTO O 
 S 7 
   1    2876.8216605000      0.0168151159
   2    1004.7443032000      0.0340137548
   3     369.7579954000      0.1194951309
   4     142.9442404000      0.2664627624
   5      57.8366425000      0.4202764046
   6      24.3864983000      0.2765077335
   7      10.6622662000      0.0057008815
 S 1 
   1       4.8070437000     -1.0000000000
 S 1 
   1       2.2210770000      1.0000000000
 S 1 
   1       1.0447795000      1.0000000000
 S 1 
   1       0.4968425000      1.0000000000
 S 1 
   1       0.2371384000      1.0000000000
 P 2 
   1      64.2613382000     -0.2731534179
   2      16.3006076000     -0.8168011598
 P 1 
   1       4.3550542000      1.0000000000
 P 1 
   1       1.2019554000      1.0000000000
 P 1 
   1       0.3354196000      1.0000000000
 D 2 
   1       9.2146611000     -0.4661230638
   2       2.8435251000     -0.6600908911
 D 1 
   1       0.9955759000     -1.0000000000
 D 1 
   1       0.3649441000     -1.0000000000
 F 2 
   1       2.6420115000      0.5931563945
   2       0.7345613000      0.5931563945
 G 1 
   1       1.3931000000     -1.0000000000
  end;


Checking for AutoStart:
The File: inpS.gbw exists
Trying to determine its content:
     ... Fine, the file contains calculation information
     ... Fine, the calculation information was read
     ... Fine, the file contains a basis set
     ... Fine, the basis set was read
     ... Fine, the file contains a geometry
     ... Fine, the geometry was read
     ... Fine, the file contains a set of orbitals
     ... Fine, the orbitals can be read
     => possible old guess file was deleted
     => GBW file was renamed to GES file
     => GES file is set as startup file
     => Guess is set to MORead
     ... now leaving AutoStart



           ************************************************************
           *        Program running with 4 parallel MPI-processes     *
           *              working on a common directory               *
           ************************************************************
------------------------------------------------------------------------------
                             ORCA STARTUP CALCULATIONS
                           -- RI-GTO INTEGRALS CHOSEN --
------------------------------------------------------------------------------
------------------------------------------------------------------------------
                   ___                                                        
                  /   \      - P O W E R E D   B Y -                         
                 /     \                                                     
                 |  |  |   _    _      __       _____    __    __             
                 |  |  |  | |  | |    /  \     |  _  \  |  |  /  |          
                  \  \/   | |  | |   /    \    | | | |  |  | /  /          
                 / \  \   | |__| |  /  /\  \   | |_| |  |  |/  /          
                |  |  |   |  __  | /  /__\  \  |    /   |      \           
                |  |  |   | |  | | |   __   |  |    \   |  |\   \          
                \     /   | |  | | |  |  |  |  | |\  \  |  | \   \       
                 \___/    |_|  |_| |__|  |__|  |_| \__\ |__|  \__/        
                                                                              
                      - O R C A' S   B I G   F R I E N D -                    
                                      &                                       
                       - I N T E G R A L  F E E D E R -                       
                                                                              
 v1 FN, 2020, v2 2021, v3 2022-2024                                           
------------------------------------------------------------------------------


----------------------
SHARK INTEGRAL PACKAGE
----------------------

Number of atoms                             ...     73
Number of basis functions                   ...    626
Number of shells                            ...    306
Maximum angular momentum                    ...      2
Integral batch strategy                     ... SHARK/LIBINT Hybrid
RI-J (if used) integral strategy            ... SPLIT-RIJ (Revised 2003 algorithm where possible)
Printlevel                                  ...      1
Contraction scheme used                     ... SEGMENTED contraction
Prescreening option                         ... SCHWARTZ
   Thresh                                   ... 3.000e-11
   Tcut                                     ... 1.000e-12
   Tpresel                                  ... 1.000e-12 
Coulomb Range Separation                    ... NOT USED
Exchange Range Separation                   ... Long Range
   Mu parameter                             ... 3.000e-01
   Scaling (regular/separated)              ... 1.670e-01 8.330e-01
Multipole approximations                    ... NOT USED
Finite Nucleus Model                        ... NOT USED
CABS basis                                  ... NOT available
Auxiliary Coulomb fitting basis             ... AVAILABLE
   # of basis functions in Aux-J            ...   1905
   # of shells in Aux-J                     ...    655
   Maximum angular momentum in Aux-J        ...      4
Auxiliary J/K fitting basis                 ... NOT available
Auxiliary Correlation fitting basis         ... NOT available
Auxiliary 'external' fitting basis          ... NOT available

Checking pre-screening integrals            ... done (  0.0 sec) Dimension = 306
Check shell pair data                       ... done (  0.0 sec)
Shell pair information
Shell pair cut-off parameter TPreSel        ...   1.0e-12
Total number of shell pairs                 ...     46971
Shell pairs after pre-screening             ...     27618
Total number of primitive shell pairs       ...    162105
Primitive shell pairs kept                  ...     60902
          la=0 lb=0:   9668 shell pairs
          la=1 lb=0:  10589 shell pairs
          la=1 lb=1:   2925 shell pairs
          la=2 lb=0:   2769 shell pairs
          la=2 lb=1:   1471 shell pairs
          la=2 lb=2:    196 shell pairs

Calculating one electron integrals          ... done (  0.1 sec)
Calculating RI/J V-Matrix + Cholesky decomp.... done (  0.2 sec)
Calculating Nuclear repulsion               ... done (  0.0 sec) ENN=   2784.401789644583 Eh

Diagonalization of the overlap matrix:
Smallest eigenvalue                        ... 4.462e-04
Time for diagonalization                   ...    0.043 sec
Threshold for overlap eigenvalues          ... 1.000e-07
Number of eigenvalues below threshold      ... 0
Time for construction of square roots      ...    0.024 sec
Total time needed                          ...    0.071 sec

-------------------
DFT GRID GENERATION
-------------------

General Integration Accuracy     IntAcc      ... 4.388
Radial Grid Type                 RadialGrid  ... OptM3 with GC (2021)
Angular Grid (max. ang.)         AngularGrid ... 4 (Lebedev-302)
Angular grid pruning method      GridPruning ... 4 (adaptive)
Weight generation scheme         WeightScheme... mBecke (2022)
Basis function cutoff            BFCut       ... 1.0000e-11
Integration weight cutoff        WCut        ... 1.0000e-14
Partially contracted basis set               ... off
Rotationally invariant grid construction     ... off
Angular grids for H and He will be reduced by one unit

Total number of grid points                  ...   309819
Total number of batches                      ...     4877
Average number of points per batch           ...       63
Average number of grid points per atom       ...     4244

--------------------
COSX GRID GENERATION
--------------------

GRIDX 1
-------
General Integration Accuracy     IntAcc      ... 3.816
Radial Grid Type                 RadialGrid  ... OptM3 with GC (2021)
Angular Grid (max. ang.)         AngularGrid ... 1 (Lebedev-50)
Angular grid pruning method      GridPruning ... 4 (adaptive)
Weight generation scheme         WeightScheme... mBecke (2022)
Basis function cutoff            BFCut       ... 1.0000e-11
Integration weight cutoff        WCut        ... 1.0000e-14
Partially contracted basis set               ... on
Rotationally invariant grid construction     ... off
Angular grids for H and He will be reduced by one unit

Total number of grid points                  ...    39391
Total number of batches                      ...      351
Average number of points per batch           ...      112
Average number of grid points per atom       ...      540
UseSFitting                                  ... on

GRIDX 2
-------
General Integration Accuracy     IntAcc      ... 4.020
Radial Grid Type                 RadialGrid  ... OptM3 with GC (2021)
Angular Grid (max. ang.)         AngularGrid ... 2 (Lebedev-110)
Angular grid pruning method      GridPruning ... 4 (adaptive)
Weight generation scheme         WeightScheme... mBecke (2022)
Basis function cutoff            BFCut       ... 1.0000e-11
Integration weight cutoff        WCut        ... 1.0000e-14
Partially contracted basis set               ... on
Rotationally invariant grid construction     ... off
Angular grids for H and He will be reduced by one unit

Total number of grid points                  ...    81360
Total number of batches                      ...      677
Average number of points per batch           ...      120
Average number of grid points per atom       ...     1115
UseSFitting                                  ... on

GRIDX 3
-------
General Integration Accuracy     IntAcc      ... 4.338
Radial Grid Type                 RadialGrid  ... OptM3 with GC (2021)
Angular Grid (max. ang.)         AngularGrid ... 3 (Lebedev-194)
Angular grid pruning method      GridPruning ... 4 (adaptive)
Weight generation scheme         WeightScheme... mBecke (2022)
Basis function cutoff            BFCut       ... 1.0000e-11
Integration weight cutoff        WCut        ... 1.0000e-14
Partially contracted basis set               ... on
Rotationally invariant grid construction     ... off
Angular grids for H and He will be reduced by one unit

Total number of grid points                  ...   176218
Total number of batches                      ...     1417
Average number of points per batch           ...      124
Average number of grid points per atom       ...     2414
UseSFitting                                  ... on
Initializing property integral containers    ... done (  0.0 sec)

SHARK setup successfully completed in   4.4 seconds

Maximum memory used throughout the entire STARTUP-calculation: 95.8 MB


           ************************************************************
           *        Program running with 4 parallel MPI-processes     *
           *              working on a common directory               *
           ************************************************************
-------------------------------------------------------------------------------
                                 ORCA GUESS
                   Start orbitals & Density for SCF / CASSCF
-------------------------------------------------------------------------------

------------
SCF SETTINGS
------------
Hamiltonian:
 Density Functional     Method          .... DFT(GTOs)
 Exchange Functional    Exchange        .... WB97X-V
 Correlation Functional Correlation     .... WB97X-V
 Gradients option       PostSCFGGA      .... off
 Hybrid DFT is turned on
   Fraction HF Exchange ScalHFX         ....  0.167000
   Scaling of DF-GGA-X  ScalDFX         ....  0.000000
   Scaling of DF-GGA-C  ScalDFC         ....  1.000000
   Scaling of DF-LDA-C  ScalLDAC        ....  1.000000
   Perturbative correction              ....  0.000000
 Long-range corrected/Screened/Range-Separated Hybrid DFT is turned on
   Amount of maximum screened exact exchange              ....  0.833000
   Range separation parameter mu (erf(mu*r12)/r12)        ....  0.300000
 RI-approximation to the Coulomb term is turned on
   Number of AuxJ basis functions       .... 1905
   RIJ-COSX (HFX calculated with COS-X)).... on


General Settings:
 Integral files         IntName         .... inpS
 Hartree-Fock type      HFTyp           .... RHF
 Total Charge           Charge          ....    0
 Multiplicity           Mult            ....    1
 Number of Electrons    NEL             ....  220
 Basis Dimension        Dim             ....  626
 Nuclear Repulsion      ENuc            ....   2784.4017896446 Eh

Convergence Acceleration:
 AO-DIIS                CNVDIIS         .... on
   Start iteration      DIISMaxIt       ....    12
   Startup error        DIISStart       ....  0.200000
   # of expansion vecs  DIISMaxEq       ....     5
   Bias factor          DIISBfac        ....   1.050
   Max. coefficient     DIISMaxC        ....  10.000
 MO-DIIS                CNVKDIIS        .... off
 Trust-Rad. Augm. Hess. CNVTRAH         .... auto
   Auto Start mean grad. ratio tolernc. ....  1.125000
   Auto Start start iteration           ....     1
   Auto Start num. interpolation iter.  ....    10
   Max. Number of Micro iterations      ....    24
   Max. Number of Macro iterations      .... Maxiter - #DIIS iter
   Number of Davidson start vectors     ....     2
   Converg. threshold    (grad. norm)   ....   1.000e-04
   Grad. Scal. Fac. for Micro threshold ....   0.100
   Minimum threshold for Micro iter.    ....   1.000e-02
   NR start threshold (gradient norm)   ....   1.000e-04
   Initial trust radius                 ....   0.400
   Minimum AH scaling param. (alpha)    ....   1.000
   Maximum AH scaling param. (alpha)    .... 1000.000
   Quad. conv. algorithm                .... NR
   White noise on init. David. guess    .... on
   Maximum white noise                  ....   0.010
   Pseudo random numbers                .... off
   Inactive MOs                         .... canonical
   Orbital update algorithm             .... Taylor
   Preconditioner                       .... Diag
   Full preconditioner red. dimension   ....   250
 SOSCF                  CNVSOSCF        .... off
 Level Shifting         CNVShift        .... on
   Level shift para.    LevelShift      ....    0.2500
   Turn off err/grad.   ShiftErr        ....    0.0010
 Zerner damping         CNVZerner       .... off
 Static damping         CNVDamp         .... on
   Fraction old density DampFac         ....    0.7000
   Max. Damping (<1)    DampMax         ....    0.9800
   Min. Damping (>=0)   DampMin         ....    0.0000
   Turn off err/grad.   DampErr         ....    0.1000

SCF Procedure:
 Maximum # iterations   MaxIter         ....   125
 SCF integral mode      SCFMode         .... Direct
   Integral package                     .... SHARK and LIBINT hybrid scheme
 Reset frequency        DirectResetFreq ....    20
 Integral Threshold     Thresh          ....  3.000e-11 Eh
 Primitive CutOff       TCut            ....  1.000e-12 Eh

Convergence Tolerance:
 Convergence Check Mode ConvCheckMode   .... Total+1el-Energy
 Convergence forced     ConvForced      .... 0
 Energy Change          TolE            ....  1.000e-07 Eh
 1-El. energy change                    ....  1.000e-04 Eh
 DIIS Error             TolErr          ....  1.000e-07

---------------------
INITIAL GUESS: MOREAD
---------------------
Guess MOs are being read from file: inpS.ges
Input Geometry matches current geometry (good)
Input basis set matches current basis set (good)
Occupation numbers will be reassigned to an Aufbau configuration
MOs were renormalized
MOs were reorthogonalized (Cholesky)
                      ------------------
                      INITIAL GUESS DONE (   0.2 sec)
                      ------------------
             **** ENERGY FILE WAS UPDATED (inpS.en.tmp) ****
Finished Guess after   0.3 sec
Maximum memory used throughout the entire GUESS-calculation: 52.5 MB


           ************************************************************
           *        Program running with 4 parallel MPI-processes     *
           *              working on a common directory               *
           ************************************************************

-------------------------------------------------------------------------------------------
                                      ORCA LEAN-SCF
                              memory conserving SCF solver
-------------------------------------------------------------------------------------------

--------------------
CPCM SOLVATION MODEL
--------------------
CPCM parameters:
  Epsilon                                         ...       4.8030
  Refrac                                          ...       1.4459
  Rsolv                                           ...       1.3000
  Surface type                                    ... GAUSSIAN VDW
  Discretization scheme                           ... Constant charge density
    Threshold for H atoms                         ...       5.0000 (charges/Ang^2)
    Threshold for non-H atoms                     ...       5.0000 (charges/Ang^2)
  Epsilon function type                           ...         CPCM
Solvent:                                          ... CHLOROFORM
Radii:
  Scheme                                          ... Element-dependent radii
  Radius for C  used is    3.8550 Bohr (=   2.0400 Ang.)
  Radius for H  used is    2.4944 Bohr (=   1.3200 Ang.)
  Radius for O  used is    3.4469 Bohr (=   1.8240 Ang.)
Calculating surface                               ...        done! (  0.0s)
Cavity surface points                             ...         5328
Cavity Volume                                     ...    3617.9055
Cavity Surface-area                               ...    1798.8882
Calculating surface distance matrix               ...        done! (  0.2s)
Performing Cholesky decomposition & store         ...        done! (  0.9s)
Overall time for CPCM initialization              ...                 1.2s

----------------------------------------D-I-I-S--------------------------------------------
Iteration    Energy (Eh)           Delta-E    RMSDP     MaxDP     DIISErr   Damp  Time(sec)
-------------------------------------------------------------------------------------------
               ***  Starting incremental Fock matrix formation  ***
    1    -1168.3626090018046852     0.00e+00  3.17e-08  2.19e-06  4.48e-06  0.700  23.7

  HOMO= 109 E= -7.962 eV LUMO=  8.068 eV gap=  16.030 eV
    2    -1168.3626089975764444     4.23e-09  2.76e-08  1.40e-06  2.68e-06  0.700   4.8
                 **** Energy Check signals convergence ****

  HOMO= 109 E= -7.962 eV LUMO=  8.068 eV gap=  16.030 eV

               *****************************************************
               *                     SUCCESS                       *
               *           SCF CONVERGED AFTER   2 CYCLES          *
               *****************************************************

Recomputing exchange energy using gridx3       ... done (   40.761 sec)
Old exchange energy                            :    -56.782330737 Eh
New exchange energy                            :    -56.782383757 Eh
Exchange energy change after final integration :     -0.000053020 Eh
Total energy after final integration           :  -1168.362662017 Eh
             **** ENERGY FILE WAS UPDATED (inpS.en.tmp) ****

----------------
TOTAL SCF ENERGY
----------------

Total Energy       :      -1168.36266201744047 Eh          -31792.76435 eV

Components:
Nuclear Repulsion  :       2784.40178964458255 Eh           75767.42464 eV
Electronic Energy  :      -3952.75529852280124 Eh         -107559.93991 eV
One Electron Energy:      -7113.78091463376040 Eh         -193575.81989 eV
Two Electron Energy:       3161.02561611095916 Eh           86015.87998 eV
CPCM Dielectric    :         -0.00910011935761 Eh              -0.24763 eV

Virial components:
Potential Energy   :      -2321.66851735301861 Eh          -63175.81215 eV
Kinetic Energy     :       1153.30585533557814 Eh           31383.04781 eV
Virial Ratio       :          2.01305534573696

DFT components:
N(Alpha)           :      110.000170487581 electrons
N(Beta)            :      110.000170487581 electrons
N(Total)           :      220.000340975162 electrons
E(X)               :     -111.768656721908 Eh       
E(C)               :       -8.951722404965 Eh       
E(XC)              :     -120.720379126872 Eh       

CPCM Solvation Model Properties:
Surface-charge          :         -0.04198235105394
Corrected charge        :         -0.00000000000000
Outlying charge corr.   :          0.00006179206020 Eh               0.00168 eV
Free-energy (cav+disp)  :  This term is not implemented in the current solvation scheme

---------------
SCF CONVERGENCE
---------------

  Last Energy change         ...   -4.2282e-09  Tolerance :   1.0000e-07
  Last MAX-Density change    ...    1.3978e-06  Tolerance :   1.0000e-05
  Last RMS-Density change    ...    2.7611e-08  Tolerance :   1.0000e-06
  Last DIIS Error            ...    2.6775e-06  Tolerance :   1.0000e-07


----------------
ORBITAL ENERGIES
----------------

  NO   OCC          E(Eh)            E(eV) 
   0   2.0000     -19.212429      -522.7968 
   1   2.0000     -10.330363      -281.1035 
   2   2.0000     -10.294333      -280.1230 
   3   2.0000     -10.292077      -280.0617 
   4   2.0000     -10.287672      -279.9418 
   5   2.0000     -10.286982      -279.9230 
   6   2.0000     -10.285479      -279.8821 
   7   2.0000     -10.284234      -279.8482 
   8   2.0000     -10.283415      -279.8259 
   9   2.0000     -10.282977      -279.8140 
  10   2.0000     -10.281012      -279.7606 
  11   2.0000     -10.280942      -279.7587 
  12   2.0000     -10.279321      -279.7145 
  13   2.0000     -10.279297      -279.7139 
  14   2.0000     -10.278152      -279.6827 
  15   2.0000     -10.278010      -279.6789 
  16   2.0000     -10.277474      -279.6643 
  17   2.0000     -10.277084      -279.6537 
  18   2.0000     -10.273170      -279.5472 
  19   2.0000     -10.273051      -279.5439 
  20   2.0000     -10.272219      -279.5213 
  21   2.0000     -10.272038      -279.5164 
  22   2.0000     -10.271921      -279.5132 
  23   2.0000     -10.271578      -279.5038 
  24   2.0000     -10.269943      -279.4593 
  25   2.0000     -10.268484      -279.4196 
  26   2.0000     -10.268329      -279.4154 
  27   2.0000     -10.267696      -279.3982 
  28   2.0000     -10.266287      -279.3599 
  29   2.0000      -1.130970       -30.7753 
  30   2.0000      -0.999102       -27.1870 
  31   2.0000      -0.977335       -26.5946 
  32   2.0000      -0.957711       -26.0606 
  33   2.0000      -0.943292       -25.6683 
  34   2.0000      -0.917964       -24.9791 
  35   2.0000      -0.911422       -24.8011 
  36   2.0000      -0.890193       -24.2234 
  37   2.0000      -0.888138       -24.1675 
  38   2.0000      -0.872770       -23.7493 
  39   2.0000      -0.854132       -23.2421 
  40   2.0000      -0.835958       -22.7476 
  41   2.0000      -0.829213       -22.5640 
  42   2.0000      -0.810446       -22.0534 
  43   2.0000      -0.798056       -21.7162 
  44   2.0000      -0.797210       -21.6932 
  45   2.0000      -0.791988       -21.5511 
  46   2.0000      -0.761220       -20.7139 
  47   2.0000      -0.753697       -20.5091 
  48   2.0000      -0.725767       -19.7491 
  49   2.0000      -0.713262       -19.4089 
  50   2.0000      -0.705443       -19.1961 
  51   2.0000      -0.698631       -19.0107 
  52   2.0000      -0.689814       -18.7708 
  53   2.0000      -0.668959       -18.2033 
  54   2.0000      -0.657516       -17.8919 
  55   2.0000      -0.639817       -17.4103 
  56   2.0000      -0.630028       -17.1439 
  57   2.0000      -0.620071       -16.8730 
  58   2.0000      -0.607519       -16.5314 
  59   2.0000      -0.602138       -16.3850 
  60   2.0000      -0.590346       -16.0641 
  61   2.0000      -0.584761       -15.9122 
  62   2.0000      -0.569757       -15.5039 
  63   2.0000      -0.569183       -15.4883 
  64   2.0000      -0.563261       -15.3271 
  65   2.0000      -0.556763       -15.1503 
  66   2.0000      -0.555824       -15.1247 
  67   2.0000      -0.551360       -15.0033 
  68   2.0000      -0.549619       -14.9559 
  69   2.0000      -0.540575       -14.7098 
  70   2.0000      -0.537836       -14.6353 
  71   2.0000      -0.534191       -14.5361 
  72   2.0000      -0.526624       -14.3302 
  73   2.0000      -0.523480       -14.2446 
  74   2.0000      -0.518973       -14.1220 
  75   2.0000      -0.515208       -14.0195 
  76   2.0000      -0.506931       -13.7943 
  77   2.0000      -0.501912       -13.6577 
  78   2.0000      -0.500586       -13.6216 
  79   2.0000      -0.490517       -13.3477 
  80   2.0000      -0.487367       -13.2619 
  81   2.0000      -0.486977       -13.2513 
  82   2.0000      -0.485212       -13.2033 
  83   2.0000      -0.479163       -13.0387 
  84   2.0000      -0.468410       -12.7461 
  85   2.0000      -0.467333       -12.7168 
  86   2.0000      -0.463304       -12.6071 
  87   2.0000      -0.461823       -12.5669 
  88   2.0000      -0.454348       -12.3634 
  89   2.0000      -0.450964       -12.2714 
  90   2.0000      -0.448976       -12.2173 
  91   2.0000      -0.445975       -12.1356 
  92   2.0000      -0.437458       -11.9038 
  93   2.0000      -0.434986       -11.8366 
  94   2.0000      -0.429336       -11.6828 
  95   2.0000      -0.426802       -11.6139 
  96   2.0000      -0.423210       -11.5161 
  97   2.0000      -0.422169       -11.4878 
  98   2.0000      -0.417799       -11.3689 
  99   2.0000      -0.415091       -11.2952 
 100   2.0000      -0.409411       -11.1406 
 101   2.0000      -0.407752       -11.0955 
 102   2.0000      -0.405990       -11.0476 
 103   2.0000      -0.404471       -11.0062 
 104   2.0000      -0.392858       -10.6902 
 105   2.0000      -0.382512       -10.4087 
 106   2.0000      -0.372805       -10.1445 
 107   2.0000      -0.355854        -9.6833 
 108   2.0000      -0.335661        -9.1338 
 109   2.0000      -0.292580        -7.9615 
 110   0.0000       0.046504         1.2654 
 111   0.0000       0.099338         2.7031 
 112   0.0000       0.112349         3.0572 
 113   0.0000       0.129175         3.5150 
 114   0.0000       0.141887         3.8609 
 115   0.0000       0.144461         3.9310 
 116   0.0000       0.150359         4.0915 
 117   0.0000       0.153461         4.1759 
 118   0.0000       0.159542         4.3414 
 119   0.0000       0.164358         4.4724 
 120   0.0000       0.168032         4.5724 
*Only the first 10 virtual orbitals were printed.

                    ********************************
                    * MULLIKEN POPULATION ANALYSIS *
                    ********************************

-----------------------
MULLIKEN ATOMIC CHARGES
-----------------------
   0 C :   -0.173899
   1 C :    0.142226
   2 C :    0.068737
   3 H :    0.017214
   4 H :    0.030671
   5 C :   -0.170376
   6 C :    0.095320
   7 C :    0.023694
   8 H :    0.013715
   9 H :    0.027345
  10 H :    0.019950
  11 H :    0.022684
  12 O :   -0.359238
  13 H :    0.018198
  14 C :   -0.008777
  15 C :   -0.046709
  16 H :    0.035341
  17 H :    0.029379
  18 C :   -0.062183
  19 H :   -0.002361
  20 C :   -0.113670
  21 H :    0.003469
  22 C :    0.114622
  23 C :   -0.002217
  24 H :    0.014275
  25 H :    0.016997
  26 C :    0.106849
  27 H :    0.013118
  28 H :    0.015675
  29 C :   -0.405429
  30 H :    0.008981
  31 H :   -0.002000
  32 C :   -0.044707
  33 H :    0.011359
  34 C :    0.124307
  35 H :    0.179052
  36 C :    0.045798
  37 H :    0.007797
  38 H :    0.015733
  39 C :   -0.056484
  40 H :    0.013219
  41 H :    0.010323
  42 H :   -0.003727
  43 C :   -0.019329
  44 C :    0.091089
  45 H :    0.019349
  46 H :    0.024911
  47 H :    0.019186
  48 H :    0.003673
  49 C :    0.060766
  50 C :   -0.064072
  51 C :   -0.055264
  52 H :    0.008435
  53 H :    0.007160
  54 C :   -0.067852
  55 C :    0.034891
  56 C :   -0.163061
  57 H :    0.001707
  58 H :    0.007708
  59 C :    0.032430
  60 C :    0.029004
  61 H :    0.016294
  62 H :    0.026501
  63 H :    0.018426
  64 H :    0.024067
  65 H :    0.010901
  66 H :    0.017448
  67 H :    0.023746
  68 H :    0.018016
  69 H :    0.013537
  70 H :    0.029242
  71 H :    0.017910
  72 H :    0.018911
Sum of atomic charges:   -0.0000000

--------------------------------
MULLIKEN REDUCED ORBITAL CHARGES
--------------------------------
  0 C s       :     3.102344  s :     3.102344
      pz      :     1.016030  p :     3.028537
      px      :     1.004404
      py      :     1.008103
      dz2     :     0.004815  d :     0.043018
      dxz     :     0.006496
      dyz     :     0.005874
      dx2y2   :     0.014173
      dxy     :     0.011660

  1 C s       :     2.939465  s :     2.939465
      pz      :     0.988691  p :     2.883918
      px      :     0.930315
      py      :     0.964912
      dz2     :     0.007732  d :     0.034391
      dxz     :     0.006787
      dyz     :     0.004054
      dx2y2   :     0.009963
      dxy     :     0.005855

  2 C s       :     3.084922  s :     3.084922
      pz      :     0.740193  p :     2.775674
      px      :     1.044884
      py      :     0.990597
      dz2     :     0.022665  d :     0.070668
      dxz     :     0.011350
      dyz     :     0.017765
      dx2y2   :     0.011879
      dxy     :     0.007009

  3 H s       :     0.960130  s :     0.960130
      pz      :     0.004995  p :     0.022656
      px      :     0.003758
      py      :     0.013902

  4 H s       :     0.946017  s :     0.946017
      pz      :     0.014129  p :     0.023312
      px      :     0.004747
      py      :     0.004436

  5 C s       :     3.108895  s :     3.108895
      pz      :     0.976769  p :     3.016680
      px      :     0.984470
      py      :     1.055440
      dz2     :     0.009710  d :     0.044801
      dxz     :     0.005465
      dyz     :     0.009162
      dx2y2   :     0.010810
      dxy     :     0.009653

  6 C s       :     2.955420  s :     2.955420
      pz      :     1.001485  p :     2.913813
      px      :     0.948650
      py      :     0.963677
      dz2     :     0.008675  d :     0.035447
      dxz     :     0.006387
      dyz     :     0.004385
      dx2y2   :     0.008915
      dxy     :     0.007085

  7 C s       :     3.002756  s :     3.002756
      pz      :     0.985690  p :     2.938769
      px      :     0.980717
      py      :     0.972362
      dz2     :     0.007331  d :     0.034781
      dxz     :     0.006359
      dyz     :     0.004664
      dx2y2   :     0.008721
      dxy     :     0.007707

  8 H s       :     0.963453  s :     0.963453
      pz      :     0.005646  p :     0.022832
      px      :     0.003807
      py      :     0.013378

  9 H s       :     0.949257  s :     0.949257
      pz      :     0.014282  p :     0.023397
      px      :     0.004705
      py      :     0.004410

 10 H s       :     0.957226  s :     0.957226
      pz      :     0.013866  p :     0.022824
      px      :     0.004784
      py      :     0.004174

 11 H s       :     0.954689  s :     0.954689
      pz      :     0.008208  p :     0.022628
      px      :     0.006979
      py      :     0.007441

 12 O s       :     3.713551  s :     3.713551
      pz      :     1.415411  p :     4.633548
      px      :     1.336263
      py      :     1.881874
      dz2     :     0.005355  d :     0.012139
      dxz     :     0.001389
      dyz     :     0.001668
      dx2y2   :     0.003176
      dxy     :     0.000550

 13 H s       :     0.961453  s :     0.961453
      pz      :     0.001842  p :     0.020349
      px      :     0.014311
      py      :     0.004196

 14 C s       :     3.194412  s :     3.194412
      pz      :     0.993047  p :     2.778014
      px      :     0.870141
      py      :     0.914827
      dz2     :     0.003768  d :     0.036350
      dxz     :     0.007581
      dyz     :     0.003287
      dx2y2   :     0.011127
      dxy     :     0.010588

 15 C s       :     3.124245  s :     3.124245
      pz      :     1.006342  p :     2.896203
      px      :     0.984372
      py      :     0.905490
      dz2     :     0.005471  d :     0.026260
      dxz     :     0.004099
      dyz     :     0.004763
      dx2y2   :     0.006337
      dxy     :     0.005590

 16 H s       :     0.940119  s :     0.940119
      pz      :     0.007073  p :     0.024540
      px      :     0.008096
      py      :     0.009371

 17 H s       :     0.946007  s :     0.946007
      pz      :     0.004771  p :     0.024614
      px      :     0.004479
      py      :     0.015363

 18 C s       :     3.199939  s :     3.199939
      pz      :     1.031744  p :     2.827069
      px      :     0.878500
      py      :     0.916825
      dz2     :     0.003303  d :     0.035175
      dxz     :     0.006641
      dyz     :     0.003224
      dx2y2   :     0.012155
      dxy     :     0.009851

 19 H s       :     0.978044  s :     0.978044
      pz      :     0.004701  p :     0.024317
      px      :     0.004922
      py      :     0.014695

 20 C s       :     3.100054  s :     3.100054
      pz      :     0.957511  p :     2.969495
      px      :     0.988756
      py      :     1.023228
      dz2     :     0.004059  d :     0.044120
      dxz     :     0.007029
      dyz     :     0.007035
      dx2y2   :     0.014427
      dxy     :     0.011570

 21 H s       :     0.971941  s :     0.971941
      pz      :     0.004622  p :     0.024590
      px      :     0.004469
      py      :     0.015499

 22 C s       :     2.925973  s :     2.925973
      pz      :     1.001554  p :     2.923876
      px      :     0.975694
      py      :     0.946628
      dz2     :     0.009496  d :     0.035529
      dxz     :     0.004183
      dyz     :     0.005888
      dx2y2   :     0.009889
      dxy     :     0.006073

 23 C s       :     3.001157  s :     3.001157
      pz      :     1.011345  p :     2.964585
      px      :     0.966184
      py      :     0.987056
      dz2     :     0.009863  d :     0.036475
      dxz     :     0.007546
      dyz     :     0.003083
      dx2y2   :     0.010267
      dxy     :     0.005715

 24 H s       :     0.962524  s :     0.962524
      pz      :     0.004852  p :     0.023201
      px      :     0.013729
      py      :     0.004620

 25 H s       :     0.959738  s :     0.959738
      pz      :     0.013636  p :     0.023265
      px      :     0.004788
      py      :     0.004841

 26 C s       :     2.969149  s :     2.969149
      pz      :     0.968932  p :     2.888688
      px      :     0.974314
      py      :     0.945442
      dz2     :     0.006980  d :     0.035314
      dxz     :     0.006529
      dyz     :     0.005745
      dx2y2   :     0.008669
      dxy     :     0.007390

 27 H s       :     0.964030  s :     0.964030
      pz      :     0.013661  p :     0.022852
      px      :     0.004386
      py      :     0.004805

 28 H s       :     0.961682  s :     0.961682
      pz      :     0.004633  p :     0.022643
      px      :     0.003814
      py      :     0.014196

 29 C s       :     3.253922  s :     3.253922
      pz      :     1.045099  p :     3.100577
      px      :     0.998337
      py      :     1.057141
      dz2     :     0.011623  d :     0.050929
      dxz     :     0.010360
      dyz     :     0.009501
      dx2y2   :     0.010862
      dxy     :     0.008584

 30 H s       :     0.967940  s :     0.967940
      pz      :     0.009090  p :     0.023079
      px      :     0.007645
      py      :     0.006344

 31 H s       :     0.979457  s :     0.979457
      pz      :     0.013125  p :     0.022543
      px      :     0.004853
      py      :     0.004565

 32 C s       :     3.034413  s :     3.034413
      pz      :     0.988553  p :     2.966567
      px      :     0.947052
      py      :     1.030962
      dz2     :     0.008532  d :     0.043727
      dxz     :     0.007212
      dyz     :     0.008014
      dx2y2   :     0.011131
      dxy     :     0.008838

 33 H s       :     0.967357  s :     0.967357
      pz      :     0.012353  p :     0.021284
      px      :     0.004099
      py      :     0.004833

 34 C s       :     2.893759  s :     2.893759
      pz      :     0.988965  p :     2.947115
      px      :     0.975126
      py      :     0.983025
      dz2     :     0.005494  d :     0.034818
      dxz     :     0.005776
      dyz     :     0.008249
      dx2y2   :     0.008854
      dxy     :     0.006445

 35 H s       :     0.752162  s :     0.752162
[...]
 Total          142.661          174.229          191.272  iso=     169.387

 Orientation: 
  X           0.2477461   -0.5885794    0.7695429
  Y          -0.1459360   -0.8079139   -0.5709447
  Z           0.9577706    0.0291453   -0.2860524

 --------------
 Nucleus  39C :
 --------------

Diamagnetic contribution to the shielding tensor (ppm) : 
           265.854          4.345        -8.651
             5.450        256.552         5.339
            -7.762          4.780       267.019

Paramagnetic contribution to the shielding tensor (ppm): 
          -100.750         -2.191        10.442
             0.888       -127.640        -1.424
            14.365         -4.263      -140.557

Total shielding tensor (ppm): 
           165.104          2.154         1.791
             6.337        128.912         3.916
             6.603          0.517       126.462


 Diagonalized sT*s matrix:
 
 sDSO           261.228          262.938          265.258  iso=     263.141
 sPSO          -136.136         -133.638          -99.172  iso=    -122.982
        ---------------  ---------------  ---------------
 Total          125.092          129.300          166.086  iso=     140.159

 Orientation: 
  X          -0.0395327   -0.1472103   -0.9883149
  Y          -0.4722821    0.8743861   -0.1113492
  Z           0.8805605    0.4623615   -0.1040916

 --------------
 Nucleus  43C :
 --------------

Diamagnetic contribution to the shielding tensor (ppm) : 
           258.633         -1.669        -7.061
            -0.360        242.197         9.787
           -10.448          4.041       253.184

Paramagnetic contribution to the shielding tensor (ppm): 
           -94.003         -2.010        -0.448
             2.261        -85.424        -7.515
             3.262          1.117       -90.588

Total shielding tensor (ppm): 
           164.630         -3.679        -7.509
             1.901        156.773         2.272
            -7.186          5.158       162.596


 Diagonalized sT*s matrix:
 
 sDSO           239.169          248.760          266.084  iso=     251.338
 sPSO           -85.186          -90.437          -94.392  iso=     -90.005
        ---------------  ---------------  ---------------
 Total          153.984          158.324          171.692  iso=     161.333

 Orientation: 
  X          -0.3607227    0.5978982   -0.7158190
  Y           0.6987001    0.6816318    0.2172469
  Z          -0.6178166    0.4217769    0.6636316

 --------------
 Nucleus  44C :
 --------------

Diamagnetic contribution to the shielding tensor (ppm) : 
           250.487          0.740         0.557
             0.512        252.831        -1.486
            -1.498          2.328       274.137

Paramagnetic contribution to the shielding tensor (ppm): 
           -71.362         -5.164        -1.474
            -3.235        -72.532        -1.833
             0.908         -6.083       -80.860

Total shielding tensor (ppm): 
           179.125         -4.423        -0.917
            -2.723        180.299        -3.320
            -0.590         -3.756       193.277


 Diagonalized sT*s matrix:
 
 sDSO           252.782          252.088          272.584  iso=     259.152
 sPSO           -77.173          -69.177          -78.404  iso=     -74.918
        ---------------  ---------------  ---------------
 Total          175.610          182.911          194.181  iso=     184.234

 Orientation: 
  X           0.7219215    0.6918931    0.0106453
  Y           0.6718552   -0.6971653   -0.2501425
  Z           0.1656503   -0.1877353    0.9681505

 --------------
 Nucleus  49C :
 --------------

Diamagnetic contribution to the shielding tensor (ppm) : 
           243.865         -5.825        -3.189
           -13.111        252.450         9.555
           -11.911          6.786       252.088

Paramagnetic contribution to the shielding tensor (ppm): 
           -64.156          3.219        -2.354
             9.868        -69.672        -3.982
             4.498         -2.360       -76.503

Total shielding tensor (ppm): 
           179.708         -2.606        -5.543
            -3.243        182.778         5.573
            -7.413          4.426       175.585


 Diagonalized sT*s matrix:
 
 sDSO           242.732          239.319          266.352  iso=     249.468
 sPSO           -72.394          -60.699          -77.239  iso=     -70.110
        ---------------  ---------------  ---------------
 Total          170.338          178.620          189.113  iso=     179.357

 Orientation: 
  X           0.5069518   -0.6578298    0.5570097
  Y          -0.2163154   -0.7226141   -0.6565337
  Z           0.8343905    0.2123412   -0.5086293

 --------------
 Nucleus  50C :
 --------------

Diamagnetic contribution to the shielding tensor (ppm) : 
           274.266         -2.193        10.499
             8.500        256.309        -5.261
             9.118          1.962       251.607

Paramagnetic contribution to the shielding tensor (ppm): 
          -179.925        -17.750       -51.597
           -27.351       -293.424       -27.465
           -49.512        -32.015      -125.193

Total shielding tensor (ppm): 
            94.341        -19.943       -41.099
           -18.851        -37.115       -32.726
           -40.394        -30.053       126.414


 Diagonalized sT*s matrix:
 
 sDSO           258.081          274.433          249.667  iso=     260.727
 sPSO          -306.167         -198.091          -94.283  iso=    -199.514
        ---------------  ---------------  ---------------
 Total          -48.086           76.342          155.384  iso=      61.213

 Orientation: 
  X          -0.1930631    0.8244360   -0.5320074
  Y          -0.9602706   -0.2701185   -0.0701167
  Z          -0.2015118    0.4973341    0.8438316

 --------------
 Nucleus  51C :
 --------------

Diamagnetic contribution to the shielding tensor (ppm) : 
           270.121         -2.701        13.948
            -4.078        266.743        10.475
            10.864         12.760       247.237

Paramagnetic contribution to the shielding tensor (ppm): 
          -187.108        -20.710       -60.934
            -6.732       -295.684       -44.150
           -47.184        -51.482      -111.331

Total shielding tensor (ppm): 
            83.014        -23.410       -46.986
           -10.810        -28.941       -33.675
           -36.320        -38.722       135.906


 Diagonalized sT*s matrix:
 
 sDSO           272.428          272.310          239.364  iso=     261.367
 sPSO          -307.967         -208.570          -77.585  iso=    -198.041
        ---------------  ---------------  ---------------
 Total          -35.539           63.739          161.779  iso=      63.326

 Orientation: 
  X          -0.4207110    0.8022456   -0.4235615
  Y          -0.8522399   -0.5095352   -0.1185794
  Z          -0.3109492    0.3110883    0.8980727

 --------------
 Nucleus  54C :
 --------------

Diamagnetic contribution to the shielding tensor (ppm) : 
           255.129          2.850         0.259
            -0.718        244.960        -1.095
            -4.805          2.104       247.892

Paramagnetic contribution to the shielding tensor (ppm): 
          -110.579          2.128         7.270
             4.135        -92.306         2.356
            12.662          0.673       -88.284

Total shielding tensor (ppm): 
           144.549          4.977         7.530
             3.417        152.654         1.261
             7.857          2.778       159.608


 Diagonalized sT*s matrix:
 
 sDSO           254.628          245.597          247.756  iso=     249.327
 sPSO          -114.133          -93.241          -83.795  iso=     -97.057
        ---------------  ---------------  ---------------
 Total          140.494          152.356          163.961  iso=     152.270

 Orientation: 
  X           0.9061725   -0.1153993    0.4068592
  Y          -0.2549957   -0.9165905    0.3079596
  Z          -0.3373849    0.3828119    0.8600154

 --------------
 Nucleus  55C :
 --------------

Diamagnetic contribution to the shielding tensor (ppm) : 
           256.803         -1.824        -1.761
            -1.589        237.725        -1.529
           -19.453         -5.116       221.544

Paramagnetic contribution to the shielding tensor (ppm): 
           -68.304          0.265        -5.490
            -3.783        -70.963         3.822
             9.472          4.815       -45.254

Total shielding tensor (ppm): 
           188.500         -1.559        -7.252
            -5.372        166.762         2.293
            -9.982         -0.301       176.290


 Diagonalized sT*s matrix:
 
 sDSO           237.112          221.128          257.832  iso=     238.691
 sPSO           -70.904          -49.206          -64.410  iso=     -61.507
        ---------------  ---------------  ---------------
 Total          166.207          171.922          193.423  iso=     177.184

 Orientation: 
  X           0.1663084   -0.4351914   -0.8848446
  Y           0.9846361    0.1217292    0.1251945
  Z           0.0532279   -0.8920709    0.4487497

 --------------
 Nucleus  56C :
 --------------

Diamagnetic contribution to the shielding tensor (ppm) : 
           248.706          2.037         1.359
             8.043        241.900         2.170
            13.343         -0.948       250.465

Paramagnetic contribution to the shielding tensor (ppm): 
           -91.069         -3.042        -0.694
            -8.134        -79.106        -5.080
           -12.931         -0.368       -75.474

Total shielding tensor (ppm): 
           157.638         -1.005         0.665
            -0.091        162.794        -2.910
             0.413         -1.316       174.991


 Diagonalized sT*s matrix:
 
 sDSO           249.323          241.274          250.473  iso=     247.024
 sPSO           -91.749          -78.794          -75.105  iso=     -81.883
        ---------------  ---------------  ---------------
 Total          157.574          162.480          175.368  iso=     165.141

 Orientation: 
  X           0.9952670   -0.0908689    0.0344461
  Y           0.0953356    0.9817015   -0.1648434
  Z          -0.0188366    0.1673472    0.9857181

 --------------
 Nucleus  59C :
 --------------

Diamagnetic contribution to the shielding tensor (ppm) : 
           247.798         -4.489       -11.361
             2.835        250.378         7.360
            13.773          7.508       265.864

Paramagnetic contribution to the shielding tensor (ppm): 
           -61.041          3.927         4.039
            -9.615        -87.783        -4.927
           -24.696         -7.132       -90.161

Total shielding tensor (ppm): 
           186.756         -0.562        -7.322
            -6.781        162.595         2.433
           -10.924          0.376       175.703


 Diagonalized sT*s matrix:
 
 sDSO           250.066          261.955          252.018  iso=     254.680
 sPSO           -88.014          -91.353          -59.618  iso=     -79.662
        ---------------  ---------------  ---------------
 Total          162.052          170.602          192.400  iso=     175.018

 Orientation: 
  X           0.1357700   -0.4755208   -0.8691642
  Y           0.9907365    0.0626957    0.1204596
  Z          -0.0027882   -0.8774675    0.4796280

 --------------
 Nucleus  60C :
 --------------

Diamagnetic contribution to the shielding tensor (ppm) : 
           244.426          5.638        11.534
             8.230        228.612         3.972
            24.621         -3.285       228.218

Paramagnetic contribution to the shielding tensor (ppm): 
           -60.604          1.406        -3.939
             3.753        -57.070         0.975
           -12.654          7.496       -53.269

Total shielding tensor (ppm): 
           183.822          7.043         7.595
            11.983        171.542         4.947
            11.967          4.211       174.948


 Diagonalized sT*s matrix:
 
 sDSO           223.620          221.522          256.113  iso=     233.752
 sPSO           -57.379          -52.298          -61.267  iso=     -56.981
        ---------------  ---------------  ---------------
 Total          166.241          169.225          194.846  iso=     176.771

 Orientation: 
  X           0.5355646    0.3166551    0.7828794
  Y          -0.8250417    0.3940199    0.4050364
  Z          -0.1802132   -0.8628313    0.4722768



--------------------------------
CHEMICAL SHIELDING SUMMARY (ppm)
--------------------------------


  Nucleus  Element    Isotropic     Anisotropy
  -------  -------  ------------   ------------
      0       C           61.393        151.868 
      1       C          154.525         12.206 
      2       C          132.342         50.910 
      5       C           50.792        177.681 
      6       C          167.967         31.840 
      7       C          164.872         17.250 
     14       C           71.776        133.193 
     15       C           83.775        119.486 
     18       C           80.192        133.954 
     20       C           52.185        175.620 
     22       C          169.013          7.044 
     23       C          174.140         13.218 
     26       C          158.813         23.500 
     29       C          153.690         17.722 
     32       C          143.271         27.434 
     34       C          174.774         23.792 
     36       C          169.387         32.827 
     39       C          140.159         38.890 
     43       C          161.333         15.538 
     44       C          184.234         14.920 
     49       C          179.357         14.634 
     50       C           61.213        141.255 
     51       C           63.326        147.678 
     54       C          152.270         17.536 
     55       C          177.184         24.359 
     56       C          165.141         15.341 
     59       C          175.018         26.073 
     60       C          176.771         27.113 


NMR shielding tensor and spin rotation calculation done in   1.0 sec 

Maximum memory used throughout the entire PROP-calculation: 52.0 MB

--------------------------------
SUGGESTED CITATIONS FOR THIS RUN
--------------------------------

Below you find a list of papers that are relevant to this ORCA run
We neither can nor want to force you to cite these papers, but we appreciate if you do
You receive ORCA, which is the product of decades of hard work by many enthusiastic individuals, for free
The only thing we kindly ask in return is that you cite our papers,
We deeply appreciate it, if you show your appreciation for ORCA by not just citing the generic ORCA reference.

Please note that relegating all ORCA citations to the supporting information does *not* help us.
SI sections are not indexed - citations you put there will not count into any citation statistics
But we need these citations in order to attract the funding resources that allow us to do what we are doing

Therefore, if you are a happy ORCA user, please consider citing a few of the papers listed below in the main body of your paper

In addition to the list printed below, the program has created the file inpS.bibtex that contains the list in bibtex format
You can import this file easily into all common literature databanks and citation aid programs


List of essential papers. We consider these as the minimum necessary citations

  1. Neese,F.
     Software update: the ORCA program system, version 5.0
     WIRES Comput. Molec. Sci., 2022 12(1)e1606
     doi.org/10.1002/wcms.1606

List of papers to cite with high priority. The work reported in these papers was absolutely
necessary for this run to complete.
Our perspective: the developers of density functionals and basis sets usually get cited in chemistry papers
Good! But without the algorithms to do something with them, the functionals or basis sets would not do anything.
Hence, in our opinion, the algorithm design and method developments papers are equally worthy of getting cited

  1. Neese,F.
     An improvement of the resolution of the identity approximation for the formation of the Coulomb matrix
     J. Comp. Chem., 2003 24(14)1740-1747
     doi.org/10.1002/jcc.10318
  2. Neese,F.; Wennmohs,F.; Hansen,A.; Becker,U.
     Efficient, approximate and parallel Hartree-Fock and hybrid DFT calculations. A 'chain-of-spheres' algorithm for the Hartree-Fock exchange
     Chem. Phys., 2009 356(1-3)98-109
     doi.org/10.1016/j.chemphys.2008.10.036
  3. Stoychev,G.L.; Auer,A.A.; Izsak,R.; Neese,F.
     Self-Consistent Field Calculation of Nuclear Magnetic Resonance Chemical Shielding Constants Using Gauge-Including Atomic Orbitals and Approximate Two-Electron Integrals
     J. Chem. Theory Comput., 2018 14(2)619-637
     doi.org/10.1021/acs.jctc.7b01006
  4. Garcia-Rates,M.; Neese,F.
     Effect of the Solute Cavity on the Solvation Energy and its Derivatives within the Framework of the Gaussian Charge Scheme
     J. Comput. Chem., 2020 41 922-939
     doi.org/10.1002/jcc.26139
  5. Helmich-Paris,B.; de Souza,B.; Neese,F.; Izsák,R.
     An improved chain of spheres for exchange algorithm
     J. Chem. Phys., 2021 155 104109
     doi.org/doi: 10.1063/5.0058766.
  6. Neese,F.
     The SHARK Integral Generation and Digestion System
     J. Comp. Chem., 2022  1-16
     doi.org/10.1002/jcc.26942
  7. Caldeweyher,E.; Bannwarth,C.; Grimme,S.
     Extension of the D3 dispersion coefficient model
     J. Chem. Phys., 2017 147 034112-XXXX
     doi.org/10.1063/1.4993215
  8. Caldeweyher,E.; Ehlert,S.; Hansen,A.; Neugebauer,H.; Spicher,S.; Bannwarth,C.; Grimme,S.
     A generally applicable atomic-charge dependent London dispersion correction
     J. Chem. Phys., 2019 150 154122-XXXX
     doi.org/10.1063/1.5090222
  9. Caldeweyher,E.; Mewes,J.; Ehlert,S.; Grimme,S.
     Extension and evaluation of the D4 London-dispersion model for periodic systems
     Phys. Chem. Chem. Phys., 2020 22(16)8499-8512
     doi.org/10.1039/D0CP00502A

List of suggested additional citations. These are papers that are important in the 'surrounding' of 
of this run, or papers that preceded the highly important papers. If you like your results we are grateful for a citation.

  1. Izsak,R.; Neese,F.
     An overlap fitted chain of spheres exchange method
     J. Chem. Phys., 2011 135 144105
     doi.org/10.1063/1.3646921
  2. Izsak,R.; Hansen,A.; Neese,F.
     The resolution of identity and chain of spheres approximations for the LPNO-CCSD singles Fock term
     Molec. Phys., 2012 110 2413-2417
     doi.org/10.1080/00268976.2012.687466
  3. Neese,F.
     The ORCA program system
     WIRES Comput. Molec. Sci., 2012 2(1)73-78
     doi.org/10.1002/wcms.81
  4. Izsak,R.; Neese,F.; Klopper,W.
     Robust fitting techniques in the chain of spheres approximation to the Fock exchange: The role of the complementary space
     J. Chem. Phys., 2013 139 
     doi.org/10.1063/1.4819264
  5. Neese,F.
     Software update: the ORCA program system, version 4.0
     WIRES Comput. Molec. Sci., 2018 8(1)1-6
     doi.org/10.1002/wcms.1327
  6. Neese,F.; Wennmohs,F.; Becker,U.; Riplinger,C.
     The ORCA quantum chemistry program package
     J. Chem. Phys., 2020 152 Art. No. L224108
     doi.org/10.1063/5.0004608

Timings for individual modules:

Sum of individual times          ...      177.602 sec (=   2.960 min)
Startup calculation              ...        4.578 sec (=   0.076 min)   2.6 %
SCF iterations                   ...       71.856 sec (=   1.198 min)  40.5 %
Property integrals               ...       60.937 sec (=   1.016 min)  34.3 %
SCF Response                     ...       38.907 sec (=   0.648 min)  21.9 %
Property calculations            ...        1.323 sec (=   0.022 min)   0.7 %
                             ****ORCA TERMINATED NORMALLY****
TOTAL RUN TIME: 0 days 0 hours 2 minutes 57 seconds 899 msec
