
                                 *****************
                                 * O   R   C   A *
                                 *****************

                                            #,                                       
                                            ###                                      
                                            ####                                     
                                            #####                                    
                                            ######                                   
                                           ########,                                 
                                     ,,################,,,,,                         
                               ,,#################################,,                 
                          ,,##########################################,,             
                       ,#########################################, ''#####,          
                    ,#############################################,,   '####,        
                  ,##################################################,,,,####,       
                ,###########''''           ''''###############################       
              ,#####''   ,,,,##########,,,,          '''####'''          '####       
            ,##' ,,,,###########################,,,                        '##       
           ' ,,###''''                  '''############,,,                           
         ,,##''                                '''############,,,,        ,,,,,,###''
      ,#''                                            '''#######################'''  
     '                                                          ''''####''''         
             ,#######,   #######,   ,#######,      ##                                
            ,#'     '#,  ##    ##  ,#'     '#,    #''#        ,####,   ,####,        
            ##       ##  ##   ,#'  ##            #'  '#       #'       #'  '#        
            ##       ##  #######   ##           ,######,      #####,   #    #        
            '#,     ,#'  ##    ##  '#,     ,#' ,#      #,     #,   #   #,  ,#        
             '#######'   ##     ##  '#######'  #'      '#     '####' # '####'        



                #########################################################
                #                        -***-                          #
                #          Department of theory and spectroscopy        #
                #                                                       #
                #                      Frank Neese                      #
                #                                                       #
                #     Directorship, Architecture, Infrastructure        #
                #                    SHARK, DRIVERS                     #
                #        Core code/Algorithms in most modules           #
                #                                                       #
                #        Max Planck Institute fuer Kohlenforschung      #
                #                Kaiser Wilhelm Platz 1                 #
                #                 D-45470 Muelheim/Ruhr                 #
                #                      Germany                          #
                #                                                       #
                #                  All rights reserved                  #
                #                        -***-                          #
                #########################################################


                         Program Version 6.0.0  -   RELEASE  -


 With contributions from (in alphabetic order):
   Daniel Aravena         : Magnetic Suceptibility
   Michael Atanasov       : Ab Initio Ligand Field Theory (pilot matlab implementation)
   Alexander A. Auer      : GIAO ZORA, VPT2 properties, NMR spectrum
   Ute Becker             : All parallelization in ORCA, NUMFREQ, NUMCALC
   Giovanni Bistoni       : ED, misc. LED, open-shell LED, HFLD
   Martin Brehm           : Molecular dynamics
   Dmytro Bykov           : pre 5.0 version of the SCF Hessian
   Marcos Casanova-Páez   : Triplet and SCS-CIS(D). UHF-(DLPNO)-IP/EA/STEOM-CCSD. UHF-CVS-IP/STEOM-CCSD
   Vijay G. Chilkuri      : MRCI spin determinant printing, contributions to CSF-ICE
   Pauline Colinet        : FMM embedding
   Dipayan Datta          : RHF DLPNO-CCSD density
   Achintya Kumar Dutta   : EOM-CC, STEOM-CC
   Nicolas Foglia         : Exact transition moments, OPA infrastructure, MCD improvements
   Dmitry Ganyushin       : Spin-Orbit,Spin-Spin,Magnetic field MRCI
   Miquel Garcia          : C-PCM and meta-GGA Hessian, CCSD/C-PCM, Gaussian charge scheme
   Tiago L. C. Gouveia    : GS-ROHF, GS-ROCIS
   Yang Guo               : DLPNO-NEVPT2, F12-NEVPT2, CIM, IAO-localization
   Andreas Hansen         : Spin unrestricted coupled pair/coupled cluster methods
   Ingolf Harden          : AUTO-CI MPn and infrastructure 
   Benjamin Helmich-Paris : MC-RPA, TRAH-(SCF,CASSCF), AVAS, COSX integrals, SCF dyn. polar.
   Lee Huntington         : MR-EOM, pCC
   Robert Izsak           : Overlap fitted RIJCOSX, COSX-SCS-MP3, EOM
   Riya Kayal             : Wick's Theorem for AUTO-CI, AUTO-CI UHF-CCSDT
   Emily Kempfer          : AUTO-CI, RHF CISDT and CCSDT
   Christian Kollmar      : KDIIS, OOCD, Brueckner-CCSD(T), CCSD density, CASPT2, CASPT2-K, improved NEVPT2
   Axel Koslowski         : Symmetry handling
   Simone Kossmann        : Meta GGA functionals, TD-DFT gradient, OOMP2, (MP2 Hessian; deprecated post 5.0)
   Lucas Lang             : DCDCAS
   Marvin Lechner         : AUTO-CI (C++ implementation), FIC-MRCC
   Spencer Leger          : CASSCF response
   Dagmar Lenk            : GEPOL surface, SMD, ORCA-2-JSON
   Dimitrios Liakos       : Extrapolation schemes; Compound Job, initial MDCI parallelization
   Dimitrios Manganas     : Further ROCIS development; embedding schemes. LFT, Crystal Embedding
   Dimitrios Pantazis     : SARC Basis sets
   Anastasios Papadopoulos: AUTO-CI, single reference methods and gradients
   Taras Petrenko         : pre 6.0 DFT Hessian and TD-DFT gradient, (ASA, deprecated), ECA, 1-Electron XAS/XES, NRVS
   Peter Pinski           : DLPNO-MP2, DLPNO-MP2 Gradient
   Christoph Reimann      : Effective Core Potentials
   Marius Retegan         : Local ZFS, SOC
   Christoph Riplinger    : Optimizer, TS searches, QM/MM, DLPNO-CCSD(T), (RO)-DLPNO pert. Triples
   Michael Roemelt        : Original ROCIS implementation
   Masaaki Saitow         : Open-shell DLPNO-CCSD energy and density
   Barbara Sandhoefer     : DKH picture change effects
   Kantharuban Sivalingam : CASSCF convergence/infrastructure, NEVPT2 and variants, FIC-MRCI
   Bernardo de Souza      : ESD, SOC TD-DFT
   Georgi Stoychev        : AutoAux, RI-MP2 NMR, DLPNO-MP2 response, X2C
   Van Anh Tran           : RI-MP2 g-tensors
   Willem Van den Heuvel  : Paramagnetic NMR
   Zikuan Wang            : NOTCH, Electric field optimization 
   Frank Wennmohs         : Technical directorship and infrastructure
   Hang Xu                : AUTO-CI-Response properties 


 We gratefully acknowledge several colleagues who have allowed us to
 interface, adapt or use parts of their codes:
   Stefan Grimme, W. Hujo, H. Kruse, P. Pracht,  : VdW corrections, initial TS optimization,
                  C. Bannwarth, S. Ehlert,         DFT functionals, gCP, sTDA/sTD-DF
                  L. Wittmann, M. Mueller
   Ed Valeev, F. Pavosevic, A. Kumar             : LibInt (2-el integral package), F12 methods
   Garnet Chan, S. Sharma, J. Yang, R. Olivares  : DMRG
   Ulf Ekstrom                                   : XCFun DFT Library
   Mihaly Kallay                                 : mrcc  (arbitrary order and MRCC methods)
   Frank Weinhold                                : gennbo (NPA and NBO analysis)
   Simon Mueller                                 : openCOSMO-RS
   Christopher J. Cramer and Donald G. Truhlar   : smd solvation model
   Lars Goerigk                                  : TD-DFT with DH, B97 family of functionals
   V. Asgeirsson, H. Jonsson                     : NEB implementation
   FAccTs GmbH                                   : IRC, NEB, NEB-TS, DLPNO-Multilevel, CI-OPT
                                                   MM, QMMM, 2- and 3-layer-ONIOM, Crystal-QMMM,
                                                   LR-CPCM, SF, NACMEs, symmetry and pop. for TD-DFT,
                                                   nearIR, NL-DFT gradient (VV10), updates on ESD,
                                                   ML-optimized integration grids, MBIS, APM,
                                                   GOAT, DOCKER, SOLVATOR, interface openCOSMO-RS
   S Lehtola, MJT Oliveira, MAL Marques          : LibXC Library
   Liviu Ungur et al                             : ANISO software


 Your calculation uses the libint2 library for the computation of 2-el integrals
 For citations please refer to: http://libint.valeyev.net

 Your ORCA version has been built with support for libXC version: 6.2.2
 For citations please refer to: https://libxc.gitlab.io

 This ORCA versions uses:
   CBLAS   interface :  Fast vector & matrix operations
   LAPACKE interface :  Fast linear algebra routines
   SCALAPACK package :  Parallel linear algebra routines
   Shared memory     :  Shared parallel matrices
   BLAS/LAPACK       :  OpenBLAS 0.3.27  USE64BITINT DYNAMIC_ARCH NO_AFFINITY Zen SINGLE_THREADED
        Core in use  :  Zen
   Copyright (c) 2011-2014, The OpenBLAS Project


NOTE: MaxCore=8000 MB was set to SCF,MP2,MDCI,CIPSI,MRCI and CIS
      => If you want to overwrite this, your respective input block should be placed after the MaxCore statement
Your calculation utilizes the atom-pairwise dispersion correction
based on EEQ partial charges (D4)


================================================================================

----- Orbital basis set information -----
Your calculation utilizes the basis: def2-SVP
   F. Weigend and R. Ahlrichs, Phys. Chem. Chem. Phys. 7, 3297 (2005).

----- AuxJ basis set information -----
Your calculation utilizes the auxiliary basis: def2/J
   F. Weigend, Phys. Chem. Chem. Phys. 8, 1057 (2006).

================================================================================
                                        WARNINGS
                       Please study these warnings very carefully!
================================================================================

WARNING: Old DensityContainer found on disk!
         Will remove this file - 
         If you want to keep old densities, please start your calculation with a different basename. 


================================================================================
                                       INPUT FILE
================================================================================
NAME = inpS
|  1> ! wb97x-d4
|  2> ! def2-svp
|  3> ! def2/J RIJCOSX
|  4> ! DEFGRID2
|  5> ! scfconv7
|  6> ! smallprint printgap noloewdin
|  7> ! NOSOSCF
|  8> %MaxCore 8000
|  9> %output
| 10>        print[P_BondOrder_M] 1
| 11>        print[P_Mayer] 1
| 12>        print[P_basis] 2
| 13> end
| 14> %pal
| 15>     nprocs 4
| 16> end
| 17> ! CPCM(chloroform)
| 18> *xyz 0 1
| 19> C   -5.0218538000   0.2468798900  -0.5055749100
| 20> C   -6.4740972300  -0.1328056400  -0.6752551400
| 21> C   -7.3750759500   0.8220438000   0.1182028200
| 22> H   -6.6446574700  -1.1657098300  -0.3511673700
| 23> H   -6.7575160100  -0.0589792500  -1.7357009600
| 24> C   -4.7281186600   1.6599273500  -0.8319827900
| 25> C   -5.6502033700   2.6599144100  -0.1698669200
| 26> C   -7.1267257100   2.2666596000  -0.3187790900
| 27> H   -5.4757111300   3.6620970200  -0.5756953800
| 28> H   -5.4029131100   2.7004184300   0.9019019700
| 29> H   -7.4296250400   2.3662028100  -1.3700597300
| 30> H   -7.7572465900   2.9414610200   0.2716916500
| 31> O   -7.1736783700   0.6528040400   1.5312992800
| 32> H   -8.4266581700   0.5625402500  -0.0556722100
| 33> C   -4.1156911900  -0.6408032300  -0.0312194500
| 34> C   -3.7560510000   2.0288648500  -1.6734207200
| 35> H   -3.1150729100   1.2942530500  -2.1535683000
| 36> H   -3.5872994100   3.0772730000  -1.9079518500
| 37> C   -2.7292346300  -0.3661210300   0.2692747800
| 38> H   -4.4848695800  -1.6461021600   0.1682317500
| 39> C   -1.7927142700  -1.2698563300   0.6279747300
| 40> H   -2.4281399100   0.6770419800   0.2030118300
| 41> C   -2.0037593500  -2.7584073900   0.7380565400
| 42> C   -1.0051661300  -3.5354728200  -0.1422028000
| 43> H   -3.0252830600  -3.0543320300   0.4846355400
| 44> H   -1.8332819900  -3.0484457100   1.7869879500
| 45> C    0.4493501000  -3.1067673900   0.0935175100
| 46> H   -1.2698169800  -3.3884754300  -1.1970027500
| 47> H   -1.1088257200  -4.6088860500   0.0584524100
| 48> C    0.6309439500  -1.5903009000  -0.0583566100
| 49> H    1.0976724800  -3.6568066000  -0.5965506600
| 50> H    0.7501035800  -3.3925347100   1.1128183100
| 51> C   -0.3716158300  -0.8979681900   0.9205138700
| 52> H   -0.1328767700  -1.3293475100   1.9098713500
| 53> C    0.0763273600   0.5607532400   0.9443946800
| 54> H   -6.2215700300   0.5684301500   1.6829144500
| 55> C    1.6183872100   0.4695616600   0.8358892000
| 56> H   -0.2579688400   1.0783129200   1.8496379500
| 57> H   -0.3346910500   1.1086698300   0.0891854700
| 58> C    1.9673143800  -1.0059523900   0.4766783800
| 59> H    2.1122675700   0.7651561800   1.7668736900
| 60> H    1.9970957200   1.1435593600   0.0585935800
| 61> H    2.1947481000  -1.5494250600   1.4086523400
| 62> C    3.2254356800  -1.0874247300  -0.4113814400
| 63> C    0.3808655700  -1.1455737100  -1.5060877600
| 64> H    0.6154324400  -0.0857389400  -1.6476596500
| 65> H   -0.6647299000  -1.2898974500  -1.7952113800
| 66> H    1.0049002200  -1.7193536000  -2.2000816000
| 67> H    3.0322125800  -0.5261024600  -1.3373703800
| 68> C    3.6226364800  -2.5251820300  -0.7785208000
| 69> C    4.3785192100  -0.4297416400   0.3008565500
| 70> C    5.0780520400   0.6012088100  -0.1716871500
| 71> H    4.6344772200  -0.8760993400   1.2641630800
| 72> H    4.7852002600   1.0088475000  -1.1438837400
| 73> C    6.2457395300   1.3120986300   0.4682729600
| 74> C    7.3693499700   1.4726793900  -0.5702507200
| 75> C    6.7280336000   0.6972170800   1.7995660300
| 76> H    5.8901259400   2.3299829700   0.7054574700
| 77> H    5.8278732400   0.4874303100   2.3954294000
| 78> C    7.5707677400   1.6929898700   2.6027667500
| 79> C    7.4962687400  -0.6158270900   1.6140237200
| 80> H    7.7259879400   0.4973868700  -0.9178826200
| 81> H    8.2213532600   2.0248874200  -0.1610467900
| 82> H    7.0025379100   2.0231558500  -1.4431766200
| 83> H    7.0218582800   2.6243524500   2.7826021000
| 84> H    8.5010109900   1.9427600400   2.0795332400
| 85> H    7.8451774900   1.2683947300   3.5749984500
| 86> H    6.9598476700  -1.3175490700   0.9674605400
| 87> H    7.6609536300  -1.1016968300   2.5821716100
| 88> H    8.4798811600  -0.4308605500   1.1670286000
| 89> H    2.8859437900  -2.9970477100  -1.4336271900
| 90> H    3.7227566600  -3.1427041900   0.1227494700
| 91> H    4.5864206600  -2.5288810700  -1.2989523700
| 92> *
| 93> %eprnmr
| 94>  Nuclei = all C { shift }
| 95>  origin giao
| 96>  giao_2el giao_2el_same_as_scf
| 97>  giao_1el giao_1el_analytic
| 98> end
| 99> 
|100>                          ****END OF INPUT****
================================================================================

                       ****************************
                       * Single Point Calculation *
                       ****************************

---------------------------------
CARTESIAN COORDINATES (ANGSTROEM)
---------------------------------
  C     -5.021854    0.246880   -0.505575
  C     -6.474097   -0.132806   -0.675255
  C     -7.375076    0.822044    0.118203
  H     -6.644657   -1.165710   -0.351167
  H     -6.757516   -0.058979   -1.735701
  C     -4.728119    1.659927   -0.831983
  C     -5.650203    2.659914   -0.169867
  C     -7.126726    2.266660   -0.318779
  H     -5.475711    3.662097   -0.575695
  H     -5.402913    2.700418    0.901902
  H     -7.429625    2.366203   -1.370060
  H     -7.757247    2.941461    0.271692
  O     -7.173678    0.652804    1.531299
  H     -8.426658    0.562540   -0.055672
  C     -4.115691   -0.640803   -0.031219
  C     -3.756051    2.028865   -1.673421
  H     -3.115073    1.294253   -2.153568
  H     -3.587299    3.077273   -1.907952
  C     -2.729235   -0.366121    0.269275
  H     -4.484870   -1.646102    0.168232
  C     -1.792714   -1.269856    0.627975
  H     -2.428140    0.677042    0.203012
  C     -2.003759   -2.758407    0.738057
  C     -1.005166   -3.535473   -0.142203
  H     -3.025283   -3.054332    0.484636
  H     -1.833282   -3.048446    1.786988
  C      0.449350   -3.106767    0.093518
  H     -1.269817   -3.388475   -1.197003
  H     -1.108826   -4.608886    0.058452
  C      0.630944   -1.590301   -0.058357
  H      1.097672   -3.656807   -0.596551
  H      0.750104   -3.392535    1.112818
  C     -0.371616   -0.897968    0.920514
  H     -0.132877   -1.329348    1.909871
  C      0.076327    0.560753    0.944395
  H     -6.221570    0.568430    1.682914
  C      1.618387    0.469562    0.835889
  H     -0.257969    1.078313    1.849638
  H     -0.334691    1.108670    0.089185
  C      1.967314   -1.005952    0.476678
  H      2.112268    0.765156    1.766874
  H      1.997096    1.143559    0.058594
  H      2.194748   -1.549425    1.408652
  C      3.225436   -1.087425   -0.411381
  C      0.380866   -1.145574   -1.506088
  H      0.615432   -0.085739   -1.647660
  H     -0.664730   -1.289897   -1.795211
  H      1.004900   -1.719354   -2.200082
  H      3.032213   -0.526102   -1.337370
  C      3.622636   -2.525182   -0.778521
  C      4.378519   -0.429742    0.300857
  C      5.078052    0.601209   -0.171687
  H      4.634477   -0.876099    1.264163
  H      4.785200    1.008847   -1.143884
  C      6.245740    1.312099    0.468273
  C      7.369350    1.472679   -0.570251
  C      6.728034    0.697217    1.799566
  H      5.890126    2.329983    0.705457
  H      5.827873    0.487430    2.395429
  C      7.570768    1.692990    2.602767
  C      7.496269   -0.615827    1.614024
  H      7.725988    0.497387   -0.917883
  H      8.221353    2.024887   -0.161047
  H      7.002538    2.023156   -1.443177
  H      7.021858    2.624352    2.782602
  H      8.501011    1.942760    2.079533
  H      7.845177    1.268395    3.574998
  H      6.959848   -1.317549    0.967461
  H      7.660954   -1.101697    2.582172
  H      8.479881   -0.430861    1.167029
  H      2.885944   -2.997048   -1.433627
  H      3.722757   -3.142704    0.122749
  H      4.586421   -2.528881   -1.298952

----------------------------
CARTESIAN COORDINATES (A.U.)
----------------------------
  NO LB      ZA    FRAG     MASS         X           Y           Z
   0 C     6.0000    0    12.011   -9.489928    0.466535   -0.955398
   1 C     6.0000    0    12.011  -12.234271   -0.250966   -1.276047
   2 C     6.0000    0    12.011  -13.936874    1.553438    0.223371
   3 H     1.0000    0     1.008  -12.556583   -2.202872   -0.663610
   4 H     1.0000    0     1.008  -12.769855   -0.111455   -3.279999
   5 C     6.0000    0    12.011   -8.934849    3.136808   -1.572220
   6 C     6.0000    0    12.011  -10.677337    5.026510   -0.321002
   7 C     6.0000    0    12.011  -13.467560    4.283366   -0.602405
   8 H     1.0000    0     1.008  -10.347594    6.920360   -1.087907
   9 H     1.0000    0     1.008  -10.210026    5.103051    1.704348
  10 H     1.0000    0     1.008  -14.039957    4.471475   -2.589038
  11 H     1.0000    0     1.008  -14.659072    5.558556    0.513423
  12 O     8.0000    0    15.999  -13.556287    1.233621    2.893736
  13 H     1.0000    0     1.008  -15.924076    1.063047   -0.105205
  14 C     6.0000    0    12.011   -7.777529   -1.210943   -0.058996
  15 C     6.0000    0    12.011   -7.097908    3.833999   -3.162307
  16 H     1.0000    0     1.008   -5.886635    2.445784   -4.069654
  17 H     1.0000    0     1.008   -6.779013    5.815203   -3.605506
  18 C     6.0000    0    12.011   -5.157506   -0.691868    0.508856
  19 H     1.0000    0     1.008   -8.475175   -3.110682    0.317912
  20 C     6.0000    0    12.011   -3.387739   -2.399681    1.186700
  21 H     1.0000    0     1.008   -4.588519    1.279424    0.383637
  22 C     6.0000    0    12.011   -3.786556   -5.212635    1.394725
  23 C     6.0000    0    12.011   -1.899489   -6.681075   -0.268724
  24 H     1.0000    0     1.008   -5.716956   -5.771851    0.915828
  25 H     1.0000    0     1.008   -3.464401   -5.760728    3.376918
  26 C     6.0000    0    12.011    0.849149   -5.870940    0.176722
  27 H     1.0000    0     1.008   -2.399606   -6.403291   -2.262007
  28 H     1.0000    0     1.008   -2.095377   -8.709532    0.110459
  29 C     6.0000    0    12.011    1.192311   -3.005233   -0.110278
  30 H     1.0000    0     1.008    2.074300   -6.910363   -1.127317
  31 H     1.0000    0     1.008    1.417490   -6.410962    2.102922
  32 C     6.0000    0    12.011   -0.702252   -1.696914    1.739519
  33 H     1.0000    0     1.008   -0.251101   -2.512103    3.609134
  34 C     6.0000    0    12.011    0.144238    1.059670    1.784647
  35 H     1.0000    0     1.008  -11.757063    1.074177    3.180247
  36 C     6.0000    0    12.011    3.058309    0.887343    1.579602
  37 H     1.0000    0     1.008   -0.487490    2.037716    3.495309
  38 H     1.0000    0     1.008   -0.632474    2.095082    0.168536
  39 C     6.0000    0    12.011    3.717685   -1.900975    0.900792
  40 H     1.0000    0     1.008    3.991607    1.445936    3.338907
  41 H     1.0000    0     1.008    3.773964    2.161014    0.110726
  42 H     1.0000    0     1.008    4.147473   -2.927989    2.661967
  43 C     6.0000    0    12.011    6.095190   -2.054935   -0.777398
  44 C     6.0000    0    12.011    0.719732   -2.164821   -2.846093
  45 H     1.0000    0     1.008    1.162999   -0.162023   -3.113626
  46 H     1.0000    0     1.008   -1.256157   -2.437553   -3.392458
  47 H     1.0000    0     1.008    1.898986   -3.249107   -4.157552
  48 H     1.0000    0     1.008    5.730051   -0.994190   -2.527264
  49 C     6.0000    0    12.011    6.845791   -4.771902   -1.471191
  50 C     6.0000    0    12.011    8.274202   -0.812094    0.568536
  51 C     6.0000    0    12.011    9.596128    1.136120   -0.324442
  52 H     1.0000    0     1.008    8.757893   -1.655588    2.388922
  53 H     1.0000    0     1.008    9.042718    1.906445   -2.161627
  54 C     6.0000    0    12.011   11.802737    2.479507    0.884908
  55 C     6.0000    0    12.011   13.926053    2.782961   -1.077618
  56 C     6.0000    0    12.011   12.714141    1.317549    3.400687
  57 H     1.0000    0     1.008   11.130725    4.403030    1.333121
  58 H     1.0000    0     1.008   11.013084    0.921110    4.526706
  59 C     6.0000    0    12.011   14.306678    3.199287    4.918516
  60 C     6.0000    0    12.011   14.165895   -1.163745    3.050063
  61 H     1.0000    0     1.008   14.600001    0.939925   -1.734547
  62 H     1.0000    0     1.008   15.536106    3.826483   -0.304334
  63 H     1.0000    0     1.008   13.232879    3.823210   -2.727209
  64 H     1.0000    0     1.008   13.269389    4.959307    5.258356
  65 H     1.0000    0     1.008   16.064583    3.671284    3.929748
  66 H     1.0000    0     1.008   14.825237    2.396919    6.755768
  67 H     1.0000    0     1.008   13.152206   -2.489807    1.828235
  68 H     1.0000    0     1.008   14.477104   -2.081905    4.879597
  69 H     1.0000    0     1.008   16.024653   -0.814208    2.205364
  70 H     1.0000    0     1.008    5.453643   -5.663599   -2.709163
  71 H     1.0000    0     1.008    7.034991   -5.938850    0.231963
  72 H     1.0000    0     1.008    8.667079   -4.778893   -2.454664

--------------------------------
INTERNAL COORDINATES (ANGSTROEM)
--------------------------------
 C      0   0   0     0.000000000000     0.00000000     0.00000000
 C      1   0   0     1.510616914417     0.00000000     0.00000000
 C      2   1   0     1.533973807224   110.49331776     0.00000000
 H      2   1   3     1.095908182218   110.68911480   237.87483188
 H      2   1   3     1.100146298395   109.82017375   118.77637517
 C      1   2   3     1.479704551865   113.95900625   306.22823803
 C      6   1   2     1.512815837400   114.43704673    49.65097862
 C      3   2   1     1.529557400356   110.16701076    56.75135211
 H      7   6   1     1.095223385686   110.21668824   188.81694975
 H      7   6   1     1.100673249379   108.27399007    72.16519262
 H      8   3   2     1.098566265098   108.31290602    64.40605507
 H      8   3   2     1.096161133842   109.51955418   181.39630692
 O      3   2   1     1.437374233406   110.66679375   292.76197191
 H      3   2   1     1.096995799418   109.49949734   177.23390325
 C      1   2   3     1.354298748329   121.18767584   123.17821364
 C      6   1   2     1.337553066075   123.12324915   231.59553859
 H     16   6   1     1.086760832538   121.34104133   359.03455888
 H     16   6   1     1.087493263912   120.95471781   178.41038567
 C     15   1   2     1.444994424220   126.17378039   185.03626791
 H     15   1   2     1.089357335076   116.24769386     3.02099322
 C     19  15   1     1.349990196739   126.41434385   186.33500930
 H     19  15   1     1.087767380641   115.79908648     6.84615813
 C     21  19  15     1.507462201487   125.68452364     2.29662984
 C     23  21  19     1.541387559048   111.43261039   123.93034801
 H     23  21  19     1.093299723723   112.40542635     0.36758947
 H     23  21  19     1.101563370953   107.93049718   242.48216766
 C     24  23  21     1.534591109577   112.67429371    51.19967074
 H     24  23  21     1.097383815988   108.97477673   289.06371960
 H     24  23  21     1.096915578446   109.12578851   173.13604528
 C     27  24  23     1.534833114699   111.89830359   306.45549768
 H     27  24  23     1.095015579886   108.90779681   182.93450024
 H     27  24  23     1.100495223885   109.19343928    66.48258876
 C     21  19  15     1.497798622404   122.94816935   179.88826663
 H     33  21  19     1.105401592058   106.42917291   127.95608427
 C     33  21  19     1.526136168530   121.25596851     5.30683248
 H     13   3   2     0.967789442072   107.58527493    42.49041850
 C     35  33  21     1.548559951837   103.58569306   197.00206891
 H     35  33  21     1.095028469756   112.03029235    74.97290605
 H     35  33  21     1.095687690825   110.83383353   315.38507610
 C     30  27  24     1.553580235405   116.06079822   166.19327318
 H     37  35  33     1.094543763798   111.95169178   249.47680924
 H     37  35  33     1.096303569283   110.94472834   130.86597332
 H     40  30  27     1.102571585952   106.44759351   321.11387912
 C     40  30  27     1.542127488763   118.91933588    81.87450681
 C     30  27  24     1.535007150586   111.11900065   294.04983068
 H     45  30  27     1.094675274335   111.56563882   186.29623752
 H     45  30  27     1.094391016252   111.50677115    66.26800638
 H     45  30  27     1.095568371452   110.66514504   306.12293724
 H     44  40  30     1.099942441300   108.33177577    61.12930272
 C     44  40  30     1.536133405302   113.45527415   300.24117440
 C     44  40  30     1.506463284793   109.21610627   178.57950691
 C     51  44  40     1.332479853136   124.88636487   238.61433104
 H     51  44  40     1.092112251544   114.70752739    59.70632757
 H     52  51  44     1.094119589552   117.57186562     0.81888029
 C     52  51  44     1.509439416762   128.32754598   180.36527833
 C     55  52  51     1.538446630625   109.14451330   132.44997986
 C     55  52  51     1.543705972236   114.81766279     3.99850402
 H     55  52  51     1.103995492198   106.02935595   246.81688177
 H     57  55  52     1.099705559816   106.71026242   314.93701640
 C     57  55  52     1.531958118434   111.41468734   198.62863794
 C     57  55  52     1.532545650707   113.17057069    73.84260657
 H     56  55  52     1.095095465752   111.05005872   298.44087782
 H     56  55  52     1.094664866932   111.63928008   177.43175781
 H     56  55  52     1.095251134337   110.23528902    57.69434471
 H     60  57  55     1.095937317465   111.27843630    55.93056230
 H     60  57  55     1.096134548301   111.38855564   295.29867917
 H     60  57  55     1.095817604481   110.55254847   175.95051108
 H     61  57  55     1.094625619692   112.03068181   310.61326837
 H     61  57  55     1.095673698760   110.38329266   190.04187468
 H     61  57  55     1.096134412835   110.76998391    71.12579647
 H     50  44  40     1.092949093819   111.90418313    67.15742622
 H     50  44  40     1.097107910882   110.73672632   306.45800189
 H     50  44  40     1.095327643935   110.13531508   187.13525466

---------------------------
INTERNAL COORDINATES (A.U.)
---------------------------
 C      0   0   0     0.000000000000     0.00000000     0.00000000
 C      1   0   0     2.854652261517     0.00000000     0.00000000
 C      2   1   0     2.898790392261   110.49331776     0.00000000
 H      2   1   3     2.070966332315   110.68911480   237.87483188
 H      2   1   3     2.078975211214   109.82017375   118.77637517
 C      1   2   3     2.796236362141   113.95900625   306.22823803
 C      6   1   2     2.858807623745   114.43704673    49.65097862
 C      3   2   1     2.890444592786   110.16701076    56.75135211
 H      7   6   1     2.069672254412   110.21668824   188.81694975
 H      7   6   1     2.079971004260   108.27399007    72.16519262
 H      8   3   2     2.075989380999   108.31290602    64.40605507
 H      8   3   2     2.071444341610   109.51955418   181.39630692
 O      3   2   1     2.716243653092   110.66679375   292.76197191
 H      3   2   1     2.073021630962   109.49949734   177.23390325
 C      1   2   3     2.559253737855   121.18767584   123.17821364
 C      6   1   2     2.527608984469   123.12324915   231.59553859
 H     16   6   1     2.053680346569   121.34104133   359.03455888
 H     16   6   1     2.055064441277   120.95471781   178.41038567
 C     15   1   2     2.730643726819   126.17378039   185.03626791
 H     15   1   2     2.058587025272   116.24769386     3.02099322
 C     19  15   1     2.551111755315   126.41434385   186.33500930
 H     19  15   1     2.055582446825   115.79908648     6.84615813
 C     21  19  15     2.848690718049   125.68452364     2.29662984
 C     23  21  19     2.912800352834   111.43261039   123.93034801
 H     23  21  19     2.066037060128   112.40542635     0.36758947
 H     23  21  19     2.081653090260   107.93049718   242.48216766
 C     24  23  21     2.899956924650   112.67429371    51.19967074
 H     24  23  21     2.073754876015   108.97477673   289.06371960
 H     24  23  21     2.072870035295   109.12578851   173.13604528
 C     27  24  23     2.900414248054   111.89830359   306.45549768
 H     27  24  23     2.069279558362   108.90779681   182.93450024
 H     27  24  23     2.079634584830   109.19343928    66.48258876
 C     21  19  15     2.830429200108   122.94816935   179.88826663
 H     33  21  19     2.088906276991   106.42917291   127.95608427
 C     33  21  19     2.883979401593   121.25596851     5.30683248
 H     13   3   2     1.828857000816   107.58527493    42.49041850
 C     35  33  21     2.926354210931   103.58569306   197.00206891
 H     35  33  21     2.069303916686   112.03029235    74.97290605
 H     35  33  21     2.070549663967   110.83383353   315.38507610
 C     30  27  24     2.935841171989   116.06079822   166.19327318
 H     37  35  33     2.068387955169   111.95169178   249.47680924
 H     37  35  33     2.071713505585   110.94472834   130.86597332
 H     40  30  27     2.083558340492   106.44759351   321.11387912
 C     40  30  27     2.914198617353   118.91933588    81.87450681
 C     30  27  24     2.900743128218   111.11900065   294.04983068
 H     45  30  27     2.068636474069   111.56563882   186.29623752
 H     45  30  27     2.068099304141   111.50677115    66.26800638
 H     45  30  27     2.070324183031   110.66514504   306.12293724
 H     44  40  30     2.078589977135   108.33177577    61.12930272
 C     44  40  30     2.902871441189   113.45527415   300.24117440
 C     44  40  30     2.846803039066   109.21610627   178.57950691
 C     51  44  40     2.518022001394   124.88636487   238.61433104
 H     51  44  40     2.063793062919   114.70752739    59.70632757
 H     52  51  44     2.067586382012   117.57186562     0.81888029
 C     52  51  44     2.852427113425   128.32754598   180.36527833
 C     55  52  51     2.907242803534   109.14451330   132.44997986
 C     55  52  51     2.917181518825   114.81766279     3.99850402
 H     55  52  51     2.086249133338   106.02935595   246.81688177
 H     57  55  52     2.078142336003   106.71026242   314.93701640
 C     57  55  52     2.894981292477   111.41468734   198.62863794
 C     57  55  52     2.896091567569   113.17057069    73.84260657
 H     56  55  52     2.069430520771   111.05005872   298.44087782
 H     56  55  52     2.068616806926   111.63928008   177.43175781
 H     56  55  52     2.069724691763   110.23528902    57.69434471
 H     60  57  55     2.071021389952   111.27843630    55.93056230
 H     60  57  55     2.071394102219   111.38855564   295.29867917
 H     60  57  55     2.070795165200   110.55254847   175.95051108
 H     61  57  55     2.068542640392   112.03068181   310.61326837
 H     61  57  55     2.070523222796   110.38329266   190.04187468
 H     61  57  55     2.071393846225   110.76998391    71.12579647
 H     50  44  40     2.065374465636   111.90418313    67.15742622
 H     50  44  40     2.073233490926   110.73672632   306.45800189
 H     50  44  40     2.069869273950   110.13531508   187.13525466

---------------------
BASIS SET INFORMATION
---------------------
There are 3 groups of distinct atoms

 Group   1 Type C   : 7s4p1d contracted to 3s2p1d pattern {511/31/1}
 Group   2 Type H   : 4s1p contracted to 2s1p pattern {31/1}
 Group   3 Type O   : 7s4p1d contracted to 3s2p1d pattern {511/31/1}

Atom   0C    basis set group =>   1
Atom   1C    basis set group =>   1
Atom   2C    basis set group =>   1
Atom   3H    basis set group =>   2
Atom   4H    basis set group =>   2
Atom   5C    basis set group =>   1
Atom   6C    basis set group =>   1
Atom   7C    basis set group =>   1
Atom   8H    basis set group =>   2
Atom   9H    basis set group =>   2
Atom  10H    basis set group =>   2
Atom  11H    basis set group =>   2
Atom  12O    basis set group =>   3
Atom  13H    basis set group =>   2
Atom  14C    basis set group =>   1
Atom  15C    basis set group =>   1
Atom  16H    basis set group =>   2
Atom  17H    basis set group =>   2
Atom  18C    basis set group =>   1
Atom  19H    basis set group =>   2
Atom  20C    basis set group =>   1
Atom  21H    basis set group =>   2
Atom  22C    basis set group =>   1
Atom  23C    basis set group =>   1
Atom  24H    basis set group =>   2
Atom  25H    basis set group =>   2
Atom  26C    basis set group =>   1
Atom  27H    basis set group =>   2
Atom  28H    basis set group =>   2
Atom  29C    basis set group =>   1
Atom  30H    basis set group =>   2
Atom  31H    basis set group =>   2
Atom  32C    basis set group =>   1
Atom  33H    basis set group =>   2
Atom  34C    basis set group =>   1
Atom  35H    basis set group =>   2
Atom  36C    basis set group =>   1
Atom  37H    basis set group =>   2
Atom  38H    basis set group =>   2
Atom  39C    basis set group =>   1
Atom  40H    basis set group =>   2
Atom  41H    basis set group =>   2
Atom  42H    basis set group =>   2
Atom  43C    basis set group =>   1
Atom  44C    basis set group =>   1
Atom  45H    basis set group =>   2
Atom  46H    basis set group =>   2
Atom  47H    basis set group =>   2
Atom  48H    basis set group =>   2
Atom  49C    basis set group =>   1
Atom  50C    basis set group =>   1
Atom  51C    basis set group =>   1
Atom  52H    basis set group =>   2
Atom  53H    basis set group =>   2
Atom  54C    basis set group =>   1
Atom  55C    basis set group =>   1
Atom  56C    basis set group =>   1
Atom  57H    basis set group =>   2
Atom  58H    basis set group =>   2
Atom  59C    basis set group =>   1
Atom  60C    basis set group =>   1
Atom  61H    basis set group =>   2
Atom  62H    basis set group =>   2
Atom  63H    basis set group =>   2
Atom  64H    basis set group =>   2
Atom  65H    basis set group =>   2
Atom  66H    basis set group =>   2
Atom  67H    basis set group =>   2
Atom  68H    basis set group =>   2
Atom  69H    basis set group =>   2
Atom  70H    basis set group =>   2
Atom  71H    basis set group =>   2
Atom  72H    basis set group =>   2

-------------------------
BASIS SET IN INPUT FORMAT
-------------------------

 # Basis set for element : H 
 NewGTO H 
 S 3 
   1      13.0107010000      0.0334854848
   2       1.9622572000      0.2347218709
   3       0.4445379600      0.8137702853
 S 1 
   1       0.1219496200      1.0000000000
 P 1 
   1       0.8000000000      1.0000000000
  end;

 # Basis set for element : C 
 NewGTO C 
 S 5 
   1    1238.4016938000      0.0055173650
   2     186.2900499200      0.0410888285
   3      42.2511763460      0.1822538213
   4      11.6765579320      0.4682845944
   5       3.5930506482      0.4457581734
 S 1 
   1       0.4024514736      1.0000000000
 S 1 
   1       0.1309018267      1.0000000000
 P 3 
   1       9.4680970621      0.0568883320
   2       2.0103545142      0.3129405934
   3       0.5477100471      0.7606501651
 P 1 
   1       0.1526861379      1.0000000000
 D 1 
   1       0.8000000000      1.0000000000
  end;

 # Basis set for element : O 
 NewGTO O 
 S 5 
   1    2266.1767785000     -0.0053893504
   2     340.8701019100     -0.0402347214
   3      77.3631351670     -0.1800818421
   4      21.4796449400     -0.4682885766
   5       6.6589433124     -0.4469261716
 S 1 
   1       0.8097597567      1.0000000000
 S 1 
   1       0.2553077223      1.0000000000
 P 3 
   1      17.7215043170      0.0626302488
   2       3.8635505440      0.3333113849
   3       1.0480920883      0.7414863830
 P 1 
   1       0.2764154441      1.0000000000
 D 1 
   1       1.2000000000      1.0000000000
  end;

---------------------------------
AUXILIARY/J BASIS SET INFORMATION
---------------------------------
There are 3 groups of distinct atoms

 Group   1 Type C   : 12s5p4d2f1g contracted to 6s4p3d1f1g pattern {711111/2111/211/2/1}
 Group   2 Type H   : 5s2p1d contracted to 3s1p1d pattern {311/2/1}
 Group   3 Type O   : 12s5p4d2f1g contracted to 6s4p3d1f1g pattern {711111/2111/211/2/1}

Atom   0C    basis set group =>   1
Atom   1C    basis set group =>   1
Atom   2C    basis set group =>   1
Atom   3H    basis set group =>   2
Atom   4H    basis set group =>   2
Atom   5C    basis set group =>   1
Atom   6C    basis set group =>   1
Atom   7C    basis set group =>   1
Atom   8H    basis set group =>   2
Atom   9H    basis set group =>   2
Atom  10H    basis set group =>   2
Atom  11H    basis set group =>   2
Atom  12O    basis set group =>   3
Atom  13H    basis set group =>   2
Atom  14C    basis set group =>   1
Atom  15C    basis set group =>   1
Atom  16H    basis set group =>   2
Atom  17H    basis set group =>   2
Atom  18C    basis set group =>   1
Atom  19H    basis set group =>   2
Atom  20C    basis set group =>   1
Atom  21H    basis set group =>   2
Atom  22C    basis set group =>   1
Atom  23C    basis set group =>   1
Atom  24H    basis set group =>   2
Atom  25H    basis set group =>   2
Atom  26C    basis set group =>   1
Atom  27H    basis set group =>   2
Atom  28H    basis set group =>   2
Atom  29C    basis set group =>   1
Atom  30H    basis set group =>   2
Atom  31H    basis set group =>   2
Atom  32C    basis set group =>   1
Atom  33H    basis set group =>   2
Atom  34C    basis set group =>   1
Atom  35H    basis set group =>   2
Atom  36C    basis set group =>   1
Atom  37H    basis set group =>   2
Atom  38H    basis set group =>   2
Atom  39C    basis set group =>   1
Atom  40H    basis set group =>   2
Atom  41H    basis set group =>   2
Atom  42H    basis set group =>   2
Atom  43C    basis set group =>   1
Atom  44C    basis set group =>   1
Atom  45H    basis set group =>   2
Atom  46H    basis set group =>   2
Atom  47H    basis set group =>   2
Atom  48H    basis set group =>   2
Atom  49C    basis set group =>   1
Atom  50C    basis set group =>   1
Atom  51C    basis set group =>   1
Atom  52H    basis set group =>   2
Atom  53H    basis set group =>   2
Atom  54C    basis set group =>   1
Atom  55C    basis set group =>   1
Atom  56C    basis set group =>   1
Atom  57H    basis set group =>   2
Atom  58H    basis set group =>   2
Atom  59C    basis set group =>   1
Atom  60C    basis set group =>   1
Atom  61H    basis set group =>   2
Atom  62H    basis set group =>   2
Atom  63H    basis set group =>   2
Atom  64H    basis set group =>   2
Atom  65H    basis set group =>   2
Atom  66H    basis set group =>   2
Atom  67H    basis set group =>   2
Atom  68H    basis set group =>   2
Atom  69H    basis set group =>   2
Atom  70H    basis set group =>   2
Atom  71H    basis set group =>   2
Atom  72H    basis set group =>   2

-------------------------------------
AUXILIARY/J BASIS SET IN INPUT FORMAT
-------------------------------------

 # Auxiliary/J basis set for element : H 
 NewAuxJGTO H 
 S 3 
   1      15.6752927000      0.1007184237
   2       3.6063578000      0.3404257499
   3       1.2080016000      0.6491996172
 S 1 
   1       0.4726794000      1.0000000000
 S 1 
   1       0.2018100000      1.0000000000
 P 2 
   1       2.0281365000      0.5596620919
   2       0.5358730000      0.5596620919
 D 1 
   1       2.2165124000      1.0000000000
  end;

 # Auxiliary/J basis set for element : C 
 NewAuxJGTO C 
 S 7 
   1    1861.0916331000      0.0134602335
   2     642.9939764000      0.0299160374
   3     235.1105725000      0.1008649584
   4      90.7028894000      0.2370970548
   5      36.7794552000      0.3924037254
   6      15.6046273000      0.3195862154
   7       6.8907294000      0.0530104441
 S 1 
   1       3.1478850000     -1.0000000000
 S 1 
   1       1.4777287000      1.0000000000
 S 1 
   1       0.7076466000      1.0000000000
 S 1 
   1       0.3430122000      1.0000000000
 S 1 
   1       0.1669453000      1.0000000000
 P 2 
   1      13.5472892000     -0.6769313712
   2       5.4669419000     -0.3779500978
 P 1 
   1       2.1751721000      1.0000000000
 P 1 
   1       0.8582194000      1.0000000000
 P 1 
   1       0.3376720000      1.0000000000
 D 2 
   1       5.9287253000     -0.3533329857
   2       1.9809209000     -0.7456525731
 D 1 
   1       0.8055417000     -1.0000000000
 D 1 
   1       0.3531244000     -1.0000000000
 F 2 
   1       1.6755626000      0.6311076882
   2       0.5997536000      0.4968166032
 G 1 
   1       1.0024600000     -1.0000000000
  end;

 # Auxiliary/J basis set for element : O 
 NewAuxJGTO O 
 S 7 
   1    2876.8216605000      0.0168151159
   2    1004.7443032000      0.0340137548
   3     369.7579954000      0.1194951309
   4     142.9442404000      0.2664627624
   5      57.8366425000      0.4202764046
   6      24.3864983000      0.2765077335
   7      10.6622662000      0.0057008815
 S 1 
   1       4.8070437000     -1.0000000000
 S 1 
   1       2.2210770000      1.0000000000
 S 1 
   1       1.0447795000      1.0000000000
 S 1 
   1       0.4968425000      1.0000000000
 S 1 
   1       0.2371384000      1.0000000000
 P 2 
   1      64.2613382000     -0.2731534179
   2      16.3006076000     -0.8168011598
 P 1 
   1       4.3550542000      1.0000000000
 P 1 
   1       1.2019554000      1.0000000000
 P 1 
   1       0.3354196000      1.0000000000
 D 2 
   1       9.2146611000     -0.4661230638
   2       2.8435251000     -0.6600908911
 D 1 
   1       0.9955759000     -1.0000000000
 D 1 
   1       0.3649441000     -1.0000000000
 F 2 
   1       2.6420115000      0.5931563945
   2       0.7345613000      0.5931563945
 G 1 
   1       1.3931000000     -1.0000000000
  end;


Checking for AutoStart:
The File: inpS.gbw exists
Trying to determine its content:
     ... Fine, the file contains calculation information
     ... Fine, the calculation information was read
     ... Fine, the file contains a basis set
     ... Fine, the basis set was read
     ... Fine, the file contains a geometry
     ... Fine, the geometry was read
     ... Fine, the file contains a set of orbitals
     ... Fine, the orbitals can be read
     => possible old guess file was deleted
     => GBW file was renamed to GES file
     => GES file is set as startup file
     => Guess is set to MORead
     ... now leaving AutoStart



           ************************************************************
           *        Program running with 4 parallel MPI-processes     *
           *              working on a common directory               *
           ************************************************************
------------------------------------------------------------------------------
                             ORCA STARTUP CALCULATIONS
                           -- RI-GTO INTEGRALS CHOSEN --
------------------------------------------------------------------------------
------------------------------------------------------------------------------
                   ___                                                        
                  /   \      - P O W E R E D   B Y -                         
                 /     \                                                     
                 |  |  |   _    _      __       _____    __    __             
                 |  |  |  | |  | |    /  \     |  _  \  |  |  /  |          
                  \  \/   | |  | |   /    \    | | | |  |  | /  /          
                 / \  \   | |__| |  /  /\  \   | |_| |  |  |/  /          
                |  |  |   |  __  | /  /__\  \  |    /   |      \           
                |  |  |   | |  | | |   __   |  |    \   |  |\   \          
                \     /   | |  | | |  |  |  |  | |\  \  |  | \   \       
                 \___/    |_|  |_| |__|  |__|  |_| \__\ |__|  \__/        
                                                                              
                      - O R C A' S   B I G   F R I E N D -                    
                                      &                                       
                       - I N T E G R A L  F E E D E R -                       
                                                                              
 v1 FN, 2020, v2 2021, v3 2022-2024                                           
------------------------------------------------------------------------------


----------------------
SHARK INTEGRAL PACKAGE
----------------------

Number of atoms                             ...     73
Number of basis functions                   ...    626
Number of shells                            ...    306
Maximum angular momentum                    ...      2
Integral batch strategy                     ... SHARK/LIBINT Hybrid
RI-J (if used) integral strategy            ... SPLIT-RIJ (Revised 2003 algorithm where possible)
Printlevel                                  ...      1
Contraction scheme used                     ... SEGMENTED contraction
Prescreening option                         ... SCHWARTZ
   Thresh                                   ... 3.000e-11
   Tcut                                     ... 1.000e-12
   Tpresel                                  ... 1.000e-12 
Coulomb Range Separation                    ... NOT USED
Exchange Range Separation                   ... Long Range
   Mu parameter                             ... 3.000e-01
   Scaling (regular/separated)              ... 1.670e-01 8.330e-01
Multipole approximations                    ... NOT USED
Finite Nucleus Model                        ... NOT USED
CABS basis                                  ... NOT available
Auxiliary Coulomb fitting basis             ... AVAILABLE
   # of basis functions in Aux-J            ...   1905
   # of shells in Aux-J                     ...    655
   Maximum angular momentum in Aux-J        ...      4
Auxiliary J/K fitting basis                 ... NOT available
Auxiliary Correlation fitting basis         ... NOT available
Auxiliary 'external' fitting basis          ... NOT available

Checking pre-screening integrals            ... done (  0.0 sec) Dimension = 306
Check shell pair data                       ... done (  0.0 sec)
Shell pair information
Shell pair cut-off parameter TPreSel        ...   1.0e-12
Total number of shell pairs                 ...     46971
Shell pairs after pre-screening             ...     27424
Total number of primitive shell pairs       ...    162105
Primitive shell pairs kept                  ...     60506
          la=0 lb=0:   9596 shell pairs
          la=1 lb=0:  10515 shell pairs
          la=1 lb=1:   2906 shell pairs
          la=2 lb=0:   2745 shell pairs
          la=2 lb=1:   1467 shell pairs
          la=2 lb=2:    195 shell pairs

Calculating one electron integrals          ... done (  0.1 sec)
Calculating RI/J V-Matrix + Cholesky decomp.... done (  0.2 sec)
Calculating Nuclear repulsion               ... done (  0.0 sec) ENN=   2780.112023368333 Eh

Diagonalization of the overlap matrix:
Smallest eigenvalue                        ... 4.587e-04
Time for diagonalization                   ...    0.043 sec
Threshold for overlap eigenvalues          ... 1.000e-07
Number of eigenvalues below threshold      ... 0
Time for construction of square roots      ...    0.024 sec
Total time needed                          ...    0.070 sec

-------------------
DFT GRID GENERATION
-------------------

General Integration Accuracy     IntAcc      ... 4.388
Radial Grid Type                 RadialGrid  ... OptM3 with GC (2021)
Angular Grid (max. ang.)         AngularGrid ... 4 (Lebedev-302)
Angular grid pruning method      GridPruning ... 4 (adaptive)
Weight generation scheme         WeightScheme... mBecke (2022)
Basis function cutoff            BFCut       ... 1.0000e-11
Integration weight cutoff        WCut        ... 1.0000e-14
Partially contracted basis set               ... off
Rotationally invariant grid construction     ... off
Angular grids for H and He will be reduced by one unit

Total number of grid points                  ...   309962
Total number of batches                      ...     4879
Average number of points per batch           ...       63
Average number of grid points per atom       ...     4246

--------------------
COSX GRID GENERATION
--------------------

GRIDX 1
-------
General Integration Accuracy     IntAcc      ... 3.816
Radial Grid Type                 RadialGrid  ... OptM3 with GC (2021)
Angular Grid (max. ang.)         AngularGrid ... 1 (Lebedev-50)
Angular grid pruning method      GridPruning ... 4 (adaptive)
Weight generation scheme         WeightScheme... mBecke (2022)
Basis function cutoff            BFCut       ... 1.0000e-11
Integration weight cutoff        WCut        ... 1.0000e-14
Partially contracted basis set               ... on
Rotationally invariant grid construction     ... off
Angular grids for H and He will be reduced by one unit

Total number of grid points                  ...    39420
Total number of batches                      ...      350
Average number of points per batch           ...      112
Average number of grid points per atom       ...      540
UseSFitting                                  ... on

GRIDX 2
-------
General Integration Accuracy     IntAcc      ... 4.020
Radial Grid Type                 RadialGrid  ... OptM3 with GC (2021)
Angular Grid (max. ang.)         AngularGrid ... 2 (Lebedev-110)
Angular grid pruning method      GridPruning ... 4 (adaptive)
Weight generation scheme         WeightScheme... mBecke (2022)
Basis function cutoff            BFCut       ... 1.0000e-11
Integration weight cutoff        WCut        ... 1.0000e-14
Partially contracted basis set               ... on
Rotationally invariant grid construction     ... off
Angular grids for H and He will be reduced by one unit

Total number of grid points                  ...    81380
Total number of batches                      ...      678
Average number of points per batch           ...      120
Average number of grid points per atom       ...     1115
UseSFitting                                  ... on

GRIDX 3
-------
General Integration Accuracy     IntAcc      ... 4.338
Radial Grid Type                 RadialGrid  ... OptM3 with GC (2021)
Angular Grid (max. ang.)         AngularGrid ... 3 (Lebedev-194)
Angular grid pruning method      GridPruning ... 4 (adaptive)
Weight generation scheme         WeightScheme... mBecke (2022)
Basis function cutoff            BFCut       ... 1.0000e-11
Integration weight cutoff        WCut        ... 1.0000e-14
Partially contracted basis set               ... on
Rotationally invariant grid construction     ... off
Angular grids for H and He will be reduced by one unit

Total number of grid points                  ...   176285
Total number of batches                      ...     1418
Average number of points per batch           ...      124
Average number of grid points per atom       ...     2415
UseSFitting                                  ... on
Initializing property integral containers    ... done (  0.0 sec)

SHARK setup successfully completed in   4.3 seconds

Maximum memory used throughout the entire STARTUP-calculation: 95.7 MB


           ************************************************************
           *        Program running with 4 parallel MPI-processes     *
           *              working on a common directory               *
           ************************************************************
-------------------------------------------------------------------------------
                                 ORCA GUESS
                   Start orbitals & Density for SCF / CASSCF
-------------------------------------------------------------------------------

------------
SCF SETTINGS
------------
Hamiltonian:
 Density Functional     Method          .... DFT(GTOs)
 Exchange Functional    Exchange        .... WB97X-V
 Correlation Functional Correlation     .... WB97X-V
 Gradients option       PostSCFGGA      .... off
 Hybrid DFT is turned on
   Fraction HF Exchange ScalHFX         ....  0.167000
   Scaling of DF-GGA-X  ScalDFX         ....  0.000000
   Scaling of DF-GGA-C  ScalDFC         ....  1.000000
   Scaling of DF-LDA-C  ScalLDAC        ....  1.000000
   Perturbative correction              ....  0.000000
 Long-range corrected/Screened/Range-Separated Hybrid DFT is turned on
   Amount of maximum screened exact exchange              ....  0.833000
   Range separation parameter mu (erf(mu*r12)/r12)        ....  0.300000
 RI-approximation to the Coulomb term is turned on
   Number of AuxJ basis functions       .... 1905
   RIJ-COSX (HFX calculated with COS-X)).... on


General Settings:
 Integral files         IntName         .... inpS
 Hartree-Fock type      HFTyp           .... RHF
 Total Charge           Charge          ....    0
 Multiplicity           Mult            ....    1
 Number of Electrons    NEL             ....  220
 Basis Dimension        Dim             ....  626
 Nuclear Repulsion      ENuc            ....   2780.1120233683 Eh

Convergence Acceleration:
 AO-DIIS                CNVDIIS         .... on
   Start iteration      DIISMaxIt       ....    12
   Startup error        DIISStart       ....  0.200000
   # of expansion vecs  DIISMaxEq       ....     5
   Bias factor          DIISBfac        ....   1.050
   Max. coefficient     DIISMaxC        ....  10.000
 MO-DIIS                CNVKDIIS        .... off
 Trust-Rad. Augm. Hess. CNVTRAH         .... auto
   Auto Start mean grad. ratio tolernc. ....  1.125000
   Auto Start start iteration           ....     1
   Auto Start num. interpolation iter.  ....    10
   Max. Number of Micro iterations      ....    24
   Max. Number of Macro iterations      .... Maxiter - #DIIS iter
   Number of Davidson start vectors     ....     2
   Converg. threshold    (grad. norm)   ....   1.000e-04
   Grad. Scal. Fac. for Micro threshold ....   0.100
   Minimum threshold for Micro iter.    ....   1.000e-02
   NR start threshold (gradient norm)   ....   1.000e-04
   Initial trust radius                 ....   0.400
   Minimum AH scaling param. (alpha)    ....   1.000
   Maximum AH scaling param. (alpha)    .... 1000.000
   Quad. conv. algorithm                .... NR
   White noise on init. David. guess    .... on
   Maximum white noise                  ....   0.010
   Pseudo random numbers                .... off
   Inactive MOs                         .... canonical
   Orbital update algorithm             .... Taylor
   Preconditioner                       .... Diag
   Full preconditioner red. dimension   ....   250
 SOSCF                  CNVSOSCF        .... off
 Level Shifting         CNVShift        .... on
   Level shift para.    LevelShift      ....    0.2500
   Turn off err/grad.   ShiftErr        ....    0.0010
 Zerner damping         CNVZerner       .... off
 Static damping         CNVDamp         .... on
   Fraction old density DampFac         ....    0.7000
   Max. Damping (<1)    DampMax         ....    0.9800
   Min. Damping (>=0)   DampMin         ....    0.0000
   Turn off err/grad.   DampErr         ....    0.1000

SCF Procedure:
 Maximum # iterations   MaxIter         ....   125
 SCF integral mode      SCFMode         .... Direct
   Integral package                     .... SHARK and LIBINT hybrid scheme
 Reset frequency        DirectResetFreq ....    20
 Integral Threshold     Thresh          ....  3.000e-11 Eh
 Primitive CutOff       TCut            ....  1.000e-12 Eh

Convergence Tolerance:
 Convergence Check Mode ConvCheckMode   .... Total+1el-Energy
 Convergence forced     ConvForced      .... 0
 Energy Change          TolE            ....  1.000e-07 Eh
 1-El. energy change                    ....  1.000e-04 Eh
 DIIS Error             TolErr          ....  1.000e-07

---------------------
INITIAL GUESS: MOREAD
---------------------
Guess MOs are being read from file: inpS.ges
Input Geometry matches current geometry (good)
Input basis set matches current basis set (good)
Occupation numbers will be reassigned to an Aufbau configuration
MOs were renormalized
MOs were reorthogonalized (Cholesky)
                      ------------------
                      INITIAL GUESS DONE (   0.2 sec)
                      ------------------
             **** ENERGY FILE WAS UPDATED (inpS.en.tmp) ****
Finished Guess after   0.3 sec
Maximum memory used throughout the entire GUESS-calculation: 52.3 MB


           ************************************************************
           *        Program running with 4 parallel MPI-processes     *
           *              working on a common directory               *
           ************************************************************

-------------------------------------------------------------------------------------------
                                      ORCA LEAN-SCF
                              memory conserving SCF solver
-------------------------------------------------------------------------------------------

--------------------
CPCM SOLVATION MODEL
--------------------
CPCM parameters:
  Epsilon                                         ...       4.8030
  Refrac                                          ...       1.4459
  Rsolv                                           ...       1.3000
  Surface type                                    ... GAUSSIAN VDW
  Discretization scheme                           ... Constant charge density
    Threshold for H atoms                         ...       5.0000 (charges/Ang^2)
    Threshold for non-H atoms                     ...       5.0000 (charges/Ang^2)
  Epsilon function type                           ...         CPCM
Solvent:                                          ... CHLOROFORM
Radii:
  Scheme                                          ... Element-dependent radii
  Radius for C  used is    3.8550 Bohr (=   2.0400 Ang.)
  Radius for H  used is    2.4944 Bohr (=   1.3200 Ang.)
  Radius for O  used is    3.4469 Bohr (=   1.8240 Ang.)
Calculating surface                               ...        done! (  0.0s)
Cavity surface points                             ...         5351
Cavity Volume                                     ...    3613.1253
Cavity Surface-area                               ...    1789.3882
Calculating surface distance matrix               ...        done! (  0.2s)
Performing Cholesky decomposition & store         ...        done! (  0.9s)
Overall time for CPCM initialization              ...                 1.1s

----------------------------------------D-I-I-S--------------------------------------------
Iteration    Energy (Eh)           Delta-E    RMSDP     MaxDP     DIISErr   Damp  Time(sec)
-------------------------------------------------------------------------------------------
               ***  Starting incremental Fock matrix formation  ***
    1    -1168.3615644943724874     0.00e+00  3.14e-08  2.13e-06  4.52e-06  0.700  23.6

  HOMO= 109 E= -7.958 eV LUMO=  8.070 eV gap=  16.028 eV
    2    -1168.3615644880846958     6.29e-09  2.70e-08  1.37e-06  2.46e-06  0.700   4.8
                 **** Energy Check signals convergence ****

  HOMO= 109 E= -7.958 eV LUMO=  8.070 eV gap=  16.028 eV

               *****************************************************
               *                     SUCCESS                       *
               *           SCF CONVERGED AFTER   2 CYCLES          *
               *****************************************************

Recomputing exchange energy using gridx3       ... done (   40.480 sec)
Old exchange energy                            :    -56.782612432 Eh
New exchange energy                            :    -56.782589254 Eh
Exchange energy change after final integration :      0.000023178 Eh
Total energy after final integration           :  -1168.361541310 Eh
             **** ENERGY FILE WAS UPDATED (inpS.en.tmp) ****

----------------
TOTAL SCF ENERGY
----------------

Total Energy       :      -1168.36154130963837 Eh          -31792.73385 eV

Components:
Nuclear Repulsion  :       2780.11202336833276 Eh           75650.69416 eV
Electronic Energy  :      -3948.46439035706044 Eh         -107443.17837 eV
One Electron Energy:      -7105.25525189566088 Eh         -193343.82481 eV
Two Electron Energy:       3156.79086153860044 Eh           85900.64645 eV
CPCM Dielectric    :         -0.00919749935711 Eh              -0.25028 eV

Virial components:
Potential Energy   :      -2321.65624940612224 Eh          -63175.47833 eV
Kinetic Energy     :       1153.29470809648387 Eh           31382.74448 eV
Virial Ratio       :          2.01306416573958

DFT components:
N(Alpha)           :      109.999991669132 electrons
N(Beta)            :      109.999991669132 electrons
N(Total)           :      219.999983338263 electrons
E(X)               :     -111.768171846338 Eh       
E(C)               :       -8.951660089694 Eh       
E(XC)              :     -120.719831936032 Eh       

CPCM Solvation Model Properties:
Surface-charge          :         -0.04200279227186
Corrected charge        :          0.00000000000000
Outlying charge corr.   :          0.00006171210196 Eh               0.00168 eV
Free-energy (cav+disp)  :  This term is not implemented in the current solvation scheme

---------------
SCF CONVERGENCE
---------------

  Last Energy change         ...   -6.2878e-09  Tolerance :   1.0000e-07
  Last MAX-Density change    ...    1.3733e-06  Tolerance :   1.0000e-05
  Last RMS-Density change    ...    2.7018e-08  Tolerance :   1.0000e-06
  Last DIIS Error            ...    2.4633e-06  Tolerance :   1.0000e-07


----------------
ORBITAL ENERGIES
----------------

  NO   OCC          E(Eh)            E(eV) 
   0   2.0000     -19.212379      -522.7954 
   1   2.0000     -10.330292      -281.1015 
   2   2.0000     -10.294242      -280.1206 
   3   2.0000     -10.291978      -280.0589 
   4   2.0000     -10.287475      -279.9364 
   5   2.0000     -10.286603      -279.9127 
   6   2.0000     -10.285425      -279.8806 
   7   2.0000     -10.284150      -279.8459 
   8   2.0000     -10.283196      -279.8200 
   9   2.0000     -10.282938      -279.8130 
  10   2.0000     -10.281648      -279.7779 
  11   2.0000     -10.280065      -279.7348 
  12   2.0000     -10.279239      -279.7123 
  13   2.0000     -10.278082      -279.6808 
  14   2.0000     -10.277650      -279.6691 
  15   2.0000     -10.277472      -279.6642 
  16   2.0000     -10.277313      -279.6599 
  17   2.0000     -10.277004      -279.6515 
  18   2.0000     -10.274353      -279.5794 
  19   2.0000     -10.273049      -279.5439 
  20   2.0000     -10.272821      -279.5377 
  21   2.0000     -10.272239      -279.5218 
  22   2.0000     -10.270879      -279.4848 
  23   2.0000     -10.270686      -279.4796 
  24   2.0000     -10.270008      -279.4611 
  25   2.0000     -10.269889      -279.4579 
  26   2.0000     -10.268534      -279.4210 
  27   2.0000     -10.267260      -279.3863 
  28   2.0000     -10.266934      -279.3775 
  29   2.0000      -1.130928       -30.7741 
  30   2.0000      -0.998644       -27.1745 
  31   2.0000      -0.977214       -26.5913 
  32   2.0000      -0.957803       -26.0631 
  33   2.0000      -0.943050       -25.6617 
  34   2.0000      -0.917576       -24.9685 
  35   2.0000      -0.910745       -24.7826 
  36   2.0000      -0.889880       -24.2149 
  37   2.0000      -0.888065       -24.1655 
  38   2.0000      -0.872685       -23.7470 
  39   2.0000      -0.853611       -23.2279 
  40   2.0000      -0.835735       -22.7415 
  41   2.0000      -0.830155       -22.5897 
  42   2.0000      -0.809579       -22.0298 
  43   2.0000      -0.800289       -21.7770 
  44   2.0000      -0.796960       -21.6864 
  45   2.0000      -0.791429       -21.5359 
  46   2.0000      -0.760832       -20.7033 
  47   2.0000      -0.756661       -20.5898 
  48   2.0000      -0.722575       -19.6623 
  49   2.0000      -0.712926       -19.3997 
  50   2.0000      -0.704105       -19.1597 
  51   2.0000      -0.697593       -18.9825 
  52   2.0000      -0.689363       -18.7585 
  53   2.0000      -0.680106       -18.5066 
  54   2.0000      -0.649515       -17.6742 
  55   2.0000      -0.636058       -17.3080 
  56   2.0000      -0.630136       -17.1469 
  57   2.0000      -0.619822       -16.8662 
  58   2.0000      -0.607460       -16.5298 
  59   2.0000      -0.599574       -16.3152 
  60   2.0000      -0.589157       -16.0318 
  61   2.0000      -0.584825       -15.9139 
  62   2.0000      -0.575948       -15.6723 
  63   2.0000      -0.569947       -15.5090 
  64   2.0000      -0.567636       -15.4462 
  65   2.0000      -0.558548       -15.1989 
  66   2.0000      -0.555894       -15.1266 
  67   2.0000      -0.552510       -15.0346 
  68   2.0000      -0.549690       -14.9578 
  69   2.0000      -0.541730       -14.7412 
  70   2.0000      -0.537871       -14.6362 
  71   2.0000      -0.529528       -14.4092 
  72   2.0000      -0.523912       -14.2564 
  73   2.0000      -0.519787       -14.1441 
  74   2.0000      -0.515367       -14.0239 
  75   2.0000      -0.508414       -13.8346 
  76   2.0000      -0.502453       -13.6724 
  77   2.0000      -0.501235       -13.6393 
  78   2.0000      -0.499698       -13.5975 
  79   2.0000      -0.494607       -13.4589 
  80   2.0000      -0.491047       -13.3621 
  81   2.0000      -0.487562       -13.2672 
  82   2.0000      -0.484887       -13.1945 
  83   2.0000      -0.478140       -13.0109 
  84   2.0000      -0.476711       -12.9720 
  85   2.0000      -0.468295       -12.7429 
  86   2.0000      -0.465285       -12.6610 
  87   2.0000      -0.462532       -12.5861 
  88   2.0000      -0.460190       -12.5224 
  89   2.0000      -0.452664       -12.3176 
  90   2.0000      -0.449243       -12.2245 
  91   2.0000      -0.444717       -12.1014 
  92   2.0000      -0.439711       -11.9651 
  93   2.0000      -0.433997       -11.8097 
  94   2.0000      -0.428521       -11.6606 
  95   2.0000      -0.423066       -11.5122 
  96   2.0000      -0.422372       -11.4933 
  97   2.0000      -0.422032       -11.4841 
  98   2.0000      -0.416581       -11.3357 
  99   2.0000      -0.414422       -11.2770 
 100   2.0000      -0.410268       -11.1640 
 101   2.0000      -0.405713       -11.0400 
 102   2.0000      -0.403756       -10.9868 
 103   2.0000      -0.401986       -10.9386 
 104   2.0000      -0.392390       -10.6775 
 105   2.0000      -0.381156       -10.3718 
 106   2.0000      -0.372678       -10.1411 
 107   2.0000      -0.355801        -9.6818 
 108   2.0000      -0.337010        -9.1705 
 109   2.0000      -0.292441        -7.9577 
 110   0.0000       0.046576         1.2674 
 111   0.0000       0.099454         2.7063 
 112   0.0000       0.108339         2.9481 
 113   0.0000       0.132234         3.5983 
 114   0.0000       0.141119         3.8400 
 115   0.0000       0.143849         3.9143 
 116   0.0000       0.149263         4.0617 
 117   0.0000       0.157406         4.2832 
 118   0.0000       0.160472         4.3667 
 119   0.0000       0.165216         4.4957 
 120   0.0000       0.168363         4.5814 
*Only the first 10 virtual orbitals were printed.

                    ********************************
                    * MULLIKEN POPULATION ANALYSIS *
                    ********************************

-----------------------
MULLIKEN ATOMIC CHARGES
-----------------------
   0 C :   -0.174481
   1 C :    0.142147
   2 C :    0.068374
   3 H :    0.017213
   4 H :    0.030783
   5 C :   -0.169787
   6 C :    0.095008
   7 C :    0.024047
   8 H :    0.013665
   9 H :    0.027422
  10 H :    0.019914
  11 H :    0.022603
  12 O :   -0.359158
  13 H :    0.018184
  14 C :   -0.008757
  15 C :   -0.047170
  16 H :    0.035499
  17 H :    0.029409
  18 C :   -0.061773
  19 H :   -0.002022
  20 C :   -0.114195
  21 H :    0.003336
  22 C :    0.114092
  23 C :   -0.001576
  24 H :    0.014225
  25 H :    0.016619
  26 C :    0.106429
  27 H :    0.013079
  28 H :    0.015774
  29 C :   -0.411864
  30 H :    0.009088
  31 H :   -0.002430
  32 C :   -0.041745
  33 H :    0.010518
  34 C :    0.121274
  35 H :    0.178932
  36 C :    0.070911
  37 H :    0.007316
  38 H :    0.015382
  39 C :   -0.038327
  40 H :    0.008107
  41 H :    0.000698
  42 H :   -0.008073
  43 C :   -0.038793
  44 C :    0.091752
  45 H :    0.019683
  46 H :    0.024757
  47 H :    0.018596
  48 H :    0.000246
  49 C :    0.052480
  50 C :   -0.044531
  51 C :   -0.066347
  52 H :    0.013587
  53 H :    0.002619
  54 C :   -0.047367
  55 C :    0.002149
  56 C :   -0.161049
  57 H :    0.019423
  58 H :    0.017902
  59 C :    0.034858
  60 C :    0.016880
  61 H :    0.024325
  62 H :    0.020483
  63 H :    0.023241
  64 H :    0.017139
  65 H :    0.016023
  66 H :    0.017592
  67 H :    0.019521
  68 H :    0.018354
  69 H :    0.016884
  70 H :    0.031044
  71 H :    0.012892
  72 H :    0.016967
Sum of atomic charges:   -0.0000000

--------------------------------
MULLIKEN REDUCED ORBITAL CHARGES
--------------------------------
  0 C s       :     3.102577  s :     3.102577
      pz      :     1.015511  p :     3.028891
      px      :     1.005269
      py      :     1.008111
      dz2     :     0.005350  d :     0.043013
      dxz     :     0.006390
      dyz     :     0.005911
      dx2y2   :     0.013843
      dxy     :     0.011519

  1 C s       :     2.939462  s :     2.939462
      pz      :     0.990342  p :     2.883999
      px      :     0.928969
      py      :     0.964687
      dz2     :     0.008106  d :     0.034392
      dxz     :     0.006293
      dyz     :     0.003937
      dx2y2   :     0.009853
      dxy     :     0.006203

  2 C s       :     3.085222  s :     3.085222
      pz      :     0.734705  p :     2.775751
      px      :     1.048687
      py      :     0.992359
      dz2     :     0.023126  d :     0.070653
      dxz     :     0.011185
      dyz     :     0.017684
      dx2y2   :     0.011397
      dxy     :     0.007261

  3 H s       :     0.960132  s :     0.960132
      pz      :     0.005188  p :     0.022655
      px      :     0.003788
      py      :     0.013679

  4 H s       :     0.945906  s :     0.945906
      pz      :     0.014438  p :     0.023311
      px      :     0.004496
      py      :     0.004377

  5 C s       :     3.108683  s :     3.108683
      pz      :     0.974151  p :     3.016312
      px      :     0.985876
      py      :     1.056285
      dz2     :     0.009370  d :     0.044792
      dxz     :     0.005483
      dyz     :     0.008751
      dx2y2   :     0.011044
      dxy     :     0.010144

  6 C s       :     2.955605  s :     2.955605
      pz      :     1.003701  p :     2.913940
      px      :     0.946455
      py      :     0.963784
      dz2     :     0.008930  d :     0.035446
      dxz     :     0.005899
      dyz     :     0.004390
      dx2y2   :     0.008753
      dxy     :     0.007474

  7 C s       :     3.002552  s :     3.002552
      pz      :     0.985007  p :     2.938617
      px      :     0.980827
      py      :     0.972783
      dz2     :     0.007803  d :     0.034784
      dxz     :     0.005918
      dyz     :     0.004516
      dx2y2   :     0.008499
      dxy     :     0.008048

  8 H s       :     0.963502  s :     0.963502
      pz      :     0.005875  p :     0.022833
      px      :     0.003846
      py      :     0.013112

  9 H s       :     0.949178  s :     0.949178
      pz      :     0.014494  p :     0.023401
      px      :     0.004489
      py      :     0.004417

 10 H s       :     0.957262  s :     0.957262
      pz      :     0.014189  p :     0.022824
      px      :     0.004535
      py      :     0.004100

 11 H s       :     0.954768  s :     0.954768
      pz      :     0.007653  p :     0.022628
      px      :     0.007284
      py      :     0.007692

 12 O s       :     3.713574  s :     3.713574
      pz      :     1.395120  p :     4.633442
      px      :     1.351252
      py      :     1.887069
      dz2     :     0.005368  d :     0.012142
      dxz     :     0.001433
      dyz     :     0.001581
      dx2y2   :     0.003177
      dxy     :     0.000584

 13 H s       :     0.961466  s :     0.961466
      pz      :     0.001908  p :     0.020350
      px      :     0.014194
      py      :     0.004248

 14 C s       :     3.194194  s :     3.194194
      pz      :     0.992878  p :     2.778203
      px      :     0.870138
      py      :     0.915187
      dz2     :     0.004256  d :     0.036360
      dxz     :     0.007482
      dyz     :     0.003354
      dx2y2   :     0.010804
      dxy     :     0.010464

 15 C s       :     3.124709  s :     3.124709
      pz      :     1.009649  p :     2.896201
      px      :     0.982112
      py      :     0.904440
      dz2     :     0.005251  d :     0.026261
      dxz     :     0.004103
      dyz     :     0.004403
      dx2y2   :     0.006479
      dxy     :     0.006024

 16 H s       :     0.939962  s :     0.939962
      pz      :     0.006566  p :     0.024539
      px      :     0.008344
      py      :     0.009629

 17 H s       :     0.945978  s :     0.945978
      pz      :     0.004939  p :     0.024613
      px      :     0.004463
      py      :     0.015211

 18 C s       :     3.199540  s :     3.199540
      pz      :     1.029880  p :     2.827068
      px      :     0.880938
      py      :     0.916250
      dz2     :     0.003618  d :     0.035165
      dxz     :     0.006562
      dyz     :     0.003296
      dx2y2   :     0.011942
      dxy     :     0.009747

 19 H s       :     0.977704  s :     0.977704
      pz      :     0.004731  p :     0.024317
      px      :     0.005006
      py      :     0.014581

 20 C s       :     3.100573  s :     3.100573
      pz      :     0.959150  p :     2.969495
      px      :     0.987413
      py      :     1.022932
      dz2     :     0.004447  d :     0.044128
      dxz     :     0.006931
      dyz     :     0.007047
      dx2y2   :     0.014223
      dxy     :     0.011480

 21 H s       :     0.972080  s :     0.972080
      pz      :     0.004609  p :     0.024584
      px      :     0.004510
      py      :     0.015465

 22 C s       :     2.926639  s :     2.926639
      pz      :     1.001276  p :     2.923751
      px      :     0.976521
      py      :     0.945954
      dz2     :     0.009604  d :     0.035517
      dxz     :     0.004115
      dyz     :     0.005706
      dx2y2   :     0.009854
      dxy     :     0.006239

 23 C s       :     3.000337  s :     3.000337
      pz      :     1.012412  p :     2.964772
      px      :     0.964988
      py      :     0.987371
      dz2     :     0.010050  d :     0.036466
      dxz     :     0.007282
      dyz     :     0.003007
      dx2y2   :     0.010247
      dxy     :     0.005881

 24 H s       :     0.962576  s :     0.962576
      pz      :     0.004984  p :     0.023200
      px      :     0.013578
      py      :     0.004637

 25 H s       :     0.960122  s :     0.960122
      pz      :     0.013830  p :     0.023259
      px      :     0.004684
      py      :     0.004745

 26 C s       :     2.969329  s :     2.969329
      pz      :     0.969297  p :     2.888914
      px      :     0.974405
      py      :     0.945213
      dz2     :     0.007237  d :     0.035328
      dxz     :     0.006366
      dyz     :     0.005605
      dx2y2   :     0.008585
      dxy     :     0.007534

 27 H s       :     0.964071  s :     0.964071
      pz      :     0.013871  p :     0.022850
      px      :     0.004231
      py      :     0.004748

 28 H s       :     0.961587  s :     0.961587
      pz      :     0.004702  p :     0.022640
      px      :     0.003809
      py      :     0.014129

 29 C s       :     3.255739  s :     3.255739
      pz      :     1.048309  p :     3.105141
      px      :     0.999508
      py      :     1.057324
      dz2     :     0.011686  d :     0.050984
      dxz     :     0.010403
      dyz     :     0.009430
      dx2y2   :     0.010784
      dxy     :     0.008681

 30 H s       :     0.967862  s :     0.967862
      pz      :     0.008771  p :     0.023050
      px      :     0.007865
      py      :     0.006414

 31 H s       :     0.979895  s :     0.979895
      pz      :     0.013327  p :     0.022534
      px      :     0.004706
      py      :     0.004501

 32 C s       :     3.034265  s :     3.034265
      pz      :     0.989797  p :     2.963755
      px      :     0.944482
      py      :     1.029476
      dz2     :     0.008709  d :     0.043724
      dxz     :     0.007045
      dyz     :     0.007906
      dx2y2   :     0.011137
      dxy     :     0.008928

 33 H s       :     0.968216  s :     0.968216
      pz      :     0.012570  p :     0.021267
      px      :     0.003959
      py      :     0.004738

 34 C s       :     2.898584  s :     2.898584
      pz      :     0.988482  p :     2.945349
      px      :     0.975530
      py      :     0.981338
      dz2     :     0.005475  d :     0.034793
      dxz     :     0.005759
      dyz     :     0.008254
      dx2y2   :     0.008852
      dxy     :     0.006452

 35 H s       :     0.752280  s :     0.752280
[...]
 Total          139.570          173.952          192.321  iso=     168.614

 Orientation: 
  X           0.2309223   -0.5039850    0.8322704
  Y          -0.1483350   -0.8636263   -0.4818156
  Z           0.9615985   -0.0121929   -0.2741892

 --------------
 Nucleus  39C :
 --------------

Diamagnetic contribution to the shielding tensor (ppm) : 
           264.394          3.897        -6.519
             3.499        261.602         8.987
            -6.117          7.644       261.923

Paramagnetic contribution to the shielding tensor (ppm): 
           -99.104          0.051        10.402
             3.918       -127.133        -3.538
            14.456         -4.850      -131.884

Total shielding tensor (ppm): 
           165.290          3.948         3.883
             7.416        134.469         5.449
             8.339          2.794       130.039


 Diagonalized sT*s matrix:
 
 sDSO           256.100          267.874          263.945  iso=     262.640
 sPSO          -128.698         -132.999          -96.424  iso=    -119.374
        ---------------  ---------------  ---------------
 Total          127.401          134.875          167.522  iso=     143.266

 Orientation: 
  X          -0.0703534   -0.2401116   -0.9681926
  Y          -0.4620351    0.8680483   -0.1817022
  Z           0.8840667    0.4345556   -0.1720101

 --------------
 Nucleus  43C :
 --------------

Diamagnetic contribution to the shielding tensor (ppm) : 
           257.950         -1.184        -5.481
            -4.129        247.381         9.498
            -7.986         13.898       247.058

Paramagnetic contribution to the shielding tensor (ppm): 
           -93.492         -2.231         5.279
             7.382        -97.378        -7.128
             9.552        -12.412       -94.556

Total shielding tensor (ppm): 
           164.458         -3.415        -0.202
             3.253        150.004         2.370
             1.567          1.485       152.501


 Diagonalized sT*s matrix:
 
 sDSO           237.499          257.673          257.217  iso=     250.796
 sPSO           -88.552         -104.152          -92.722  iso=     -95.142
        ---------------  ---------------  ---------------
 Total          148.947          153.521          164.495  iso=     155.654

 Orientation: 
  X           0.0339671   -0.0436218   -0.9984705
  Y           0.8751481    0.4837781    0.0086362
  Z          -0.4826615    0.8741029   -0.0546081

 --------------
 Nucleus  44C :
 --------------

Diamagnetic contribution to the shielding tensor (ppm) : 
           250.314          0.194         0.891
            -1.037        256.074         0.321
            -0.562          4.697       272.747

Paramagnetic contribution to the shielding tensor (ppm): 
           -70.960         -4.343        -2.061
            -1.366        -76.642        -3.659
            -0.441         -8.424       -79.969

Total shielding tensor (ppm): 
           179.354         -4.149        -1.170
            -2.403        179.432        -3.338
            -1.003         -3.727       192.778


 Diagonalized sT*s matrix:
 
 sDSO           254.432          254.069          270.634  iso=     259.712
 sPSO           -78.944          -71.654          -76.973  iso=     -75.857
        ---------------  ---------------  ---------------
 Total          175.488          182.415          193.661  iso=     183.855

 Orientation: 
  X           0.6671001    0.7447027   -0.0198858
  Y           0.7204443   -0.6517024   -0.2371581
  Z           0.1895719   -0.1438815    0.9712675

 --------------
 Nucleus  49C :
 --------------

Diamagnetic contribution to the shielding tensor (ppm) : 
           241.916         -6.737        -2.570
           -19.261        257.972         4.698
            -8.432          7.338       244.735

Paramagnetic contribution to the shielding tensor (ppm): 
           -68.301          2.212        -3.075
            18.402        -70.849         4.006
             3.995         -1.641       -78.450

Total shielding tensor (ppm): 
           173.616         -4.525        -5.646
            -0.859        187.123         8.704
            -4.437          5.697       166.285


 Diagonalized sT*s matrix:
 
 sDSO           241.164          237.685          265.776  iso=     248.208
 sPSO           -78.657          -63.561          -75.382  iso=     -72.533
        ---------------  ---------------  ---------------
 Total          162.507          174.124          190.393  iso=     175.675

 Orientation: 
  X           0.3562776   -0.9033810    0.2386819
  Y          -0.2320467   -0.3329852   -0.9139339
  Z           0.9051081    0.2702288   -0.3282617

 --------------
 Nucleus  50C :
 --------------

Diamagnetic contribution to the shielding tensor (ppm) : 
           264.679         15.056         7.846
            14.302        259.930        -0.943
            17.603        -14.442       260.450

Paramagnetic contribution to the shielding tensor (ppm): 
          -181.876        -38.772       -88.376
           -51.238       -161.981        34.087
           -90.020         53.315      -254.161

Total shielding tensor (ppm): 
            82.804        -23.716       -80.530
           -36.936         97.949        33.144
           -72.417         38.873         6.289


 Diagonalized sT*s matrix:
 
 sDSO           275.009          271.256          238.793  iso=     261.686
 sPSO          -310.161         -210.913          -76.943  iso=    -199.339
        ---------------  ---------------  ---------------
 Total          -35.151           60.343          161.850  iso=      62.347

 Orientation: 
  X          -0.6216379    0.3910605   -0.6787031
  Y          -0.1024098    0.8184487    0.5653795
  Z          -0.7765813   -0.4209672    0.4687303

 --------------
 Nucleus  51C :
 --------------

Diamagnetic contribution to the shielding tensor (ppm) : 
           261.617         15.750         7.448
            19.856        259.783       -10.498
            -9.689          0.258       274.026

Paramagnetic contribution to the shielding tensor (ppm): 
          -176.497        -30.746       -85.892
           -36.417       -162.493        39.281
           -61.179         26.924      -262.078

Total shielding tensor (ppm): 
            85.120        -14.996       -78.444
           -16.561         97.290        28.783
           -70.868         27.182        11.948


 Diagonalized sT*s matrix:
 
 sDSO           268.005          276.847          250.573  iso=     265.142
 sPSO          -304.108         -194.023         -102.936  iso=    -200.356
        ---------------  ---------------  ---------------
 Total          -36.103           82.824          147.637  iso=      64.786

 Orientation: 
  X          -0.5477567    0.4599479   -0.6988637
  Y           0.1025578    0.8659384    0.4895229
  Z          -0.8303279   -0.1964655    0.5214948

 --------------
 Nucleus  54C :
 --------------

Diamagnetic contribution to the shielding tensor (ppm) : 
           252.478          3.941         2.594
            10.287        238.674        -8.194
             1.864         -7.792       257.756

Paramagnetic contribution to the shielding tensor (ppm): 
           -91.580         -8.928         7.515
           -14.990        -81.233        10.393
            12.360          7.443       -95.399

Total shielding tensor (ppm): 
           160.898         -4.987        10.109
            -4.703        157.440         2.199
            14.225         -0.349       162.357


 Diagonalized sT*s matrix:
 
 sDSO           258.117          233.789          257.002  iso=     249.636
 sPSO          -110.491          -74.970          -82.751  iso=     -89.404
        ---------------  ---------------  ---------------
 Total          147.626          158.819          174.251  iso=     160.232

 Orientation: 
  X           0.6907237    0.1798586    0.7003940
  Y           0.4020333   -0.9005965   -0.1652125
  Z          -0.6010575   -0.3956979    0.6943724

 --------------
 Nucleus  55C :
 --------------

Diamagnetic contribution to the shielding tensor (ppm) : 
           251.739          1.150        -4.840
             3.412        237.891        -7.297
           -21.618         -4.183       237.122

Paramagnetic contribution to the shielding tensor (ppm): 
           -60.472          5.206         0.990
            -0.870        -63.540         4.768
            13.019          0.329       -54.643

Total shielding tensor (ppm): 
           191.267          6.356        -3.850
             2.541        174.351        -2.529
            -8.598         -3.854       182.479


 Diagonalized sT*s matrix:
 
 sDSO           236.077          230.283          260.391  iso=     242.251
 sPSO           -63.181          -50.940          -64.534  iso=     -59.552
        ---------------  ---------------  ---------------
 Total          172.896          179.344          195.857  iso=     182.699

 Orientation: 
  X           0.1668295    0.4870326   -0.8573023
  Y          -0.9620628   -0.1099636   -0.2496860
  Z          -0.2158773    0.8664336    0.4502108

 --------------
 Nucleus  56C :
 --------------

Diamagnetic contribution to the shielding tensor (ppm) : 
           244.178         -2.742         8.853
             3.598        238.624        -4.417
            18.962         -6.015       238.792

Paramagnetic contribution to the shielding tensor (ppm): 
           -77.742         -1.244        -4.937
            -2.596        -65.147         4.100
           -18.261          6.139       -64.103

Total shielding tensor (ppm): 
           166.436         -3.986         3.916
             1.002        173.477        -0.318
             0.700          0.124       174.689


 Diagonalized sT*s matrix:
 
 sDSO           238.004          234.804          248.786  iso=     240.531
 sPSO           -72.425          -61.199          -73.368  iso=     -68.997
        ---------------  ---------------  ---------------
 Total          165.579          173.605          175.418  iso=     171.534

 Orientation: 
  X          -0.9568374   -0.0933675    0.2752177
  Y          -0.1701001    0.9477580   -0.2698531
  Z           0.2356443    0.3050201    0.9227321

 --------------
 Nucleus  59C :
 --------------

Diamagnetic contribution to the shielding tensor (ppm) : 
           242.093          6.671         6.155
            20.412        227.080        11.012
            21.624          1.644       233.611

Paramagnetic contribution to the shielding tensor (ppm): 
           -73.809         -0.905        10.533
           -17.212        -40.796         2.120
           -12.365         12.260       -62.282

Total shielding tensor (ppm): 
           168.284          5.767        16.689
             3.200        186.284        13.131
             9.259         13.905       171.329


 Diagonalized sT*s matrix:
 
 sDSO           225.810          228.438          248.535  iso=     234.261
 sPSO           -70.355          -56.200          -50.333  iso=     -58.963
        ---------------  ---------------  ---------------
 Total          155.455          172.239          198.202  iso=     175.299

 Orientation: 
  X           0.6604143    0.6674629    0.3440150
  Y           0.2241199   -0.6124637    0.7580623
  Z          -0.7166751    0.4235345    0.5540715

 --------------
 Nucleus  60C :
 --------------

Diamagnetic contribution to the shielding tensor (ppm) : 
           249.938         -6.991         2.690
           -22.270        234.763       -15.889
             4.975         -3.251       230.777

Paramagnetic contribution to the shielding tensor (ppm): 
           -72.076         -1.074        -3.488
            17.945        -43.299        23.541
            -3.307          5.872       -56.349

Total shielding tensor (ppm): 
           177.862         -8.065        -0.798
            -4.324        191.465         7.652
             1.668          2.620       174.428


 Diagonalized sT*s matrix:
 
 sDSO           233.268          242.043          240.166  iso=     238.493
 sPSO           -61.287          -65.192          -45.244  iso=     -57.241
        ---------------  ---------------  ---------------
 Total          171.982          176.851          194.922  iso=     181.252

 Orientation: 
  X          -0.4376888    0.8393932   -0.3222538
  Y          -0.3603517    0.1646009    0.9181793
  Z           0.8237568    0.5180015    0.2304328



--------------------------------
CHEMICAL SHIELDING SUMMARY (ppm)
--------------------------------


  Nucleus  Element    Isotropic     Anisotropy
  -------  -------  ------------   ------------
      0       C           61.524        151.769 
      1       C          154.551         12.248 
      2       C          132.387         50.997 
      5       C           50.857        177.583 
      6       C          168.008         31.817 
      7       C          164.916         17.217 
     14       C           71.683        133.236 
     15       C           83.681        119.561 
     18       C           80.225        134.072 
     20       C           52.146        175.896 
     22       C          168.965          7.358 
     23       C          174.088         13.263 
     26       C          158.727         23.906 
     29       C          154.179         16.972 
     32       C          142.668         28.268 
     34       C          174.882         23.840 
     36       C          168.614         35.560 
     39       C          143.266         36.383 
     43       C          155.654         13.261 
     44       C          183.855         14.709 
     49       C          175.675         22.078 
     50       C           62.347        149.254 
     51       C           64.786        124.276 
     54       C          160.232         21.028 
     55       C          182.699         19.738 
     56       C          171.534          5.826 
     59       C          175.299         34.355 
     60       C          181.252         20.506 


NMR shielding tensor and spin rotation calculation done in   1.0 sec 

Maximum memory used throughout the entire PROP-calculation: 51.8 MB

--------------------------------
SUGGESTED CITATIONS FOR THIS RUN
--------------------------------

Below you find a list of papers that are relevant to this ORCA run
We neither can nor want to force you to cite these papers, but we appreciate if you do
You receive ORCA, which is the product of decades of hard work by many enthusiastic individuals, for free
The only thing we kindly ask in return is that you cite our papers,
We deeply appreciate it, if you show your appreciation for ORCA by not just citing the generic ORCA reference.

Please note that relegating all ORCA citations to the supporting information does *not* help us.
SI sections are not indexed - citations you put there will not count into any citation statistics
But we need these citations in order to attract the funding resources that allow us to do what we are doing

Therefore, if you are a happy ORCA user, please consider citing a few of the papers listed below in the main body of your paper

In addition to the list printed below, the program has created the file inpS.bibtex that contains the list in bibtex format
You can import this file easily into all common literature databanks and citation aid programs


List of essential papers. We consider these as the minimum necessary citations

  1. Neese,F.
     Software update: the ORCA program system, version 5.0
     WIRES Comput. Molec. Sci., 2022 12(1)e1606
     doi.org/10.1002/wcms.1606

List of papers to cite with high priority. The work reported in these papers was absolutely
necessary for this run to complete.
Our perspective: the developers of density functionals and basis sets usually get cited in chemistry papers
Good! But without the algorithms to do something with them, the functionals or basis sets would not do anything.
Hence, in our opinion, the algorithm design and method developments papers are equally worthy of getting cited

  1. Neese,F.
     An improvement of the resolution of the identity approximation for the formation of the Coulomb matrix
     J. Comp. Chem., 2003 24(14)1740-1747
     doi.org/10.1002/jcc.10318
  2. Neese,F.; Wennmohs,F.; Hansen,A.; Becker,U.
     Efficient, approximate and parallel Hartree-Fock and hybrid DFT calculations. A 'chain-of-spheres' algorithm for the Hartree-Fock exchange
     Chem. Phys., 2009 356(1-3)98-109
     doi.org/10.1016/j.chemphys.2008.10.036
  3. Stoychev,G.L.; Auer,A.A.; Izsak,R.; Neese,F.
     Self-Consistent Field Calculation of Nuclear Magnetic Resonance Chemical Shielding Constants Using Gauge-Including Atomic Orbitals and Approximate Two-Electron Integrals
     J. Chem. Theory Comput., 2018 14(2)619-637
     doi.org/10.1021/acs.jctc.7b01006
  4. Garcia-Rates,M.; Neese,F.
     Effect of the Solute Cavity on the Solvation Energy and its Derivatives within the Framework of the Gaussian Charge Scheme
     J. Comput. Chem., 2020 41 922-939
     doi.org/10.1002/jcc.26139
  5. Helmich-Paris,B.; de Souza,B.; Neese,F.; Izsák,R.
     An improved chain of spheres for exchange algorithm
     J. Chem. Phys., 2021 155 104109
     doi.org/doi: 10.1063/5.0058766.
  6. Neese,F.
     The SHARK Integral Generation and Digestion System
     J. Comp. Chem., 2022  1-16
     doi.org/10.1002/jcc.26942
  7. Caldeweyher,E.; Bannwarth,C.; Grimme,S.
     Extension of the D3 dispersion coefficient model
     J. Chem. Phys., 2017 147 034112-XXXX
     doi.org/10.1063/1.4993215
  8. Caldeweyher,E.; Ehlert,S.; Hansen,A.; Neugebauer,H.; Spicher,S.; Bannwarth,C.; Grimme,S.
     A generally applicable atomic-charge dependent London dispersion correction
     J. Chem. Phys., 2019 150 154122-XXXX
     doi.org/10.1063/1.5090222
  9. Caldeweyher,E.; Mewes,J.; Ehlert,S.; Grimme,S.
     Extension and evaluation of the D4 London-dispersion model for periodic systems
     Phys. Chem. Chem. Phys., 2020 22(16)8499-8512
     doi.org/10.1039/D0CP00502A

List of suggested additional citations. These are papers that are important in the 'surrounding' of 
of this run, or papers that preceded the highly important papers. If you like your results we are grateful for a citation.

  1. Izsak,R.; Neese,F.
     An overlap fitted chain of spheres exchange method
     J. Chem. Phys., 2011 135 144105
     doi.org/10.1063/1.3646921
  2. Izsak,R.; Hansen,A.; Neese,F.
     The resolution of identity and chain of spheres approximations for the LPNO-CCSD singles Fock term
     Molec. Phys., 2012 110 2413-2417
     doi.org/10.1080/00268976.2012.687466
  3. Neese,F.
     The ORCA program system
     WIRES Comput. Molec. Sci., 2012 2(1)73-78
     doi.org/10.1002/wcms.81
  4. Izsak,R.; Neese,F.; Klopper,W.
     Robust fitting techniques in the chain of spheres approximation to the Fock exchange: The role of the complementary space
     J. Chem. Phys., 2013 139 
     doi.org/10.1063/1.4819264
  5. Neese,F.
     Software update: the ORCA program system, version 4.0
     WIRES Comput. Molec. Sci., 2018 8(1)1-6
     doi.org/10.1002/wcms.1327
  6. Neese,F.; Wennmohs,F.; Becker,U.; Riplinger,C.
     The ORCA quantum chemistry program package
     J. Chem. Phys., 2020 152 Art. No. L224108
     doi.org/10.1063/5.0004608

Timings for individual modules:

Sum of individual times          ...      176.236 sec (=   2.937 min)
Startup calculation              ...        4.507 sec (=   0.075 min)   2.6 %
SCF iterations                   ...       71.427 sec (=   1.190 min)  40.5 %
Property integrals               ...       60.584 sec (=   1.010 min)  34.4 %
SCF Response                     ...       38.411 sec (=   0.640 min)  21.8 %
Property calculations            ...        1.307 sec (=   0.022 min)   0.7 %
                             ****ORCA TERMINATED NORMALLY****
TOTAL RUN TIME: 0 days 0 hours 2 minutes 56 seconds 509 msec
