
                                 *****************
                                 * O   R   C   A *
                                 *****************

                                            #,                                       
                                            ###                                      
                                            ####                                     
                                            #####                                    
                                            ######                                   
                                           ########,                                 
                                     ,,################,,,,,                         
                               ,,#################################,,                 
                          ,,##########################################,,             
                       ,#########################################, ''#####,          
                    ,#############################################,,   '####,        
                  ,##################################################,,,,####,       
                ,###########''''           ''''###############################       
              ,#####''   ,,,,##########,,,,          '''####'''          '####       
            ,##' ,,,,###########################,,,                        '##       
           ' ,,###''''                  '''############,,,                           
         ,,##''                                '''############,,,,        ,,,,,,###''
      ,#''                                            '''#######################'''  
     '                                                          ''''####''''         
             ,#######,   #######,   ,#######,      ##                                
            ,#'     '#,  ##    ##  ,#'     '#,    #''#        ######   ,####,        
            ##       ##  ##   ,#'  ##            #'  '#       #        #'  '#        
            ##       ##  #######   ##           ,######,      #####,   #    #        
            '#,     ,#'  ##    ##  '#,     ,#' ,#      #,         ##   #,  ,#        
             '#######'   ##     ##  '#######'  #'      '#     #####' # '####'        



                  #######################################################
                  #                        -***-                        #
                  #          Department of theory and spectroscopy      #
                  #    Directorship and core code : Frank Neese         #
                  #        Max Planck Institute fuer Kohlenforschung    #
                  #                Kaiser Wilhelm Platz 1               #
                  #                 D-45470 Muelheim/Ruhr               #
                  #                      Germany                        #
                  #                                                     #
                  #                  All rights reserved                #
                  #                        -***-                        #
                  #######################################################


                         Program Version 5.0.2 -  RELEASE  -


 With contributions from (in alphabetic order):
   Daniel Aravena         : Magnetic Suceptibility
   Michael Atanasov       : Ab Initio Ligand Field Theory (pilot matlab implementation)
   Alexander A. Auer      : GIAO ZORA, VPT2 properties, NMR spectrum
   Ute Becker             : Parallelization
   Giovanni Bistoni       : ED, misc. LED, open-shell LED, HFLD
   Martin Brehm           : Molecular dynamics
   Dmytro Bykov           : SCF Hessian
   Vijay G. Chilkuri      : MRCI spin determinant printing, contributions to CSF-ICE
   Dipayan Datta          : RHF DLPNO-CCSD density
   Achintya Kumar Dutta   : EOM-CC, STEOM-CC
   Dmitry Ganyushin       : Spin-Orbit,Spin-Spin,Magnetic field MRCI
   Miquel Garcia          : C-PCM and meta-GGA Hessian, CC/C-PCM, Gaussian charge scheme
   Yang Guo               : DLPNO-NEVPT2, F12-NEVPT2, CIM, IAO-localization
   Andreas Hansen         : Spin unrestricted coupled pair/coupled cluster methods
   Benjamin Helmich-Paris : MC-RPA, TRAH-SCF, COSX integrals
   Lee Huntington         : MR-EOM, pCC
   Robert Izsak           : Overlap fitted RIJCOSX, COSX-SCS-MP3, EOM
   Marcus Kettner         : VPT2
   Christian Kollmar      : KDIIS, OOCD, Brueckner-CCSD(T), CCSD density, CASPT2, CASPT2-K
   Simone Kossmann        : Meta GGA functionals, TD-DFT gradient, OOMP2, MP2 Hessian
   Martin Krupicka        : Initial AUTO-CI
   Lucas Lang             : DCDCAS
   Marvin Lechner         : AUTO-CI (C++ implementation), FIC-MRCC
   Dagmar Lenk            : GEPOL surface, SMD
   Dimitrios Liakos       : Extrapolation schemes; Compound Job, initial MDCI parallelization
   Dimitrios Manganas     : Further ROCIS development; embedding schemes
   Dimitrios Pantazis     : SARC Basis sets
   Anastasios Papadopoulos: AUTO-CI, single reference methods and gradients
   Taras Petrenko         : DFT Hessian,TD-DFT gradient, ASA, ECA, R-Raman, ABS, FL, XAS/XES, NRVS
   Peter Pinski           : DLPNO-MP2, DLPNO-MP2 Gradient
   Christoph Reimann      : Effective Core Potentials
   Marius Retegan         : Local ZFS, SOC
   Christoph Riplinger    : Optimizer, TS searches, QM/MM, DLPNO-CCSD(T), (RO)-DLPNO pert. Triples
   Tobias Risthaus        : Range-separated hybrids, TD-DFT gradient, RPA, STAB
   Michael Roemelt        : Original ROCIS implementation
   Masaaki Saitow         : Open-shell DLPNO-CCSD energy and density
   Barbara Sandhoefer     : DKH picture change effects
   Avijit Sen             : IP-ROCIS
   Kantharuban Sivalingam : CASSCF convergence, NEVPT2, FIC-MRCI
   Bernardo de Souza      : ESD, SOC TD-DFT
   Georgi Stoychev        : AutoAux, RI-MP2 NMR, DLPNO-MP2 response
   Willem Van den Heuvel  : Paramagnetic NMR
   Boris Wezisla          : Elementary symmetry handling
   Frank Wennmohs         : Technical directorship


 We gratefully acknowledge several colleagues who have allowed us to
 interface, adapt or use parts of their codes:
   Stefan Grimme, W. Hujo, H. Kruse, P. Pracht,  : VdW corrections, initial TS optimization,
                  C. Bannwarth, S. Ehlert          DFT functionals, gCP, sTDA/sTD-DF
   Ed Valeev, F. Pavosevic, A. Kumar             : LibInt (2-el integral package), F12 methods
   Garnet Chan, S. Sharma, J. Yang, R. Olivares  : DMRG
   Ulf Ekstrom                                   : XCFun DFT Library
   Mihaly Kallay                                 : mrcc  (arbitrary order and MRCC methods)
   Jiri Pittner, Ondrej Demel                    : Mk-CCSD
   Frank Weinhold                                : gennbo (NPA and NBO analysis)
   Christopher J. Cramer and Donald G. Truhlar   : smd solvation model
   Lars Goerigk                                  : TD-DFT with DH, B97 family of functionals
   V. Asgeirsson, H. Jonsson                     : NEB implementation
   FAccTs GmbH                                   : IRC, NEB, NEB-TS, DLPNO-Multilevel, CI-OPT
                                                   MM, QMMM, 2- and 3-layer-ONIOM, Crystal-QMMM,
                                                   LR-CPCM, SF, NACMEs, symmetry and pop. for TD-DFT,
                                                   nearIR, NL-DFT gradient (VV10), updates on ESD,
                                                   ML-optimized integration grids
   S Lehtola, MJT Oliveira, MAL Marques          : LibXC Library
   Liviu Ungur et al                             : ANISO software


 Your calculation uses the libint2 library for the computation of 2-el integrals
 For citations please refer to: http://libint.valeyev.net

 Your ORCA version has been built with support for libXC version: 5.1.0
 For citations please refer to: https://tddft.org/programs/libxc/

 This ORCA versions uses:
   CBLAS   interface :  Fast vector & matrix operations
   LAPACKE interface :  Fast linear algebra routines
   SCALAPACK package :  Parallel linear algebra routines
   Shared memory     :  Shared parallel matrices
   BLAS/LAPACK       :  OpenBLAS 0.3.15  USE64BITINT DYNAMIC_ARCH NO_AFFINITY Zen SINGLE_THREADED
        Core in use  :  Zen
   Copyright (c) 2011-2014, The OpenBLAS Project


Your calculation utilizes the atom-pairwise dispersion correction
based on tight binding partial charges (D4)
Cite in your paper:
E.Caldeweyher, C.Bannwarth, S.Grimme, J.Chem.Phys., (2017), 147, 034112.
E.Caldeweyher, S.Ehlert, A.Hansen, H.Neugebauer, S.Grimme, J.Chem.Phys., (2018), in progress.
   

================================================================================

----- Orbital basis set information -----
Your calculation utilizes the basis: pcJ-0
   F. Jensen, Theor. Chem. Acc. 126, 371 (2010).

----- AuxJ basis set information -----
Your calculation utilizes the auxiliary basis: def2/J
   F. Weigend, Phys. Chem. Chem. Phys. 8, 1057 (2006).

================================================================================
                                        WARNINGS
                       Please study these warnings very carefully!
================================================================================


INFO   : the flag for use of the SHARK integral package has been found!

================================================================================
                                       INPUT FILE
================================================================================
NAME = inpJ
|  1> ! pbe0
|  2> ! D4
|  3> ! pcJ-0
|  4> ! def2/J RIJCOSX
|  5> ! DEFGRID2
|  6> ! scfconv7
|  7> ! smallprint printgap noloewdin
|  8> ! NOSOSCF
|  9> %MaxCore 4000
| 10> %output
| 11>        print[P_BondOrder_M] 1
| 12>        print[P_Mayer] 1
| 13>        print[P_basis] 2
| 14> end
| 15> %pal
| 16>     nprocs 4
| 17> end
| 18> ! CPCM(chloroform)
| 19> *xyz 0 1
| 20> C   -5.3581254200   0.1721787600   0.1422309600
| 21> C   -6.6976679300  -0.3244453600  -0.3487426600
| 22> C   -7.2066749400   0.4955918100  -1.5403431200
| 23> H   -7.4434145900  -0.2240525800   0.4582812000
| 24> H   -6.6417500600  -1.3841690600  -0.6210909500
| 25> C   -5.3017126500   1.6302115000   0.3811051000
| 26> C   -5.8624736700   2.4713484900  -0.7433610700
| 27> C   -7.2469329800   1.9773640600  -1.1848647100
| 28> H   -5.1780508800   2.4027112900  -1.6026431200
| 29> H   -5.9053719800   3.5237322600  -0.4434658100
| 30> H   -7.5995409400   2.5547575500  -2.0476148800
| 31> H   -7.9684414000   2.1240289500  -0.3669502000
| 32> O   -8.4818219000   0.0197580900  -1.9912300000
| 33> H   -6.5302416900   0.3450978300  -2.3933067000
| 34> C   -4.3149272500  -0.6777249900   0.2942922500
| 35> C   -4.8395648800   2.1718947700   1.5139274300
| 36> H   -4.4651900500   1.5536980000   2.3251777000
| 37> H   -4.8359475500   3.2498036200   1.6578690900
| 38> C   -2.9632526700  -0.3214899600   0.6597946100
| 39> H   -4.5135168100  -1.7261704200   0.0762295500
| 40> C   -1.9452489600  -1.1773967400   0.8941473000
| 41> H   -2.7576899600   0.7435416900   0.7394983300
| 42> C   -2.0415237000  -2.6818488500   0.8840439700
| 43> C   -0.9822825600  -3.3156904100  -0.0364492000
| 44> H   -3.0381181800  -3.0329123200   0.6030435300
| 45> H   -1.8582093500  -3.0353983100   1.9113598300
| 46> C    0.4341214300  -2.7990754500   0.2491779900
| 47> H   -1.2482226200  -3.1120612500  -1.0815595400
| 48> H   -1.0060130500  -4.4057292500   0.0842900100
| 49> C    0.5032872600  -1.2661273400   0.2024101900
| 50> H    1.1275544100  -3.2522848000  -0.4665027800
| 51> H    0.7444943000  -3.1305186900   1.2517059200
| 52> C   -0.5547630500  -0.7194376900   1.2136124900
| 53> H   -0.2855272400  -1.1932441700   2.1756191300
| 54> C   -0.2246961700   0.7648529200   1.3343729500
| 55> H   -9.1115076600   0.1431144500  -1.2682954100
| 56> C    1.3200138100   0.8043042900   1.2266269900
| 57> H   -0.5953397800   1.1949885300   2.2707817700
| 58> H   -0.6809502700   1.3317030100   0.5152126500
| 59> C    1.7858429100  -0.6203231100   0.7962991300
| 60> H    1.7858416400   1.0936942400   2.1737425200
| 61> H    1.6343125300   1.5452574400   0.4815756800
| 62> H    2.0344071600  -1.1943546100   1.7037983400
| 63> C    3.0722318400  -0.5761312000  -0.0635342700
| 64> C    0.2327971600  -0.7436438800  -1.2151188200
| 65> H   -0.7982281500  -0.9400860100  -1.5252839300
| 66> H    0.8991690100  -1.2263178600  -1.9384377100
| 67> H    0.3939705400   0.3368999900  -1.2855454600
| 68> H    2.8434614400   0.0357119800  -0.9520776800
| 69> C    3.5351185500  -1.9523481100  -0.5397903100
| 70> C    4.1396514200   0.1661521200   0.7086583800
| 71> C    5.2609077200  -0.3587271500   1.2058944600
| 72> H    3.9305365000   1.2209816200   0.8815969500
| 73> H    5.4627851200  -1.4164863400   1.0392646700
| 74> C    6.3125489200   0.3641776100   2.0065165500
| 75> C    5.9589471800   1.8152366400   2.3297819400
| 76> C    7.7199315800   0.2460032500   1.3539176200
| 77> H    6.3945573100  -0.1739237800   2.9667055400
| 78> H    8.4076801800   0.7799463600   2.0273745800
| 79> C    7.7913711600   0.9105950900  -0.0222941600
| 80> C    8.1959005900  -1.2070201800   1.2681823400
| 81> H    5.0368877900   1.8736608400   2.9181984700
| 82> H    5.8116480600   2.4129379600   1.4241644000
| 83> H    6.7631021100   2.2790818700   2.9112649800
| 84> H    8.8029348800   0.8281321500  -0.4352473300
| 85> H    7.5345780600   1.9737639800   0.0206389700
| 86> H    7.0999188300   0.4239505200  -0.7207323500
| 87> H    7.6296460400  -1.7708044700   0.5178851400
| 88> H    8.0900666200  -1.7208136900   2.2308878000
| 89> H    9.2515217500  -1.2466771700   0.9774560900
| 90> H    4.5174171800  -1.8824837600  -1.0197978200
| 91> H    2.8407757300  -2.3717338900  -1.2706940200
| 92> H    3.6140384400  -2.6594810000   0.2943009100
| 93> *
| 94> %eprnmr
| 95>  Nuclei = all H { ssfc }
| 96>  SpinSpinRThresh 8.0
| 97> end
| 98> 
| 99>                          ****END OF INPUT****
================================================================================

                       ****************************
                       * Single Point Calculation *
                       ****************************

---------------------------------
CARTESIAN COORDINATES (ANGSTROEM)
---------------------------------
  C     -5.358125    0.172179    0.142231
  C     -6.697668   -0.324445   -0.348743
  C     -7.206675    0.495592   -1.540343
  H     -7.443415   -0.224053    0.458281
  H     -6.641750   -1.384169   -0.621091
  C     -5.301713    1.630211    0.381105
  C     -5.862474    2.471348   -0.743361
  C     -7.246933    1.977364   -1.184865
  H     -5.178051    2.402711   -1.602643
  H     -5.905372    3.523732   -0.443466
  H     -7.599541    2.554758   -2.047615
  H     -7.968441    2.124029   -0.366950
  O     -8.481822    0.019758   -1.991230
  H     -6.530242    0.345098   -2.393307
  C     -4.314927   -0.677725    0.294292
  C     -4.839565    2.171895    1.513927
  H     -4.465190    1.553698    2.325178
  H     -4.835948    3.249804    1.657869
  C     -2.963253   -0.321490    0.659795
  H     -4.513517   -1.726170    0.076230
  C     -1.945249   -1.177397    0.894147
  H     -2.757690    0.743542    0.739498
  C     -2.041524   -2.681849    0.884044
  C     -0.982283   -3.315690   -0.036449
  H     -3.038118   -3.032912    0.603044
  H     -1.858209   -3.035398    1.911360
  C      0.434121   -2.799075    0.249178
  H     -1.248223   -3.112061   -1.081560
  H     -1.006013   -4.405729    0.084290
  C      0.503287   -1.266127    0.202410
  H      1.127554   -3.252285   -0.466503
  H      0.744494   -3.130519    1.251706
  C     -0.554763   -0.719438    1.213612
  H     -0.285527   -1.193244    2.175619
  C     -0.224696    0.764853    1.334373
  H     -9.111508    0.143114   -1.268295
  C      1.320014    0.804304    1.226627
  H     -0.595340    1.194989    2.270782
  H     -0.680950    1.331703    0.515213
  C      1.785843   -0.620323    0.796299
  H      1.785842    1.093694    2.173743
  H      1.634313    1.545257    0.481576
  H      2.034407   -1.194355    1.703798
  C      3.072232   -0.576131   -0.063534
  C      0.232797   -0.743644   -1.215119
  H     -0.798228   -0.940086   -1.525284
  H      0.899169   -1.226318   -1.938438
  H      0.393971    0.336900   -1.285545
  H      2.843461    0.035712   -0.952078
  C      3.535119   -1.952348   -0.539790
  C      4.139651    0.166152    0.708658
  C      5.260908   -0.358727    1.205894
  H      3.930537    1.220982    0.881597
  H      5.462785   -1.416486    1.039265
  C      6.312549    0.364178    2.006517
  C      5.958947    1.815237    2.329782
  C      7.719932    0.246003    1.353918
  H      6.394557   -0.173924    2.966706
  H      8.407680    0.779946    2.027375
  C      7.791371    0.910595   -0.022294
  C      8.195901   -1.207020    1.268182
  H      5.036888    1.873661    2.918198
  H      5.811648    2.412938    1.424164
  H      6.763102    2.279082    2.911265
  H      8.802935    0.828132   -0.435247
  H      7.534578    1.973764    0.020639
  H      7.099919    0.423951   -0.720732
  H      7.629646   -1.770804    0.517885
  H      8.090067   -1.720814    2.230888
  H      9.251522   -1.246677    0.977456
  H      4.517417   -1.882484   -1.019798
  H      2.840776   -2.371734   -1.270694
  H      3.614038   -2.659481    0.294301

----------------------------
CARTESIAN COORDINATES (A.U.)
----------------------------
  NO LB      ZA    FRAG     MASS         X           Y           Z
   0 C     6.0000    0    12.011  -10.125390    0.325371    0.268778
   1 C     6.0000    0    12.011  -12.656758   -0.613113   -0.659028
   2 C     6.0000    0    12.011  -13.618642    0.936533   -2.910827
   3 H     1.0000    0     1.008  -14.066015   -0.423398    0.866026
   4 H     1.0000    0     1.008  -12.551089   -2.615700   -1.173692
   5 C     6.0000    0    12.011  -10.018785    3.080653    0.720184
   6 C     6.0000    0    12.011  -11.078470    4.670172   -1.404749
   7 C     6.0000    0    12.011  -13.694719    3.736677   -2.239070
   8 H     1.0000    0     1.008   -9.785098    4.540466   -3.028557
   9 H     1.0000    0     1.008  -11.159536    6.658889   -0.838029
  10 H     1.0000    0     1.008  -14.361051    4.827792   -3.869431
  11 H     1.0000    0     1.008  -15.058172    4.013833   -0.693435
  12 O     8.0000    0    15.999  -16.028321    0.037337   -3.762879
  13 H     1.0000    0     1.008  -12.340368    0.652140   -4.522694
  14 C     6.0000    0    12.011   -8.154031   -1.280715    0.556132
  15 C     6.0000    0    12.011   -9.145452    4.104286    2.860908
  16 H     1.0000    0     1.008   -8.437986    2.936064    4.393949
  17 H     1.0000    0     1.008   -9.138616    6.141239    3.132919
  18 C     6.0000    0    12.011   -5.599736   -0.607528    1.246831
  19 H     1.0000    0     1.008   -8.529311   -3.261989    0.144053
  20 C     6.0000    0    12.011   -3.675988   -2.224957    1.689694
  21 H     1.0000    0     1.008   -5.211279    1.405090    1.397449
  22 C     6.0000    0    12.011   -3.857921   -5.067960    1.670601
  23 C     6.0000    0    12.011   -1.856245   -6.265747   -0.068879
  24 H     1.0000    0     1.008   -5.741211   -5.731374    1.139587
  25 H     1.0000    0     1.008   -3.511507   -5.736072    3.611947
  26 C     6.0000    0    12.011    0.820371   -5.289486    0.470878
  27 H     1.0000    0     1.008   -2.358799   -5.880943   -2.043851
  28 H     1.0000    0     1.008   -1.901089   -8.325622    0.159285
  29 C     6.0000    0    12.011    0.951075   -2.392634    0.382500
  30 H     1.0000    0     1.008    2.130769   -6.145928   -0.881562
  31 H     1.0000    0     1.008    1.406890   -5.915823    2.365381
  32 C     6.0000    0    12.011   -1.048350   -1.359540    2.293395
  33 H     1.0000    0     1.008   -0.539568   -2.254905    4.111324
  34 C     6.0000    0    12.011   -0.424614    1.445363    2.521599
  35 H     1.0000    0     1.008  -17.218254    0.270447   -2.396731
  36 C     6.0000    0    12.011    2.494465    1.519915    2.317989
  37 H     1.0000    0     1.008   -1.125029    2.258201    4.291156
  38 H     1.0000    0     1.008   -1.286810    2.516554    0.973611
  39 C     6.0000    0    12.011    3.374754   -1.172241    1.504787
  40 H     1.0000    0     1.008    3.374752    2.066783    4.107778
  41 H     1.0000    0     1.008    3.088403    2.920113    0.910046
  42 H     1.0000    0     1.008    3.844472   -2.257003    3.219712
  43 C     6.0000    0    12.011    5.805677   -1.088730   -0.120062
  44 C     6.0000    0    12.011    0.439923   -1.405283   -2.296242
  45 H     1.0000    0     1.008   -1.508433   -1.776505   -2.882369
  46 H     1.0000    0     1.008    1.699183   -2.317405   -3.663116
  47 H     1.0000    0     1.008    0.744496    0.636649   -2.429329
  48 H     1.0000    0     1.008    5.373363    0.067486   -1.799166
  49 C     6.0000    0    12.011    6.680406   -3.689403   -1.020056
  50 C     6.0000    0    12.011    7.822807    0.313982    1.339170
  51 C     6.0000    0    12.011    9.941675   -0.677896    2.278810
  52 H     1.0000    0     1.008    7.427638    2.307321    1.665977
  53 H     1.0000    0     1.008   10.323168   -2.676771    1.963926
  54 C     6.0000    0    12.011   11.928989    0.688196    3.791767
  55 C     6.0000    0    12.011   11.260778    3.430300    4.402650
  56 C     6.0000    0    12.011   14.588556    0.464879    2.558534
  57 H     1.0000    0     1.008   12.083962   -0.328668    5.606261
  58 H     1.0000    0     1.008   15.888213    1.473885    3.831183
  59 C     6.0000    0    12.011   14.723558    1.720775   -0.042130
  60 C     6.0000    0    12.011   15.488008   -2.280938    2.396517
  61 H     1.0000    0     1.008    9.518338    3.540706    5.514596
  62 H     1.0000    0     1.008   10.982423    4.559792    2.691281
  63 H     1.0000    0     1.008   12.780411    4.306841    5.501494
  64 H     1.0000    0     1.008   16.635136    1.564943   -0.822498
  65 H     1.0000    0     1.008   14.238289    3.729873    0.039002
  66 H     1.0000    0     1.008   13.416902    0.801150   -1.361987
  67 H     1.0000    0     1.008   14.417942   -3.346335    0.978661
  68 H     1.0000    0     1.008   15.288010   -3.251867    4.215767
  69 H     1.0000    0     1.008   17.482842   -2.355878    1.847124
  70 H     1.0000    0     1.008    8.536681   -3.557379   -1.927139
  71 H     1.0000    0     1.008    5.368288   -4.481928   -2.401264
  72 H     1.0000    0     1.008    6.829543   -5.025691    0.556148

--------------------------------
INTERNAL COORDINATES (ANGSTROEM)
--------------------------------
 C      0   0   0     0.000000000000     0.00000000     0.00000000
 C      1   0   0     1.510650438784     0.00000000     0.00000000
 C      2   1   0     1.533447342651   111.78284599     0.00000000
 H      2   1   3     1.103405773860   109.37114762   241.46807306
 H      2   1   3     1.095588754777   110.70283832   122.93153261
 C      1   2   3     1.478547505592   114.23800859    50.24619679
 C      6   1   2     1.512080859270   114.47303636   312.22391790
 C      3   2   1     1.524347273632   110.32737720   305.11247465
 H      7   6   1     1.100686722981   108.37675907   289.93510966
 H      7   6   1     1.095120555615   110.20919949   172.74277856
 H      8   3   2     1.096381991636   109.68892138   179.26502225
 H      8   3   2     1.100485863498   108.67425194   296.75202230
 O      3   2   1     1.433776997040   111.22959954   180.36118793
 H      3   2   1     1.098980094692   109.00054895    65.12377353
 C      1   2   3     1.354149711838   120.88236298   232.22862237
 C      6   1   2     1.338016351791   123.31114842   129.92654990
 H     16   6   1     1.086485508578   121.38808447     0.72185551
 H     16   6   1     1.087483229971   120.96328550   181.37426532
 C     15   1   2     1.444825090446   126.46726705   175.20489260
 H     15   1   2     1.089140474944   116.18231665   357.99395675
 C     19  15   1     1.350492189142   126.35873009   175.46295603
 H     19  15   1     1.087612580943   115.89970390   354.74492897
 C     21  19  15     1.507563283621   125.67341864   356.84182938
 C     23  21  19     1.539822909256   111.76863859   127.51425880
 H     23  21  19     1.093346863907   112.35600866     3.35383642
 H     23  21  19     1.101807264357   107.65865658   246.09440543
 C     24  23  21     1.534494760972   112.65020760    51.03268458
 H     24  23  21     1.097471900820   109.03844442   288.89418057
 H     24  23  21     1.096962062104   109.16905409   172.91979533
 C     27  24  23     1.535220194991   111.84424635   306.13322705
 H     27  24  23     1.094736030843   108.88163433   182.58654781
 H     27  24  23     1.100567212942   109.17626502    66.10517499
 C     21  19  15     1.498411013376   122.87482698   177.36345767
 H     33  21  19     1.105638854817   106.29031933   124.26578554
 C     33  21  19     1.525334667837   121.00341002     1.94216199
 H     13   3   2     0.966620592227   107.56630599    62.81654551
 C     35  33  21     1.548965630607   103.59589084   196.86299023
 H     35  33  21     1.095104929583   112.12756998    74.98207486
 H     35  33  21     1.095678066494   110.74031117   315.33442340
 C     30  27  24     1.553935703910   116.13704416   166.12989632
 H     37  35  33     1.094426762068   111.77758457   248.50661594
 H     37  35  33     1.096766479439   110.50205926   129.84378748
 H     40  30  27     1.102202869494   106.52063092   320.09338578
 C     40  30  27     1.547922116869   119.04391016    80.39217253
 C     30  27  24     1.534777623750   111.10765835   294.12879367
 H     45  30  27     1.094442824345   111.51065582    66.57228520
 H     45  30  27     1.095543623080   110.64723114   306.51008508
 H     45  30  27     1.094765648455   111.68332885   186.63637057
 H     44  40  30     1.102813385974   106.91758720    62.21928550
 C     44  40  30     1.528089298863   113.52507291   303.05033555
 C     44  40  30     1.512167509118   108.48043700   176.82215295
 C     51  44  40     1.334150537840   126.18877653   112.50693245
 H     51  44  40     1.089174950516   114.89457656   294.26409151
 H     52  51  44     1.089667139807   118.72509813     1.25050051
 C     52  51  44     1.506498004169   126.58119413   181.69611385
 C     55  52  51     1.528105693808   113.98869741     4.38599552
 C     55  52  51     1.555820199916   111.84531428   236.43999674
 H     55  52  51     1.103739724060   106.27517244   122.26097807
 H     57  55  52     1.100744138522   105.76639861   181.49626310
 C     57  55  52     1.529949277197   112.74011565    63.58403071
 C     57  55  52     1.531396135834   112.12980193   298.34791097
 H     56  55  52     1.095372502216   111.04331104    60.29619019
 H     56  55  52     1.095028322665   111.99239190   300.01377955
 H     56  55  52     1.095417762611   110.15223051   179.98223349
 H     60  57  55     1.095715116582   110.45216557   178.53475835
 H     60  57  55     1.094583956818   112.06662801    58.41455601
 H     60  57  55     1.096697390999   110.52814107   297.96705899
 H     61  57  55     1.096103475669   111.45604325    71.12388923
 H     61  57  55     1.096351404814   111.43787617   310.30382154
 H     61  57  55     1.095641575852   110.40493497   190.28317306
 H     50  44  40     1.095535866851   110.53204692   187.96838191
 H     50  44  40     1.091886723723   111.21805997    68.58627870
 H     50  44  40     1.096345491366   111.44317116   308.14471288

---------------------------
INTERNAL COORDINATES (A.U.)
---------------------------
 C      0   0   0     0.000000000000     0.00000000     0.00000000
 C      1   0   0     2.854715613390     0.00000000     0.00000000
 C      2   1   0     2.897795518399   111.78284599     0.00000000
 H      2   1   3     2.085134727182   109.37114762   241.46807306
 H      2   1   3     2.070362701932   110.70283832   122.93153261
 C      1   2   3     2.794049861561   114.23800859    50.24619679
 C      6   1   2     2.857418716366   114.47303636   312.22391790
 C      3   2   1     2.880598880155   110.32737720   305.11247465
 H      7   6   1     2.079996465678   108.37675907   289.93510966
 H      7   6   1     2.069477933740   110.20919949   172.74277856
 H      8   3   2     2.071861702356   109.68892138   179.26502225
 H      8   3   2     2.079616896262   108.67425194   296.75202230
 O      3   2   1     2.709445861523   111.22959954   180.36118793
 H      3   2   1     2.076771405598   109.00054895    65.12377353
 C      1   2   3     2.558972099703   120.88236298   232.22862237
 C      6   1   2     2.528484467594   123.31114842   129.92654990
 H     16   6   1     2.053160059687   121.38808447     0.72185551
 H     16   6   1     2.055045479877   120.96328550   181.37426532
 C     15   1   2     2.730323732361   126.46726705   175.20489260
 H     15   1   2     2.058177219012   116.18231665   357.99395675
 C     19  15   1     2.552060383478   126.35873009   175.46295603
 H     19  15   1     2.055289917790   115.89970390   354.74492897
 C     21  19  15     2.848881735599   125.67341864   356.84182938
 C     23  21  19     2.909843593231   111.76863859   127.51425880
 H     23  21  19     2.066126142166   112.35600866     3.35383642
 H     23  21  19     2.082113982000   107.65865658   246.09440543
 C     24  23  21     2.899774852174   112.65020760    51.03268458
 H     24  23  21     2.073921332224   109.03844442   288.89418057
 H     24  23  21     2.072957876678   109.16905409   172.91979533
 C     27  24  23     2.901145723799   111.84424635   306.13322705
 H     27  24  23     2.068751287230   108.88163433   182.58654781
 H     27  24  23     2.079770624434   109.17626502    66.10517499
 C     21  19  15     2.831586451332   122.87482698   177.36345767
 H     33  21  19     2.089354638626   106.29031933   124.26578554
 C     33  21  19     2.882464784788   121.00341002     1.94216199
 H     13   3   2     1.826648194718   107.56630599    62.81654551
 C     35  33  21     2.927120832705   103.59589084   196.86299023
 H     35  33  21     2.069448404820   112.12756998    74.98207486
 H     35  33  21     2.070531476618   110.74031117   315.33442340
 C     30  27  24     2.936512910113   116.13704416   166.12989632
 H     37  35  33     2.068166853943   111.77758457   248.50661594
 H     37  35  33     2.072588279005   110.50205926   129.84378748
 H     40  30  27     2.082861567366   106.52063092   320.09338578
 C     40  30  27     2.925148877522   119.04391016    80.39217253
 C     30  27  24     2.900309385358   111.10765835   294.12879367
 H     45  30  27     2.068197207248   111.51065582    66.57228520
 H     45  30  27     2.070277415386   110.64723114   306.51008508
 H     45  30  27     2.068807256404   111.68332885   186.63637057
 H     44  40  30     2.084015276313   106.91758720    62.21928550
 C     44  40  30     2.887670283028   113.52507291   303.05033555
 C     44  40  30     2.857582460847   108.48043700   176.82215295
 C     51  44  40     2.521179137942   126.18877653   112.50693245
 H     51  44  40     2.058242368402   114.89457656   294.26409151
 H     52  51  44     2.059172471369   118.72509813     1.25050051
 C     52  51  44     2.846868649178   126.58119413   181.69611385
 C     55  52  51     2.887701264982   113.98869741     4.38599552
 C     55  52  51     2.940074091464   111.84531428   236.43999674
 H     55  52  51     2.085765801603   106.27517244   122.26097807
 H     57  55  52     2.080104965326   105.76639861   181.49626310
 C     57  55  52     2.891185132693   112.74011565    63.58403071
 C     57  55  52     2.893919299271   112.12980193   298.34791097
 H     56  55  52     2.069954043816   111.04331104    60.29619019
 H     56  55  52     2.069303638724   111.99239190   300.01377955
 H     56  55  52     2.070039573568   110.15223051   179.98223349
 H     60  57  55     2.070601491138   110.45216557   178.53475835
 H     60  57  55     2.068463908970   112.06662801    58.41455601
 H     60  57  55     2.072457720774   110.52814107   297.96705899
 H     61  57  55     2.071335383454   111.45604325    71.12388923
 H     61  57  55     2.071803901639   111.43787617   310.30382154
 H     61  57  55     2.070462519298   110.40493497   190.28317306
 H     50  44  40     2.070262758237   110.53204692   187.96838191
 H     50  44  40     2.063366877102   111.21805997    68.58627870
 H     50  44  40     2.071792726841   111.44317116   308.14471288

---------------------
BASIS SET INFORMATION
---------------------
There are 3 groups of distinct atoms

 Group   1 Type C   : 7s4p contracted to 4s3p pattern {4111/211}
 Group   2 Type H   : 5s contracted to 3s pattern {311}
 Group   3 Type O   : 7s4p contracted to 4s3p pattern {4111/211}

Atom   0C    basis set group =>   1
Atom   1C    basis set group =>   1
Atom   2C    basis set group =>   1
Atom   3H    basis set group =>   2
Atom   4H    basis set group =>   2
Atom   5C    basis set group =>   1
Atom   6C    basis set group =>   1
Atom   7C    basis set group =>   1
Atom   8H    basis set group =>   2
Atom   9H    basis set group =>   2
Atom  10H    basis set group =>   2
Atom  11H    basis set group =>   2
Atom  12O    basis set group =>   3
Atom  13H    basis set group =>   2
Atom  14C    basis set group =>   1
Atom  15C    basis set group =>   1
Atom  16H    basis set group =>   2
Atom  17H    basis set group =>   2
Atom  18C    basis set group =>   1
Atom  19H    basis set group =>   2
Atom  20C    basis set group =>   1
Atom  21H    basis set group =>   2
Atom  22C    basis set group =>   1
Atom  23C    basis set group =>   1
Atom  24H    basis set group =>   2
Atom  25H    basis set group =>   2
Atom  26C    basis set group =>   1
Atom  27H    basis set group =>   2
Atom  28H    basis set group =>   2
Atom  29C    basis set group =>   1
Atom  30H    basis set group =>   2
Atom  31H    basis set group =>   2
Atom  32C    basis set group =>   1
Atom  33H    basis set group =>   2
Atom  34C    basis set group =>   1
Atom  35H    basis set group =>   2
Atom  36C    basis set group =>   1
Atom  37H    basis set group =>   2
Atom  38H    basis set group =>   2
Atom  39C    basis set group =>   1
Atom  40H    basis set group =>   2
Atom  41H    basis set group =>   2
Atom  42H    basis set group =>   2
Atom  43C    basis set group =>   1
Atom  44C    basis set group =>   1
Atom  45H    basis set group =>   2
Atom  46H    basis set group =>   2
Atom  47H    basis set group =>   2
Atom  48H    basis set group =>   2
Atom  49C    basis set group =>   1
Atom  50C    basis set group =>   1
Atom  51C    basis set group =>   1
Atom  52H    basis set group =>   2
Atom  53H    basis set group =>   2
Atom  54C    basis set group =>   1
Atom  55C    basis set group =>   1
Atom  56C    basis set group =>   1
Atom  57H    basis set group =>   2
Atom  58H    basis set group =>   2
Atom  59C    basis set group =>   1
Atom  60C    basis set group =>   1
Atom  61H    basis set group =>   2
Atom  62H    basis set group =>   2
Atom  63H    basis set group =>   2
Atom  64H    basis set group =>   2
Atom  65H    basis set group =>   2
Atom  66H    basis set group =>   2
Atom  67H    basis set group =>   2
Atom  68H    basis set group =>   2
Atom  69H    basis set group =>   2
Atom  70H    basis set group =>   2
Atom  71H    basis set group =>   2
Atom  72H    basis set group =>   2

-------------------------
BASIS SET IN INPUT FORMAT
-------------------------

 # Basis set for element : H 
 NewGTO H 
 S 3 
   1    1357.7500000000      0.0012928364
   2      54.3100000000      0.0588280685
   3       4.3448000000      0.9761499708
 S 1 
   1       0.6604910000      1.0000000000
 S 1 
   1       0.1366870000      1.0000000000
  end;

 # Basis set for element : C 
 NewGTO C 
 S 4 
   1  139534.0000000000      0.0001655246
   2    5581.3600000000      0.0074486101
   3     446.5090000000      0.1285821065
   4      67.4620000000      0.9218029311
 S 1 
   1      15.0674000000      1.0000000000
 S 1 
   1       3.9387600000      1.0000000000
 S 1 
   1       0.2999150000      1.0000000000
 P 2 
   1      28.3900000000      0.0816325586
   2       4.3676900000      0.9660360576
 P 1 
   1       0.8698170000      1.0000000000
 P 1 
   1       0.1889340000      1.0000000000
  end;

 # Basis set for element : O 
 NewGTO O 
 S 4 
   1  253789.0000000000      0.0001641076
   2   10151.6000000000      0.0074010921
   3     812.1250000000      0.1277711901
   4     122.6930000000      0.9223372164
 S 1 
   1      27.5608000000      1.0000000000
 S 1 
   1       7.3172600000      1.0000000000
 S 1 
   1       0.5792400000      1.0000000000
 P 2 
   1      53.4157000000      0.0793786106
   2       8.2177900000      0.9670506337
 P 1 
   1       1.6754400000      1.0000000000
 P 1 
   1       0.3506720000      1.0000000000
  end;

---------------------------------
AUXILIARY/J BASIS SET INFORMATION
---------------------------------
There are 3 groups of distinct atoms

 Group   1 Type C   : 12s5p4d2f1g contracted to 6s4p3d1f1g pattern {711111/2111/211/2/1}
 Group   2 Type H   : 5s2p1d contracted to 3s1p1d pattern {311/2/1}
 Group   3 Type O   : 12s5p4d2f1g contracted to 6s4p3d1f1g pattern {711111/2111/211/2/1}

Atom   0C    basis set group =>   1
Atom   1C    basis set group =>   1
Atom   2C    basis set group =>   1
Atom   3H    basis set group =>   2
Atom   4H    basis set group =>   2
Atom   5C    basis set group =>   1
Atom   6C    basis set group =>   1
Atom   7C    basis set group =>   1
Atom   8H    basis set group =>   2
Atom   9H    basis set group =>   2
Atom  10H    basis set group =>   2
Atom  11H    basis set group =>   2
Atom  12O    basis set group =>   3
Atom  13H    basis set group =>   2
Atom  14C    basis set group =>   1
Atom  15C    basis set group =>   1
Atom  16H    basis set group =>   2
Atom  17H    basis set group =>   2
Atom  18C    basis set group =>   1
Atom  19H    basis set group =>   2
Atom  20C    basis set group =>   1
Atom  21H    basis set group =>   2
Atom  22C    basis set group =>   1
Atom  23C    basis set group =>   1
Atom  24H    basis set group =>   2
Atom  25H    basis set group =>   2
Atom  26C    basis set group =>   1
Atom  27H    basis set group =>   2
Atom  28H    basis set group =>   2
Atom  29C    basis set group =>   1
Atom  30H    basis set group =>   2
Atom  31H    basis set group =>   2
Atom  32C    basis set group =>   1
Atom  33H    basis set group =>   2
Atom  34C    basis set group =>   1
Atom  35H    basis set group =>   2
Atom  36C    basis set group =>   1
Atom  37H    basis set group =>   2
Atom  38H    basis set group =>   2
Atom  39C    basis set group =>   1
Atom  40H    basis set group =>   2
Atom  41H    basis set group =>   2
Atom  42H    basis set group =>   2
Atom  43C    basis set group =>   1
Atom  44C    basis set group =>   1
Atom  45H    basis set group =>   2
Atom  46H    basis set group =>   2
Atom  47H    basis set group =>   2
Atom  48H    basis set group =>   2
Atom  49C    basis set group =>   1
Atom  50C    basis set group =>   1
Atom  51C    basis set group =>   1
Atom  52H    basis set group =>   2
Atom  53H    basis set group =>   2
Atom  54C    basis set group =>   1
Atom  55C    basis set group =>   1
Atom  56C    basis set group =>   1
Atom  57H    basis set group =>   2
Atom  58H    basis set group =>   2
Atom  59C    basis set group =>   1
Atom  60C    basis set group =>   1
Atom  61H    basis set group =>   2
Atom  62H    basis set group =>   2
Atom  63H    basis set group =>   2
Atom  64H    basis set group =>   2
Atom  65H    basis set group =>   2
Atom  66H    basis set group =>   2
Atom  67H    basis set group =>   2
Atom  68H    basis set group =>   2
Atom  69H    basis set group =>   2
Atom  70H    basis set group =>   2
Atom  71H    basis set group =>   2
Atom  72H    basis set group =>   2

-------------------------------------
AUXILIARY/J BASIS SET IN INPUT FORMAT
-------------------------------------

 # Auxiliary/J basis set for element : H 
 NewAuxJGTO H 
 S 3 
   1      15.6752927000      0.1007184237
   2       3.6063578000      0.3404257499
   3       1.2080016000      0.6491996172
 S 1 
   1       0.4726794000      1.0000000000
 S 1 
   1       0.2018100000      1.0000000000
 P 2 
   1       2.0281365000      0.5596620919
   2       0.5358730000      0.5596620919
 D 1 
   1       2.2165124000      1.0000000000
  end;

 # Auxiliary/J basis set for element : C 
 NewAuxJGTO C 
 S 7 
   1    1861.0916331000      0.0134602335
   2     642.9939764000      0.0299160374
   3     235.1105725000      0.1008649584
   4      90.7028894000      0.2370970548
   5      36.7794552000      0.3924037254
   6      15.6046273000      0.3195862154
   7       6.8907294000      0.0530104441
 S 1 
   1       3.1478850000     -1.0000000000
 S 1 
   1       1.4777287000      1.0000000000
 S 1 
   1       0.7076466000      1.0000000000
 S 1 
   1       0.3430122000      1.0000000000
 S 1 
   1       0.1669453000      1.0000000000
 P 2 
   1      13.5472892000     -0.6769313712
   2       5.4669419000     -0.3779500978
 P 1 
   1       2.1751721000      1.0000000000
 P 1 
   1       0.8582194000      1.0000000000
 P 1 
   1       0.3376720000      1.0000000000
 D 2 
   1       5.9287253000     -0.3533329857
   2       1.9809209000     -0.7456525731
 D 1 
   1       0.8055417000     -1.0000000000
 D 1 
   1       0.3531244000     -1.0000000000
 F 2 
   1       1.6755626000      0.6311076882
   2       0.5997536000      0.4968166032
 G 1 
   1       1.0024600000     -1.0000000000
  end;

 # Auxiliary/J basis set for element : O 
 NewAuxJGTO O 
 S 7 
   1    2876.8216605000      0.0168151159
   2    1004.7443032000      0.0340137548
   3     369.7579954000      0.1194951309
   4     142.9442404000      0.2664627624
   5      57.8366425000      0.4202764046
   6      24.3864983000      0.2765077335
   7      10.6622662000      0.0057008815
 S 1 
   1       4.8070437000     -1.0000000000
 S 1 
   1       2.2210770000      1.0000000000
 S 1 
   1       1.0447795000      1.0000000000
 S 1 
   1       0.4968425000      1.0000000000
 S 1 
   1       0.2371384000      1.0000000000
 P 2 
   1      64.2613382000     -0.2731534179
   2      16.3006076000     -0.8168011598
 P 1 
   1       4.3550542000      1.0000000000
 P 1 
   1       1.2019554000      1.0000000000
 P 1 
   1       0.3354196000      1.0000000000
 D 2 
   1       9.2146611000     -0.4661230638
   2       2.8435251000     -0.6600908911
 D 1 
   1       0.9955759000     -1.0000000000
 D 1 
   1       0.3649441000     -1.0000000000
 F 2 
   1       2.6420115000      0.5931563945
   2       0.7345613000      0.5931563945
 G 1 
   1       1.3931000000     -1.0000000000
  end;



           ************************************************************
           *        Program running with 4 parallel MPI-processes     *
           *              working on a common directory               *
           ************************************************************
------------------------------------------------------------------------------
                           ORCA GTO INTEGRAL CALCULATION
                           -- RI-GTO INTEGRALS CHOSEN --
------------------------------------------------------------------------------
------------------------------------------------------------------------------
                   ___                                                        
                  /   \      - P O W E R E D   B Y -                         
                 /     \                                                     
                 |  |  |   _    _      __       _____    __    __             
                 |  |  |  | |  | |    /  \     |  _  \  |  |  /  |          
                  \  \/   | |  | |   /    \    | | | |  |  | /  /          
                 / \  \   | |__| |  /  /\  \   | |_| |  |  |/  /          
                |  |  |   |  __  | /  /__\  \  |    /   |      \           
                |  |  |   | |  | | |   __   |  |    \   |  |\   \          
                \     /   | |  | | |  |  |  |  | |\  \  |  | \   \       
                 \___/    |_|  |_| |__|  |__|  |_| \__\ |__|  \__/        
                                                                              
                      - O R C A' S   B I G   F R I E N D -                    
                                      &                                       
                       - I N T E G R A L  F E E D E R -                       
                                                                              
 v1 FN, 2020, v2 2021                                                         
------------------------------------------------------------------------------


Reading SHARK input file inpJ.SHARKINP.tmp ... ok
----------------------
SHARK INTEGRAL PACKAGE
----------------------

Number of atoms                             ...     73
Number of basis functions                   ...    509
Number of shells                            ...    335
Maximum angular momentum                    ...      1
Integral batch strategy                     ... SHARK/LIBINT Hybrid
RI-J (if used) integral strategy            ... SPLIT-RIJ (Revised 2003 algorithm where possible)
Printlevel                                  ...      1
Contraction scheme used                     ... SEGMENTED contraction
Coulomb Range Separation                    ... NOT USED
Exchange Range Separation                   ... NOT USED
Finite Nucleus Model                        ... NOT USED
Auxiliary Coulomb fitting basis             ... AVAILABLE
   # of basis functions in Aux-J            ...   1905
   # of shells in Aux-J                     ...    655
   Maximum angular momentum in Aux-J        ...      4
Auxiliary J/K fitting basis                 ... NOT available
Auxiliary Correlation fitting basis         ... NOT available
Auxiliary 'external' fitting basis          ... NOT available
Integral threshold                          ...     3.000000e-11
Primitive cut-off                           ...     1.000000e-12
Primitive pair pre-selection threshold      ...     1.000000e-12

Calculating pre-screening integrals         ... done (  0.0 sec) Dimension = 335
Organizing shell pair data                  ... done (  0.1 sec)
Shell pair information
Total number of shell pairs                 ...     56280
Shell pairs after pre-screening             ...     21563
Total number of primitive shell pairs       ...    145865
Primitive shell pairs kept                  ...     37093
          la=0 lb=0:  10858 shell pairs
          la=1 lb=0:   8862 shell pairs
          la=1 lb=1:   1843 shell pairs

Calculating one electron integrals          ... done (  0.0 sec)
Calculating RI/J V-Matrix + Cholesky decomp.... done (  0.1 sec)
Calculating Nuclear repulsion               ... done (  0.0 sec) ENN=   2754.793884342545 Eh

SHARK setup successfully completed in   0.3 seconds

Maximum memory used throughout the entire GTOINT-calculation: 46.1 MB


           ************************************************************
           *        Program running with 4 parallel MPI-processes     *
           *              working on a common directory               *
           ************************************************************
-------------------------------------------------------------------------------
                                 ORCA SCF
-------------------------------------------------------------------------------

------------
SCF SETTINGS
------------
Hamiltonian:
 Density Functional     Method          .... DFT(GTOs)
 Exchange Functional    Exchange        .... PBE
   PBE kappa parameter   XKappa         ....  0.804000
   PBE mue parameter    XMuePBE         ....  0.219520
 Correlation Functional Correlation     .... PBE
   PBE beta parameter  CBetaPBE         ....  0.066725
 LDA part of GGA corr.  LDAOpt          .... PW91-LDA
 Gradients option       PostSCFGGA      .... off
 Hybrid DFT is turned on
   Fraction HF Exchange ScalHFX         ....  0.250000
   Scaling of DF-GGA-X  ScalDFX         ....  0.750000
   Scaling of DF-GGA-C  ScalDFC         ....  1.000000
   Scaling of DF-LDA-C  ScalLDAC        ....  1.000000
   Perturbative correction              ....  0.000000
   Density functional embedding theory  .... OFF
   NL short-range parameter             ....  6.900000
 RI-approximation to the Coulomb term is turned on
   Number of AuxJ basis functions       .... 1905
   RIJ-COSX (HFX calculated with COS-X)).... on


General Settings:
 Integral files         IntName         .... inpJ
 Hartree-Fock type      HFTyp           .... RHF
 Total Charge           Charge          ....    0
 Multiplicity           Mult            ....    1
 Number of Electrons    NEL             ....  220
 Basis Dimension        Dim             ....  509
 Nuclear Repulsion      ENuc            ....   2754.7938843425 Eh

Convergence Acceleration:
 DIIS                   CNVDIIS         .... on
   Start iteration      DIISMaxIt       ....    12
   Startup error        DIISStart       ....  0.200000
   # of expansion vecs  DIISMaxEq       ....     5
   Bias factor          DIISBfac        ....   1.050
   Max. coefficient     DIISMaxC        ....  10.000
 Trust-Rad. Augm. Hess. CNVTRAH         .... auto
   Auto Start mean grad. ratio tolernc. ....  1.125000
   Auto Start start iteration           ....    20
   Auto Start num. interpolation iter.  ....    10
   Max. Number of Micro iterations      ....    16
   Max. Number of Macro iterations      .... Maxiter - #DIIS iter
   Number of Davidson start vectors     ....     2
   Converg. threshold I  (grad. norm)   ....   1.000e-04
   Converg. threshold II (energy diff.) ....   1.000e-07
   Grad. Scal. Fac. for Micro threshold ....   0.100
   Minimum threshold for Micro iter.    ....   0.010
   NR start threshold (gradient norm)   ....   0.001
   Initial trust radius                 ....   0.400
   Minimum AH scaling param. (alpha)    ....   1.000
   Maximum AH scaling param. (alpha)    .... 1000.000
   Orbital update algorithm             .... Taylor
   White noise on init. David. guess    .... on
   Maximum white noise                  ....   0.010
   Quad. conv. algorithm                .... NR
 SOSCF                  CNVSOSCF        .... off
 Level Shifting         CNVShift        .... on
   Level shift para.    LevelShift      ....    0.2500
   Turn off err/grad.   ShiftErr        ....    0.0010
 Zerner damping         CNVZerner       .... off
 Static damping         CNVDamp         .... on
   Fraction old density DampFac         ....    0.7000
   Max. Damping (<1)    DampMax         ....    0.9800
   Min. Damping (>=0)   DampMin         ....    0.0000
   Turn off err/grad.   DampErr         ....    0.1000
 Fernandez-Rico         CNVRico         .... off

SCF Procedure:
 Maximum # iterations   MaxIter         ....   125
 SCF integral mode      SCFMode         .... Direct
   Integral package                     .... SHARK and LIBINT hybrid scheme
 Reset frequency        DirectResetFreq ....    20
 Integral Threshold     Thresh          ....  3.000e-11 Eh
 Primitive CutOff       TCut            ....  1.000e-12 Eh

Convergence Tolerance:
 Convergence Check Mode ConvCheckMode   .... Total+1el-Energy
 Convergence forced     ConvForced      .... 0
 Energy Change          TolE            ....  1.000e-07 Eh
 1-El. energy change                    ....  1.000e-04 Eh
 DIIS Error             TolErr          ....  1.000e-07


Diagonalization of the overlap matrix:
Smallest eigenvalue                        ... 7.577e-03
Time for diagonalization                   ...    0.030 sec
Threshold for overlap eigenvalues          ... 1.000e-08
Number of eigenvalues below threshold      ... 0
Time for construction of square roots      ...    0.020 sec
Total time needed                          ...    0.052 sec

Time for model grid setup =    0.711 sec

------------------------------
INITIAL GUESS: MODEL POTENTIAL
------------------------------
Loading Hartree-Fock densities                     ... done
Calculating cut-offs                               ... done
Initializing the effective Hamiltonian             ... done
Setting up the integral package (SHARK)            ... done
Starting the Coulomb interaction                   ... done (   0.4 sec)
Reading the grid                                   ... done
Mapping shells                                     ... done
Starting the XC term evaluation                    ... done (   0.1 sec)
  promolecular density results
     # of electrons  =    219.981757379
     EX              =   -164.435154618
     EC              =     -7.326758489
     EX+EC           =   -171.761913107
Transforming the Hamiltonian                       ... done (   0.0 sec)
Diagonalizing the Hamiltonian                      ... done (   0.0 sec)
Back transforming the eigenvectors                 ... done (   0.0 sec)
Now organizing SCF variables                       ... done
                      ------------------
                      INITIAL GUESS DONE (   1.3 sec)
                      ------------------
-------------------
DFT GRID GENERATION
-------------------

General Integration Accuracy     IntAcc      ... 4.388
Radial Grid Type                 RadialGrid  ... OptM3 with GC (2021)
Angular Grid (max. ang.)         AngularGrid ... 4 (Lebedev-302)
Angular grid pruning method      GridPruning ... 4 (adaptive)
Weight generation scheme         WeightScheme... Becke
Basis function cutoff            BFCut       ... 1.0000e-11
Integration weight cutoff        WCut        ... 1.0000e-14
Angular grids for H and He will be reduced by one unit
Partially contracted basis set               ... off
Rotationally invariant grid construction     ... off

Total number of grid points                  ...   309947
Total number of batches                      ...     4880
Average number of points per batch           ...       63
Average number of grid points per atom       ...     4246
Time for grid setup =    2.783 sec

--------------------
COSX GRID GENERATION
--------------------

GRIDX 1
-------
General Integration Accuracy     IntAcc      ... 3.816
Radial Grid Type                 RadialGrid  ... OptM3 with GC (2021)
Angular Grid (max. ang.)         AngularGrid ... 1 (Lebedev-50)
Angular grid pruning method      GridPruning ... 4 (adaptive)
Weight generation scheme         WeightScheme... Becke
Basis function cutoff            BFCut       ... 1.0000e-11
Integration weight cutoff        WCut        ... 1.0000e-14
Angular grids for H and He will be reduced by one unit
Partially contracted basis set               ... on
Rotationally invariant grid construction     ... off

Total number of grid points                  ...    39435
Total number of batches                      ...      656
Average number of points per batch           ...       60
Average number of grid points per atom       ...      540
UseSFitting                                  ... on

GRIDX 2
-------
General Integration Accuracy     IntAcc      ... 4.020
Radial Grid Type                 RadialGrid  ... OptM3 with GC (2021)
Angular Grid (max. ang.)         AngularGrid ... 2 (Lebedev-110)
Angular grid pruning method      GridPruning ... 4 (adaptive)
Weight generation scheme         WeightScheme... Becke
Basis function cutoff            BFCut       ... 1.0000e-11
Integration weight cutoff        WCut        ... 1.0000e-14
Angular grids for H and He will be reduced by one unit
Partially contracted basis set               ... on
Rotationally invariant grid construction     ... off

Total number of grid points                  ...    81436
Total number of batches                      ...     1310
Average number of points per batch           ...       62
Average number of grid points per atom       ...     1116
UseSFitting                                  ... on

GRIDX 3
-------
General Integration Accuracy     IntAcc      ... 4.338
Radial Grid Type                 RadialGrid  ... OptM3 with GC (2021)
Angular Grid (max. ang.)         AngularGrid ... 3 (Lebedev-194)
Angular grid pruning method      GridPruning ... 4 (adaptive)
Weight generation scheme         WeightScheme... Becke
Basis function cutoff            BFCut       ... 1.0000e-11
Integration weight cutoff        WCut        ... 1.0000e-14
Angular grids for H and He will be reduced by one unit
Partially contracted basis set               ... on
Rotationally invariant grid construction     ... off

Total number of grid points                  ...   176476
Total number of batches                      ...     2795
Average number of points per batch           ...       63
Average number of grid points per atom       ...     2417
UseSFitting                                  ... on

Time for X-Grid setup             =    2.688 sec


--------------------
CPCM SOLVATION MODEL
--------------------
CPCM parameters:
  Epsilon                                         ...       4.9000
  Refrac                                          ...       1.4500
  Rsolv                                           ...       1.3000
  Surface type                                    ... GAUSSIAN VDW
  Epsilon function type                           ...         CPCM
Radii:
 Radius for C  used is    3.8550 Bohr (=   2.0400 Ang.)
 Radius for H  used is    2.4944 Bohr (=   1.3200 Ang.)
 Radius for O  used is    3.4469 Bohr (=   1.8240 Ang.)
Calculating surface                               ...        done! (  0.0s)
GEPOL surface points                              ...         3637
GEPOL Volume                                      ...    3578.2968
GEPOL Surface-area                                ...    1780.8669
Calculating surface distance matrix               ...        done! (  0.1s)
Performing Cholesky decomposition & store         ...        done! (  0.5s)
Overall time for CPCM initialization              ...                 0.6s
--------------
SCF ITERATIONS
--------------
ITER       Energy         Delta-E        Max-DP      RMS-DP      [F,P]     Damp
               ***  Starting incremental Fock matrix formation  ***

  HOMO= 109 E= -3.888 eV LUMO=  7.784 eV gap=  11.672 eV
  0  -1165.0073696612   0.000000000000 0.09732898  0.00106476  0.1932626 0.7000

  HOMO= 109 E= -4.738 eV LUMO=  7.089 eV gap=  11.827 eV
  1  -1165.2265399906  -0.219170329470 0.06530140  0.00078362  0.0939723 0.7000
                               ***Turning on DIIS***

  HOMO= 109 E= -5.337 eV LUMO=  6.532 eV gap=  11.869 eV
  2  -1165.3276338219  -0.101093831245 0.10333656  0.00138820  0.0376637 0.0000

  HOMO= 109 E= -5.903 eV LUMO=  5.990 eV gap=  11.893 eV
  3  -1165.4720948169  -0.144460995000 0.05142354  0.00057119  0.0452128 0.0000

  HOMO= 109 E= -5.984 eV LUMO=  5.909 eV gap=  11.893 eV
  4  -1165.5077766782  -0.035681861335 0.01170561  0.00013394  0.0062297 0.0000

  HOMO= 109 E= -5.930 eV LUMO=  5.971 eV gap=  11.900 eV
  5  -1165.5086421421  -0.000865463890 0.00286551  0.00003823  0.0044055 0.0000

  HOMO= 109 E= -5.916 eV LUMO=  5.984 eV gap=  11.901 eV
  6  -1165.5087178959  -0.000075753754 0.00117161  0.00001158  0.0010748 0.0000

  HOMO= 109 E= -5.918 eV LUMO= -0.820 eV gap=   5.098 eV
  7  -1165.5087228640  -0.000004968167 0.00050566  0.00000593  0.0002309 0.0000
               *** Restarting incremental Fock matrix formation ***
                                   *** Resetting DIIS ***

  HOMO= 109 E= -5.917 eV LUMO= -0.819 eV gap=   5.098 eV
  8  -1165.5088101911  -0.000087327127 0.00037887  0.00000275  0.0001097 0.0000

  HOMO= 109 E= -5.917 eV LUMO= -0.819 eV gap=   5.099 eV
  9  -1165.5088102262  -0.000000035068 0.00013296  0.00000125  0.0001493 0.0000

  HOMO= 109 E= -5.918 eV LUMO= -0.819 eV gap=   5.099 eV
 10  -1165.5088103310  -0.000000104766 0.00006139  0.00000038  0.0000360 0.0000

  HOMO= 109 E= -5.918 eV LUMO= -0.819 eV gap=   5.099 eV
 11  -1165.5088103617  -0.000000030741 0.00002418  0.00000017  0.0000202 0.0000

  HOMO= 109 E= -5.918 eV LUMO= -0.819 eV gap=   5.099 eV
 12  -1165.5088103476   0.000000014142 0.00000669  0.00000005  0.0000033 0.0000
                 **** Energy Check signals convergence ****

               *****************************************************
               *                     SUCCESS                       *
               *           SCF CONVERGED AFTER  13 CYCLES          *
               *****************************************************

Old exchange energy                            =    -42.068065253 Eh
New exchange energy                            =    -42.068041762 Eh
Exchange energy change after final integration =      0.000023491 Eh
Total energy after final integration           =  -1165.508786865 Eh
Final COS-X integration done in                =    13.033 sec

----------------
TOTAL SCF ENERGY
----------------

Total Energy       :        -1165.50878687 Eh          -31715.10646 eV

Components:
Nuclear Repulsion  :         2754.79388434 Eh           74961.75257 eV
Electronic Energy  :        -3920.30267121 Eh         -106676.85903 eV
One Electron Energy:        -7051.63081805 Eh         -191884.62979 eV
Two Electron Energy:         3131.32814684 Eh           85207.77075 eV
Max COSX asymmetry :            0.00000189 Eh               0.00005 eV
CPCM Dielectric    :           -0.01540112 Eh              -0.41909 eV

Virial components:
Potential Energy   :        -2322.40828238 Eh          -63195.94218 eV
Kinetic Energy     :         1156.89949552 Eh           31480.83573 eV
Virial Ratio       :            2.00744169


DFT components:
N(Alpha)           :      110.000103363152 electrons
N(Beta)            :      110.000103363152 electrons
N(Total)           :      220.000206726303 electrons
E(X)               :     -125.746907821217 Eh       
E(C)               :       -7.327619597278 Eh       
E(XC)              :     -133.074527418495 Eh       
DFET-embed. en.    :        0.000000000000 Eh       
CPCM Solvation Model Properties:
Surface-charge          :           -0.03433955
Charge-correction       :           -0.00005733 Eh              -0.00156 eV
Free-energy (cav+disp)  :  This term is not implemented in the current solvation scheme

---------------
SCF CONVERGENCE
---------------

  Last Energy change         ...   -8.8448e-09  Tolerance :   1.0000e-07
  Last MAX-Density change    ...    0.0000e+00  Tolerance :   1.0000e-05
  Last RMS-Density change    ...    0.0000e+00  Tolerance :   1.0000e-06
  Last DIIS Error            ...    2.4060e-06  Tolerance :   1.0000e-07

             **** THE GBW FILE WAS UPDATED (inpJ.gbw) ****
             **** DENSITY inpJ.scfp WAS UPDATED ****
             **** ENERGY FILE WAS UPDATED (inpJ.en.tmp) ****
             **** THE GBW FILE WAS UPDATED (inpJ.gbw) ****
             **** DENSITY inpJ.scfp WAS UPDATED ****
----------------
ORBITAL ENERGIES
----------------

  NO   OCC          E(Eh)            E(eV) 
   0   2.0000     -19.215145      -522.8707 
   1   2.0000     -10.301333      -280.3135 
   2   2.0000     -10.269473      -279.4466 
   3   2.0000     -10.266716      -279.3715 
   4   2.0000     -10.261787      -279.2374 
   5   2.0000     -10.256441      -279.0920 
   6   2.0000     -10.253350      -279.0078 
   7   2.0000     -10.251492      -278.9573 
   8   2.0000     -10.250606      -278.9332 
   9   2.0000     -10.249204      -278.8950 
  10   2.0000     -10.248946      -278.8880 
  11   2.0000     -10.246177      -278.8126 
  12   2.0000     -10.246051      -278.8092 
  13   2.0000     -10.245561      -278.7959 
  14   2.0000     -10.243818      -278.7484 
  15   2.0000     -10.243153      -278.7304 
  16   2.0000     -10.241750      -278.6922 
  17   2.0000     -10.241616      -278.6885 
  18   2.0000     -10.241073      -278.6738 
  19   2.0000     -10.240798      -278.6663 
  20   2.0000     -10.238943      -278.6158 
  21   2.0000     -10.235158      -278.5128 
  22   2.0000     -10.234671      -278.4996 
  23   2.0000     -10.233412      -278.4653 
  24   2.0000     -10.224936      -278.2347 
  25   2.0000     -10.224835      -278.2319 
  26   2.0000     -10.223907      -278.2067 
  27   2.0000     -10.221940      -278.1531 
  28   2.0000     -10.220559      -278.1155 
  29   2.0000      -1.045797       -28.4576 
  30   2.0000      -0.900941       -24.5158 
  31   2.0000      -0.883597       -24.0439 
  32   2.0000      -0.859531       -23.3890 
  33   2.0000      -0.845663       -23.0117 
  34   2.0000      -0.821877       -22.3644 
  35   2.0000      -0.814008       -22.1503 
  36   2.0000      -0.794884       -21.6299 
  37   2.0000      -0.794747       -21.6262 
  38   2.0000      -0.775800       -21.1106 
  39   2.0000      -0.757747       -20.6194 
  40   2.0000      -0.740462       -20.1490 
  41   2.0000      -0.730213       -19.8701 
  42   2.0000      -0.714038       -19.4300 
  43   2.0000      -0.702803       -19.1243 
  44   2.0000      -0.699107       -19.0237 
  45   2.0000      -0.693970       -18.8839 
  46   2.0000      -0.669419       -18.2158 
  47   2.0000      -0.665137       -18.0993 
  48   2.0000      -0.636106       -17.3093 
  49   2.0000      -0.621953       -16.9242 
  50   2.0000      -0.619430       -16.8555 
  51   2.0000      -0.609418       -16.5831 
  52   2.0000      -0.597492       -16.2586 
  53   2.0000      -0.582440       -15.8490 
  54   2.0000      -0.557290       -15.1646 
  55   2.0000      -0.541226       -14.7275 
  56   2.0000      -0.531547       -14.4641 
  57   2.0000      -0.529107       -14.3977 
  58   2.0000      -0.515079       -14.0160 
  59   2.0000      -0.508994       -13.8504 
  60   2.0000      -0.500740       -13.6258 
  61   2.0000      -0.492049       -13.3893 
  62   2.0000      -0.482250       -13.1227 
  63   2.0000      -0.479957       -13.0603 
  64   2.0000      -0.475874       -12.9492 
  65   2.0000      -0.468334       -12.7440 
  66   2.0000      -0.466438       -12.6924 
  67   2.0000      -0.458658       -12.4807 
  68   2.0000      -0.457029       -12.4364 
  69   2.0000      -0.452002       -12.2996 
  70   2.0000      -0.449323       -12.2267 
  71   2.0000      -0.443159       -12.0590 
  72   2.0000      -0.436456       -11.8766 
  73   2.0000      -0.431156       -11.7324 
  74   2.0000      -0.429838       -11.6965 
  75   2.0000      -0.427254       -11.6262 
  76   2.0000      -0.416523       -11.3342 
  77   2.0000      -0.413574       -11.2539 
  78   2.0000      -0.408963       -11.1284 
  79   2.0000      -0.403773       -10.9872 
  80   2.0000      -0.401122       -10.9151 
  81   2.0000      -0.397390       -10.8135 
  82   2.0000      -0.395466       -10.7612 
  83   2.0000      -0.388883       -10.5820 
  84   2.0000      -0.385826       -10.4988 
  85   2.0000      -0.379269       -10.3204 
  86   2.0000      -0.372351       -10.1322 
  87   2.0000      -0.369184       -10.0460 
  88   2.0000      -0.367973       -10.0130 
  89   2.0000      -0.367130        -9.9901 
  90   2.0000      -0.362472        -9.8634 
  91   2.0000      -0.358804        -9.7636 
  92   2.0000      -0.352751        -9.5988 
  93   2.0000      -0.344226        -9.3669 
  94   2.0000      -0.341136        -9.2828 
  95   2.0000      -0.340086        -9.2542 
  96   2.0000      -0.337161        -9.1746 
  97   2.0000      -0.333330        -9.0704 
  98   2.0000      -0.332024        -9.0348 
  99   2.0000      -0.326620        -8.8878 
 100   2.0000      -0.326087        -8.8733 
 101   2.0000      -0.324063        -8.8182 
 102   2.0000      -0.319136        -8.6841 
 103   2.0000      -0.316029        -8.5996 
 104   2.0000      -0.311697        -8.4817 
 105   2.0000      -0.300308        -8.1718 
 106   2.0000      -0.280092        -7.6217 
 107   2.0000      -0.274801        -7.4777 
 108   2.0000      -0.254557        -6.9268 
 109   2.0000      -0.217465        -5.9175 
 110   0.0000      -0.030092        -0.8188 
 111   0.0000       0.021357         0.5812 
 112   0.0000       0.030497         0.8299 
 113   0.0000       0.082605         2.2478 
 114   0.0000       0.094333         2.5669 
 115   0.0000       0.101816         2.7706 
 116   0.0000       0.102281         2.7832 
 117   0.0000       0.106106         2.8873 
 118   0.0000       0.108536         2.9534 
 119   0.0000       0.113925         3.1001 
 120   0.0000       0.118663         3.2290 
 121   0.0000       0.121501         3.3062 
 122   0.0000       0.125985         3.4282 
 123   0.0000       0.127255         3.4628 
 124   0.0000       0.132927         3.6171 
 125   0.0000       0.139247         3.7891 
 126   0.0000       0.141034         3.8377 
 127   0.0000       0.141560         3.8521 
 128   0.0000       0.143949         3.9170 
 129   0.0000       0.151569         4.1244 
 130   0.0000       0.151824         4.1313 
 131   0.0000       0.156940         4.2705 
 132   0.0000       0.160661         4.3718 
 133   0.0000       0.163171         4.4401 
 134   0.0000       0.165396         4.5007 
 135   0.0000       0.168161         4.5759 
 136   0.0000       0.169601         4.6151 
 137   0.0000       0.173145         4.7115 
 138   0.0000       0.177803         4.8383 
 139   0.0000       0.180262         4.9052 
 140   0.0000       0.182525         4.9667 
 141   0.0000       0.185475         5.0470 
 142   0.0000       0.189860         5.1664 
 143   0.0000       0.190635         5.1874 
 144   0.0000       0.194762         5.2997 
 145   0.0000       0.196454         5.3458 
 146   0.0000       0.200612         5.4589 
 147   0.0000       0.202467         5.5094 
 148   0.0000       0.203654         5.5417 
 149   0.0000       0.212324         5.7776 
 150   0.0000       0.214846         5.8463 
 151   0.0000       0.220386         5.9970 
 152   0.0000       0.222430         6.0526 
 153   0.0000       0.229273         6.2388 
 154   0.0000       0.231870         6.3095 
 155   0.0000       0.236235         6.4283 
 156   0.0000       0.242194         6.5904 
 157   0.0000       0.244706         6.6588 
 158   0.0000       0.247097         6.7238 
 159   0.0000       0.251491         6.8434 
 160   0.0000       0.256844         6.9891 
 161   0.0000       0.257278         7.0009 
 162   0.0000       0.262966         7.1557 
 163   0.0000       0.267847         7.2885 
 164   0.0000       0.269959         7.3460 
 165   0.0000       0.274077         7.4580 
 166   0.0000       0.278058         7.5663 
 167   0.0000       0.282963         7.6998 
 168   0.0000       0.284801         7.7498 
 169   0.0000       0.293979         7.9996 
 170   0.0000       0.295099         8.0301 
 171   0.0000       0.297580         8.0976 
 172   0.0000       0.304336         8.2814 
 173   0.0000       0.307939         8.3794 
 174   0.0000       0.310229         8.4418 
 175   0.0000       0.319781         8.7017 
 176   0.0000       0.327554         8.9132 
 177   0.0000       0.336666         9.1611 
 178   0.0000       0.353357         9.6153 
 179   0.0000       0.357439         9.7264 
 180   0.0000       0.366874         9.9831 
 181   0.0000       0.379458        10.3256 
 182   0.0000       0.381455        10.3799 
 183   0.0000       0.411755        11.2044 
 184   0.0000       0.420837        11.4515 
 185   0.0000       0.463408        12.6100 
 186   0.0000       0.482519        13.1300 
 187   0.0000       0.493111        13.4182 
 188   0.0000       0.503617        13.7041 
 189   0.0000       0.521295        14.1852 
 190   0.0000       0.524354        14.2684 
 191   0.0000       0.526053        14.3146 
 192   0.0000       0.543061        14.7774 
 193   0.0000       0.546283        14.8651 
 194   0.0000       0.559777        15.2323 
 195   0.0000       0.572037        15.5659 
 196   0.0000       0.578093        15.7307 
 197   0.0000       0.583284        15.8720 
 198   0.0000       0.588913        16.0251 
 199   0.0000       0.599283        16.3073 
 200   0.0000       0.612696        16.6723 
 201   0.0000       0.625006        17.0073 
 202   0.0000       0.626591        17.0504 
 203   0.0000       0.641088        17.4449 
 204   0.0000       0.648600        17.6493 
 205   0.0000       0.650255        17.6944 
 206   0.0000       0.658866        17.9286 
 207   0.0000       0.662043        18.0151 
 208   0.0000       0.666323        18.1316 
 209   0.0000       0.672790        18.3075 
 210   0.0000       0.676539        18.4096 
 211   0.0000       0.691906        18.8277 
 212   0.0000       0.693137        18.8612 
 213   0.0000       0.699744        19.0410 
 214   0.0000       0.707260        19.2455 
 215   0.0000       0.711639        19.3647 
 216   0.0000       0.716546        19.4982 
 217   0.0000       0.723619        19.6907 
 218   0.0000       0.724976        19.7276 
 219   0.0000       0.726934        19.7809 
 220   0.0000       0.730824        19.8867 
 221   0.0000       0.734901        19.9977 
 222   0.0000       0.739816        20.1314 
 223   0.0000       0.745909        20.2972 
 224   0.0000       0.748402        20.3651 
 225   0.0000       0.751182        20.4407 
 226   0.0000       0.756434        20.5836 
 227   0.0000       0.760131        20.6842 
 228   0.0000       0.764688        20.8082 
 229   0.0000       0.767542        20.8859 
 230   0.0000       0.773363        21.0443 
 231   0.0000       0.776750        21.1364 
 232   0.0000       0.778386        21.1810 
 233   0.0000       0.785947        21.3867 
 234   0.0000       0.787798        21.4371 
 235   0.0000       0.797173        21.6922 
 236   0.0000       0.801037        21.7973 
 237   0.0000       0.804369        21.8880 
 238   0.0000       0.811282        22.0761 
 239   0.0000       0.820867        22.3369 
 240   0.0000       0.823420        22.4064 
 241   0.0000       0.826537        22.4912 
 242   0.0000       0.836703        22.7679 
 243   0.0000       0.840433        22.8693 
 244   0.0000       0.854933        23.2639 
 245   0.0000       0.856061        23.2946 
 246   0.0000       0.857572        23.3357 
 247   0.0000       0.864074        23.5126 
 248   0.0000       0.866864        23.5886 
 249   0.0000       0.870866        23.6975 
 250   0.0000       0.873278        23.7631 
 251   0.0000       0.873962        23.7817 
 252   0.0000       0.877613        23.8811 
 253   0.0000       0.878841        23.9145 
 254   0.0000       0.879854        23.9420 
 255   0.0000       0.880824        23.9684 
 256   0.0000       0.883625        24.0447 
 257   0.0000       0.886895        24.1336 
 258   0.0000       0.888717        24.1832 
 259   0.0000       0.896254        24.3883 
 260   0.0000       0.897671        24.4269 
 261   0.0000       0.902295        24.5527 
 262   0.0000       0.906105        24.6564 
 263   0.0000       0.914483        24.8844 
 264   0.0000       0.917543        24.9676 
 265   0.0000       0.922457        25.1013 
 266   0.0000       0.925325        25.1794 
 267   0.0000       0.927048        25.2263 
 268   0.0000       0.930470        25.3194 
 269   0.0000       0.934600        25.4318 
 270   0.0000       0.938826        25.5467 
 271   0.0000       0.941697        25.6249 
 272   0.0000       0.942226        25.6393 
 273   0.0000       0.946047        25.7433 
 274   0.0000       0.956174        26.0188 
 275   0.0000       0.960226        26.1291 
 276   0.0000       0.963436        26.2164 
 277   0.0000       0.968685        26.3593 
 278   0.0000       0.973297        26.4848 
 279   0.0000       0.977103        26.5883 
 280   0.0000       0.981113        26.6974 
 281   0.0000       0.999338        27.1934 
 282   0.0000       1.001642        27.2561 
 283   0.0000       1.012137        27.5417 
 284   0.0000       1.018382        27.7116 
 285   0.0000       1.027887        27.9702 
 286   0.0000       1.028900        27.9978 
 287   0.0000       1.038269        28.2527 
 288   0.0000       1.060212        28.8498 
 289   0.0000       1.062726        28.9182 
 290   0.0000       1.072400        29.1815 
 291   0.0000       1.084119        29.5004 
 292   0.0000       1.087795        29.6004 
 293   0.0000       1.092112        29.7179 
 294   0.0000       1.101700        29.9788 
 295   0.0000       1.105788        30.0900 
 296   0.0000       1.109872        30.2011 
 297   0.0000       1.131798        30.7978 
 298   0.0000       1.142010        31.0757 
 299   0.0000       1.143449        31.1148 
 300   0.0000       1.168030        31.7837 
 301   0.0000       1.171661        31.8825 
 302   0.0000       1.202431        32.7198 
 303   0.0000       1.207494        32.8576 
 304   0.0000       1.240207        33.7478 
 305   0.0000       1.246740        33.9255 
 306   0.0000       1.255207        34.1559 
 307   0.0000       1.264550        34.4102 
 308   0.0000       1.291975        35.1564 
 309   0.0000       1.302954        35.4552 
 310   0.0000       1.330281        36.1988 
 311   0.0000       1.342444        36.5297 
 312   0.0000       1.361556        37.0498 
 313   0.0000       1.372677        37.3524 
 314   0.0000       1.406054        38.2607 
 315   0.0000       1.525405        41.5084 
 316   0.0000       1.528280        41.5866 
 317   0.0000       1.565446        42.5980 
 318   0.0000       1.605796        43.6959 
 319   0.0000       1.657321        45.0980 
 320   0.0000       6.207867       168.9247 
 321   0.0000       6.240073       169.8010 
 322   0.0000       6.245516       169.9491 
 323   0.0000       6.273292       170.7049 
 324   0.0000       6.276869       170.8023 
 325   0.0000       6.287290       171.0859 
 326   0.0000       6.300654       171.4495 
 327   0.0000       6.304360       171.5504 
 328   0.0000       6.314490       171.8260 
 329   0.0000       6.339073       172.4950 
 330   0.0000       6.341112       172.5504 
 331   0.0000       6.352565       172.8621 
 332   0.0000       6.361183       173.0966 
 333   0.0000       6.380175       173.6134 
 334   0.0000       6.385135       173.7484 
 335   0.0000       6.393534       173.9769 
 336   0.0000       6.404105       174.2646 
 337   0.0000       6.416015       174.5886 
 338   0.0000       6.420552       174.7121 
 339   0.0000       6.426754       174.8809 
 340   0.0000       6.433041       175.0519 
 341   0.0000       6.439150       175.2182 
 342   0.0000       6.446860       175.4280 
 343   0.0000       6.453708       175.6143 
 344   0.0000       6.467638       175.9934 
 345   0.0000       6.470960       176.0838 
 346   0.0000       6.476650       176.2386 
 347   0.0000       6.498858       176.8429 
 348   0.0000       6.511010       177.1736 
 349   0.0000       6.514047       177.2562 
 350   0.0000       6.523500       177.5135 
 351   0.0000       6.525810       177.5763 
 352   0.0000       6.537013       177.8812 
 353   0.0000       6.544128       178.0748 
 354   0.0000       6.549277       178.2149 
 355   0.0000       6.556833       178.4205 
 356   0.0000       6.559733       178.4994 
 357   0.0000       6.565291       178.6506 
 358   0.0000       6.571294       178.8140 
 359   0.0000       6.580755       179.0714 
 360   0.0000       6.581471       179.0909 
 361   0.0000       6.587797       179.2631 
 362   0.0000       6.596319       179.4950 
 363   0.0000       6.601824       179.6448 
 364   0.0000       6.602013       179.6499 
 365   0.0000       6.607210       179.7913 
 366   0.0000       6.610986       179.8941 
 367   0.0000       6.614686       179.9948 
 368   0.0000       6.618789       180.1064 
 369   0.0000       6.620690       180.1581 
 370   0.0000       6.623469       180.2338 
 371   0.0000       6.628548       180.3719 
 372   0.0000       6.629703       180.4034 
 373   0.0000       6.638182       180.6341 
 374   0.0000       6.640312       180.6921 
[...]
     69 H        0.000      0.000      0.000      0.000      0.000      0.000
     70 H        0.000      0.000      0.000      0.000      0.003      0.035
     71 H        0.000      0.000      0.000     -0.000      0.001      0.020
     72 H        0.000      0.000      0.000      0.000      0.001      0.012
                 25 H       27 H       28 H       30 H       31 H       33 H  
      3 H        2.494     -0.104      0.075      0.000      0.000      2.408
      4 H        0.116     -0.004      0.004      0.008      0.000      0.102
      8 H       -0.341      0.012      0.000      0.000      0.000     -0.310
      9 H        0.000      0.000      0.000      0.000      0.000      0.133
     10 H        0.000      0.000      0.000      0.000      0.000      0.000
     11 H        0.000      0.000      0.000      0.000      0.000      0.000
     13 H       -0.099      0.004     -0.004      0.000      0.000     -0.102
     16 H       -0.376      0.012     -0.008     -0.022     -0.001     -0.345
     17 H       -0.369      0.011      0.000      0.000      0.000     -0.322
     19 H        0.939     -0.048      0.023      0.088      0.007      1.164
     21 H       -2.816      0.198      0.627     -0.217     -0.026     -2.613
     24 H      -14.007      4.299      2.314      0.725     -0.494     -0.126
     25 H        0.000     13.031      5.205     -0.626     -0.351     -2.348
     27 H       13.031      0.000    -13.566      3.985     13.015      0.065
     28 H        5.205    -13.566      0.000      2.677      4.110      0.277
     30 H       -0.626      3.985      2.677      0.000    -12.951      0.015
     31 H       -0.351     13.015      4.110    -12.951      0.000     -0.321
     33 H       -2.348      0.065      0.277      0.015     -0.321      0.000
     35 H        0.000      0.000      0.000      0.000      0.000      0.000
     37 H        0.271      0.005     -0.035      0.514     -0.037      6.595
     38 H        0.187      0.002     -0.029     -0.014      0.126     12.149
     40 H       -0.013      0.018      0.151     -0.004     -0.033     -0.239
     41 H        0.014      0.023     -0.024      0.014      0.074     -0.431
     42 H       -0.018      0.015     -0.017     -0.260     -0.376     -0.210
     45 H       -0.018     -0.215      0.012     -0.210     -0.484     -0.199
     46 H        0.011      0.052      0.071     -0.344      0.028      0.914
     47 H       -0.058     -0.117     -0.143     -0.159      1.827     -0.476
     48 H       -0.017      0.028      0.023      0.038      0.007     -0.020
     52 H        0.001      0.000      0.003     -0.014     -0.001      0.004
     53 H       -0.001     -0.000     -0.000     -0.002     -0.003     -0.007
     57 H        0.000      0.000      0.000      0.003      0.005      0.009
     58 H        0.000      0.000      0.000      0.000      0.000      0.000
     61 H        0.000      0.000      0.000     -0.000     -0.000     -0.000
     62 H        0.000      0.000      0.000     -0.000     -0.000      0.000
     63 H        0.000      0.000      0.000      0.000      0.000     -0.000
     64 H        0.000      0.000      0.000      0.000      0.000      0.000
     65 H        0.000      0.000      0.000      0.000      0.000      0.000
     66 H        0.000      0.000      0.000      0.000      0.000      0.000
     67 H        0.000      0.000      0.000     -0.000     -0.000      0.000
     68 H        0.000      0.000      0.000      0.000      0.000      0.000
     69 H        0.000      0.000      0.000      0.000      0.000      0.000
     70 H        0.001     -0.009     -0.010      0.077     -0.050      0.005
     71 H        0.003     -0.007     -0.008     -0.460     -0.095      0.005
     72 H        0.000     -0.004     -0.004      0.057      0.004     -0.000
                 35 H       37 H       38 H       40 H       41 H       42 H  
      3 H       -0.073     -0.045     -0.040      0.000      0.000      0.000
      4 H       -0.166     -0.002     -0.002      0.000      0.000      0.000
      8 H        0.019      0.006      0.004      0.000      0.001      0.000
      9 H       -0.092     -0.002     -0.001      0.000     -0.000      0.000
     10 H       -0.181      0.000     -0.001      0.000      0.000      0.000
     11 H       -0.102     -0.000     -0.000      0.000      0.000      0.000
     13 H       13.790      0.002      0.001      0.000      0.000      0.000
     16 H        0.005      0.007      0.002     -0.000      0.001     -0.001
     17 H        0.007      0.005      0.005      0.000      0.002      0.000
     19 H       -0.005     -0.014      0.115      0.004     -0.009      0.006
     21 H       -0.003      0.043     -0.533     -0.010      0.058     -0.024
     24 H       -0.001     -0.055     -0.079     -0.019      0.065     -0.025
     25 H        0.000      0.271      0.187     -0.013      0.014     -0.018
     27 H        0.000      0.005      0.002      0.018      0.023      0.015
     28 H        0.000     -0.035     -0.029      0.151     -0.024     -0.017
     30 H        0.000      0.514     -0.014     -0.004      0.014     -0.260
     31 H        0.000     -0.037      0.126     -0.033      0.074     -0.376
     33 H        0.000      6.595     12.149     -0.239     -0.431     -0.210
     35 H        0.000      0.000      0.000      0.000      0.000      0.000
     37 H        0.000      0.000    -12.176      9.553      2.694     -0.259
     38 H        0.000    -12.176      0.000      6.471     11.594     -0.486
     40 H        0.000      9.553      6.471      0.000    -13.231      9.121
     41 H        0.000      2.694     11.594    -13.231      0.000      8.871
     42 H        0.000     -0.259     -0.486      9.121      8.871      0.000
     45 H        0.000      0.059      0.034     -0.086      0.003      1.153
     46 H        0.000     -0.179      0.010      0.058      0.042     -0.416
     47 H        0.000      0.068     -0.053     -0.113     -0.081     -0.086
     48 H        0.000      0.114     -0.007     -0.191     -0.417     10.560
     52 H        0.000     -0.016     -0.013      0.216     -0.174     -0.173
     53 H        0.000     -0.004     -0.006     -0.019      0.098      0.123
     57 H        0.000     -0.003      0.002      0.063      0.004     -0.144
     58 H        0.000      0.000      0.000     -0.000     -0.001      0.006
     61 H        0.000      0.000      0.000     -0.008     -0.003      0.002
     62 H        0.000     -0.000     -0.000     -0.001     -0.001     -0.000
     63 H        0.000     -0.000     -0.000     -0.002     -0.001      0.000
     64 H        0.000      0.000      0.000     -0.000     -0.000      0.002
     65 H        0.000      0.000      0.000      0.000     -0.000     -0.000
     66 H        0.000      0.000     -0.000     -0.000     -0.000      0.001
     67 H        0.000      0.000      0.000      0.000      0.000      0.001
     68 H        0.000      0.000      0.000      0.001     -0.000     -0.001
     69 H        0.000      0.000      0.000      0.001      0.000      0.000
     70 H        0.000      0.061      0.016     -0.049      0.003     -0.452
     71 H        0.000     -0.007      0.000      0.084      0.031     -0.197
     72 H        0.000     -0.021      0.038      0.021     -0.045     -0.352
                 45 H       46 H       47 H       48 H       52 H       53 H  
      3 H       -0.020      0.000      0.000      0.000      0.000      0.000
      4 H       -0.001     -0.000      0.001      0.000      0.000      0.000
      8 H        0.002      0.002     -0.003      0.000      0.000      0.000
      9 H       -0.001      0.000      0.001      0.000      0.000      0.000
     10 H       -0.001      0.000      0.000      0.000      0.000      0.000
     11 H       -0.000      0.000      0.000      0.000      0.000      0.000
     13 H        0.001      0.001     -0.001      0.000      0.000      0.000
     16 H        0.002      0.002     -0.004      0.000      0.000      0.000
     17 H        0.003      0.000     -0.004      0.000      0.000      0.000
     19 H       -0.010     -0.007      0.011      0.007      0.000      0.000
     21 H        0.029      0.008     -0.019     -0.018      0.001      0.000
     24 H       -0.023     -0.016     -0.024      0.005      0.000      0.000
     25 H       -0.018      0.011     -0.058     -0.017      0.001     -0.001
     27 H       -0.215      0.052     -0.117      0.028      0.000     -0.000
     28 H        0.012      0.071     -0.143      0.023      0.003     -0.000
     30 H       -0.210     -0.344     -0.159      0.038     -0.014     -0.002
     31 H       -0.484      0.028      1.827      0.007     -0.001     -0.003
     33 H       -0.199      0.914     -0.476     -0.020      0.004     -0.007
     35 H        0.000      0.000      0.000      0.000      0.000      0.000
     37 H        0.059     -0.179      0.068      0.114     -0.016     -0.004
     38 H        0.034      0.010     -0.053     -0.007     -0.013     -0.006
     40 H       -0.086      0.058     -0.113     -0.191      0.216     -0.019
     41 H        0.003      0.042     -0.081     -0.417     -0.174      0.098
     42 H        1.153     -0.416     -0.086     10.560     -0.173      0.123
     45 H        0.000    -12.958    -13.581     -0.175      0.019     -0.035
     46 H      -12.958      0.000    -12.952     -0.104      0.005     -0.009
     47 H      -13.581    -12.952      0.000     -0.199      0.006     -0.015
     48 H       -0.175     -0.104     -0.199      0.000      4.984     -2.250
     52 H        0.019      0.005      0.006      4.984      0.000     17.239
     53 H       -0.035     -0.009     -0.015     -2.250     17.239      0.000
     57 H        0.000      0.014      0.016      2.108     -2.824      4.358
     58 H        0.000      0.000      0.000      0.131      0.234     -0.422
     61 H       -0.001     -0.000     -0.000     -0.027     -0.138     -0.538
     62 H       -0.001     -0.000     -0.000     -0.043     -0.330     -0.594
     63 H        0.000      0.000     -0.001     -0.058     -0.216      0.721
     64 H        0.000      0.000      0.000     -0.023      0.021     -0.028
     65 H        0.000      0.000      0.000      0.013     -0.008      0.029
     66 H        0.000     -0.000     -0.000     -0.016      0.015      0.006
     67 H        0.000     -0.000     -0.000     -0.009      0.117     -0.207
     68 H        0.000      0.000      0.000      0.022     -0.008      0.003
     69 H        0.000      0.000      0.000      0.011      0.171     -0.058
     70 H       -0.032     -0.025     -0.012      1.911     -0.384     -0.267
     71 H       -0.061     -0.235     -0.019      5.229      0.698     -0.240
     72 H       -0.031     -0.041      0.029     12.498     -0.523     -0.230
                 57 H       58 H       61 H       62 H       63 H       64 H  
      3 H        0.000      0.000      0.000      0.000      0.000      0.000
      4 H        0.000      0.000      0.000      0.000      0.000      0.000
      8 H        0.000      0.000      0.000      0.000      0.000      0.000
      9 H        0.000      0.000      0.000      0.000      0.000      0.000
     10 H        0.000      0.000      0.000      0.000      0.000      0.000
     11 H        0.000      0.000      0.000      0.000      0.000      0.000
     13 H        0.000      0.000      0.000      0.000      0.000      0.000
     16 H        0.000      0.000      0.000      0.000      0.000      0.000
     17 H        0.000      0.000      0.000      0.000      0.000      0.000
     19 H        0.000      0.000      0.000      0.000      0.000      0.000
     21 H        0.000      0.000      0.000      0.000      0.000      0.000
     24 H        0.000      0.000      0.000      0.000      0.000      0.000
     25 H        0.000      0.000      0.000      0.000      0.000      0.000
     27 H        0.000      0.000      0.000      0.000      0.000      0.000
     28 H        0.000      0.000      0.000      0.000      0.000      0.000
     30 H        0.003      0.000     -0.000     -0.000      0.000      0.000
     31 H        0.005      0.000     -0.000     -0.000      0.000      0.000
     33 H        0.009      0.000     -0.000      0.000     -0.000      0.000
     35 H        0.000      0.000      0.000      0.000      0.000      0.000
     37 H       -0.003      0.000      0.000     -0.000     -0.000      0.000
     38 H        0.002      0.000      0.000     -0.000     -0.000      0.000
     40 H        0.063     -0.000     -0.008     -0.001     -0.002     -0.000
     41 H        0.004     -0.001     -0.003     -0.001     -0.001     -0.000
     42 H       -0.144      0.006      0.002     -0.000      0.000      0.002
     45 H        0.000      0.000     -0.001     -0.001      0.000      0.000
     46 H        0.014      0.000     -0.000     -0.000      0.000      0.000
     47 H        0.016      0.000     -0.000     -0.000     -0.001      0.000
     48 H        2.108      0.131     -0.027     -0.043     -0.058     -0.023
     52 H       -2.824      0.234     -0.138     -0.330     -0.216      0.021
     53 H        4.358     -0.422     -0.538     -0.594      0.721     -0.028
     57 H        0.000      3.347      4.089     12.995      3.157      0.679
     58 H        3.347      0.000     -0.114     -0.261     -0.318      3.148
     61 H        4.089     -0.114      0.000    -12.691    -13.034     -0.092
     62 H       12.995     -0.261    -12.691      0.000    -12.699     -0.096
     63 H        3.157     -0.318    -13.034    -12.699      0.000      0.051
     64 H        0.679      3.148     -0.092     -0.096      0.051      0.000
     65 H       -0.447      3.621     -0.099     -0.280      0.007    -12.975
     66 H       -0.461     13.116      0.064      0.038      0.042    -12.534
     67 H       -0.271     13.119     -0.054      0.040      0.051     -0.199
     68 H       -0.372      2.373      0.016      0.019      0.044      0.089
     69 H       -0.183      4.838      0.516     -0.038     -0.002     -0.228
     70 H       -0.054      0.004      0.007     -0.005      0.027     -0.001
     71 H       -0.088      0.007      0.014      0.017      0.132      0.002
     72 H       -0.049     -0.006     -0.006     -0.007      0.008      0.000
                 65 H       66 H       67 H       68 H       69 H       70 H  
      3 H        0.000      0.000      0.000      0.000      0.000      0.000
      4 H        0.000      0.000      0.000      0.000      0.000      0.000
      8 H        0.000      0.000      0.000      0.000      0.000      0.000
      9 H        0.000      0.000      0.000      0.000      0.000      0.000
     10 H        0.000      0.000      0.000      0.000      0.000      0.000
     11 H        0.000      0.000      0.000      0.000      0.000      0.000
     13 H        0.000      0.000      0.000      0.000      0.000      0.000
     16 H        0.000      0.000      0.000      0.000      0.000      0.000
     17 H        0.000      0.000      0.000      0.000      0.000      0.000
     19 H        0.000      0.000      0.000      0.000      0.000      0.000
     21 H        0.000      0.000      0.000      0.000      0.000      0.003
     24 H        0.000      0.000      0.000      0.000      0.000      0.035
     25 H        0.000      0.000      0.000      0.000      0.000      0.001
     27 H        0.000      0.000      0.000      0.000      0.000     -0.009
     28 H        0.000      0.000      0.000      0.000      0.000     -0.010
     30 H        0.000      0.000     -0.000      0.000      0.000      0.077
     31 H        0.000      0.000     -0.000      0.000      0.000     -0.050
     33 H        0.000      0.000      0.000      0.000      0.000      0.005
     35 H        0.000      0.000      0.000      0.000      0.000      0.000
     37 H        0.000      0.000      0.000      0.000      0.000      0.061
     38 H        0.000     -0.000      0.000      0.000      0.000      0.016
     40 H        0.000     -0.000      0.000      0.001      0.001     -0.049
     41 H       -0.000     -0.000      0.000     -0.000      0.000      0.003
     42 H       -0.000      0.001      0.001     -0.001      0.000     -0.452
     45 H        0.000      0.000      0.000      0.000      0.000     -0.032
     46 H        0.000     -0.000     -0.000      0.000      0.000     -0.025
     47 H        0.000     -0.000     -0.000      0.000      0.000     -0.012
     48 H        0.013     -0.016     -0.009      0.022      0.011      1.911
     52 H       -0.008      0.015      0.117     -0.008      0.171     -0.384
     53 H        0.029      0.006     -0.207      0.003     -0.058     -0.267
     57 H       -0.447     -0.461     -0.271     -0.372     -0.183     -0.054
     58 H        3.621     13.116     13.119      2.373      4.838      0.004
     61 H       -0.099      0.064     -0.054      0.016      0.516      0.007
     62 H       -0.280      0.038      0.040      0.019     -0.038     -0.005
     63 H        0.007      0.042      0.051      0.044     -0.002      0.027
     64 H      -12.975    -12.534     -0.199      0.089     -0.228     -0.001
     65 H        0.000    -12.391     -0.212      2.862     -0.189     -0.002
     66 H      -12.391      0.000     -0.337     -0.319     -0.220     -0.006
     67 H       -0.212     -0.337      0.000    -11.989    -13.165     -0.003
     68 H        2.862     -0.319    -11.989      0.000    -12.768     -0.002
     69 H       -0.189     -0.220    -13.165    -12.768      0.000     -0.001
     70 H       -0.002     -0.006     -0.003     -0.002     -0.001      0.000
     71 H        0.000      0.000     -0.001      0.000     -0.001    -13.682
     72 H        0.000     -0.003     -0.001      0.000     -0.001    -12.344
                 71 H       72 H  
      3 H        0.000      0.000
      4 H        0.000      0.000
      8 H        0.000      0.000
      9 H        0.000      0.000
     10 H        0.000      0.000
     11 H        0.000      0.000
     13 H        0.000      0.000
     16 H        0.000      0.000
     17 H        0.000      0.000
     19 H       -0.000      0.000
     21 H        0.001      0.001
     24 H        0.020      0.012
     25 H        0.003      0.000
     27 H       -0.007     -0.004
     28 H       -0.008     -0.004
     30 H       -0.460      0.057
     31 H       -0.095      0.004
     33 H        0.005     -0.000
     35 H        0.000      0.000
     37 H       -0.007     -0.021
     38 H        0.000      0.038
     40 H        0.084      0.021
     41 H        0.031     -0.045
     42 H       -0.197     -0.352
     45 H       -0.061     -0.031
     46 H       -0.235     -0.041
     47 H       -0.019      0.029
     48 H        5.229     12.498
     52 H        0.698     -0.523
     53 H       -0.240     -0.230
     57 H       -0.088     -0.049
     58 H        0.007     -0.006
     61 H        0.014     -0.006
     62 H        0.017     -0.007
     63 H        0.132      0.008
     64 H        0.002      0.000
     65 H        0.000      0.000
     66 H        0.000     -0.003
     67 H       -0.001     -0.001
     68 H        0.000      0.000
     69 H       -0.001     -0.001
     70 H      -13.682    -12.344
     71 H        0.000    -12.697
     72 H      -12.697      0.000

Maximum memory used throughout the entire EPRNMR-calculation: 969.3 MB

Timings for individual modules:

Sum of individual times         ...      390.213 sec (=   6.504 min)
GTO integral calculation        ...        0.513 sec (=   0.009 min)   0.1 %
SCF iterations                  ...      101.758 sec (=   1.696 min)  26.1 %
EPR/NMR calculation             ...      287.942 sec (=   4.799 min)  73.8 %
                             ****ORCA TERMINATED NORMALLY****
TOTAL RUN TIME: 0 days 0 hours 6 minutes 30 seconds 633 msec
