
                                 *****************
                                 * O   R   C   A *
                                 *****************

                                            #,                                       
                                            ###                                      
                                            ####                                     
                                            #####                                    
                                            ######                                   
                                           ########,                                 
                                     ,,################,,,,,                         
                               ,,#################################,,                 
                          ,,##########################################,,             
                       ,#########################################, ''#####,          
                    ,#############################################,,   '####,        
                  ,##################################################,,,,####,       
                ,###########''''           ''''###############################       
              ,#####''   ,,,,##########,,,,          '''####'''          '####       
            ,##' ,,,,###########################,,,                        '##       
           ' ,,###''''                  '''############,,,                           
         ,,##''                                '''############,,,,        ,,,,,,###''
      ,#''                                            '''#######################'''  
     '                                                          ''''####''''         
             ,#######,   #######,   ,#######,      ##                                
            ,#'     '#,  ##    ##  ,#'     '#,    #''#        ######   ,####,        
            ##       ##  ##   ,#'  ##            #'  '#       #        #'  '#        
            ##       ##  #######   ##           ,######,      #####,   #    #        
            '#,     ,#'  ##    ##  '#,     ,#' ,#      #,         ##   #,  ,#        
             '#######'   ##     ##  '#######'  #'      '#     #####' # '####'        



                  #######################################################
                  #                        -***-                        #
                  #          Department of theory and spectroscopy      #
                  #    Directorship and core code : Frank Neese         #
                  #        Max Planck Institute fuer Kohlenforschung    #
                  #                Kaiser Wilhelm Platz 1               #
                  #                 D-45470 Muelheim/Ruhr               #
                  #                      Germany                        #
                  #                                                     #
                  #                  All rights reserved                #
                  #                        -***-                        #
                  #######################################################


                         Program Version 5.0.2 -  RELEASE  -


 With contributions from (in alphabetic order):
   Daniel Aravena         : Magnetic Suceptibility
   Michael Atanasov       : Ab Initio Ligand Field Theory (pilot matlab implementation)
   Alexander A. Auer      : GIAO ZORA, VPT2 properties, NMR spectrum
   Ute Becker             : Parallelization
   Giovanni Bistoni       : ED, misc. LED, open-shell LED, HFLD
   Martin Brehm           : Molecular dynamics
   Dmytro Bykov           : SCF Hessian
   Vijay G. Chilkuri      : MRCI spin determinant printing, contributions to CSF-ICE
   Dipayan Datta          : RHF DLPNO-CCSD density
   Achintya Kumar Dutta   : EOM-CC, STEOM-CC
   Dmitry Ganyushin       : Spin-Orbit,Spin-Spin,Magnetic field MRCI
   Miquel Garcia          : C-PCM and meta-GGA Hessian, CC/C-PCM, Gaussian charge scheme
   Yang Guo               : DLPNO-NEVPT2, F12-NEVPT2, CIM, IAO-localization
   Andreas Hansen         : Spin unrestricted coupled pair/coupled cluster methods
   Benjamin Helmich-Paris : MC-RPA, TRAH-SCF, COSX integrals
   Lee Huntington         : MR-EOM, pCC
   Robert Izsak           : Overlap fitted RIJCOSX, COSX-SCS-MP3, EOM
   Marcus Kettner         : VPT2
   Christian Kollmar      : KDIIS, OOCD, Brueckner-CCSD(T), CCSD density, CASPT2, CASPT2-K
   Simone Kossmann        : Meta GGA functionals, TD-DFT gradient, OOMP2, MP2 Hessian
   Martin Krupicka        : Initial AUTO-CI
   Lucas Lang             : DCDCAS
   Marvin Lechner         : AUTO-CI (C++ implementation), FIC-MRCC
   Dagmar Lenk            : GEPOL surface, SMD
   Dimitrios Liakos       : Extrapolation schemes; Compound Job, initial MDCI parallelization
   Dimitrios Manganas     : Further ROCIS development; embedding schemes
   Dimitrios Pantazis     : SARC Basis sets
   Anastasios Papadopoulos: AUTO-CI, single reference methods and gradients
   Taras Petrenko         : DFT Hessian,TD-DFT gradient, ASA, ECA, R-Raman, ABS, FL, XAS/XES, NRVS
   Peter Pinski           : DLPNO-MP2, DLPNO-MP2 Gradient
   Christoph Reimann      : Effective Core Potentials
   Marius Retegan         : Local ZFS, SOC
   Christoph Riplinger    : Optimizer, TS searches, QM/MM, DLPNO-CCSD(T), (RO)-DLPNO pert. Triples
   Tobias Risthaus        : Range-separated hybrids, TD-DFT gradient, RPA, STAB
   Michael Roemelt        : Original ROCIS implementation
   Masaaki Saitow         : Open-shell DLPNO-CCSD energy and density
   Barbara Sandhoefer     : DKH picture change effects
   Avijit Sen             : IP-ROCIS
   Kantharuban Sivalingam : CASSCF convergence, NEVPT2, FIC-MRCI
   Bernardo de Souza      : ESD, SOC TD-DFT
   Georgi Stoychev        : AutoAux, RI-MP2 NMR, DLPNO-MP2 response
   Willem Van den Heuvel  : Paramagnetic NMR
   Boris Wezisla          : Elementary symmetry handling
   Frank Wennmohs         : Technical directorship


 We gratefully acknowledge several colleagues who have allowed us to
 interface, adapt or use parts of their codes:
   Stefan Grimme, W. Hujo, H. Kruse, P. Pracht,  : VdW corrections, initial TS optimization,
                  C. Bannwarth, S. Ehlert          DFT functionals, gCP, sTDA/sTD-DF
   Ed Valeev, F. Pavosevic, A. Kumar             : LibInt (2-el integral package), F12 methods
   Garnet Chan, S. Sharma, J. Yang, R. Olivares  : DMRG
   Ulf Ekstrom                                   : XCFun DFT Library
   Mihaly Kallay                                 : mrcc  (arbitrary order and MRCC methods)
   Jiri Pittner, Ondrej Demel                    : Mk-CCSD
   Frank Weinhold                                : gennbo (NPA and NBO analysis)
   Christopher J. Cramer and Donald G. Truhlar   : smd solvation model
   Lars Goerigk                                  : TD-DFT with DH, B97 family of functionals
   V. Asgeirsson, H. Jonsson                     : NEB implementation
   FAccTs GmbH                                   : IRC, NEB, NEB-TS, DLPNO-Multilevel, CI-OPT
                                                   MM, QMMM, 2- and 3-layer-ONIOM, Crystal-QMMM,
                                                   LR-CPCM, SF, NACMEs, symmetry and pop. for TD-DFT,
                                                   nearIR, NL-DFT gradient (VV10), updates on ESD,
                                                   ML-optimized integration grids
   S Lehtola, MJT Oliveira, MAL Marques          : LibXC Library
   Liviu Ungur et al                             : ANISO software


 Your calculation uses the libint2 library for the computation of 2-el integrals
 For citations please refer to: http://libint.valeyev.net

 Your ORCA version has been built with support for libXC version: 5.1.0
 For citations please refer to: https://tddft.org/programs/libxc/

 This ORCA versions uses:
   CBLAS   interface :  Fast vector & matrix operations
   LAPACKE interface :  Fast linear algebra routines
   SCALAPACK package :  Parallel linear algebra routines
   Shared memory     :  Shared parallel matrices
   BLAS/LAPACK       :  OpenBLAS 0.3.15  USE64BITINT DYNAMIC_ARCH NO_AFFINITY Zen SINGLE_THREADED
        Core in use  :  Zen
   Copyright (c) 2011-2014, The OpenBLAS Project


Your calculation utilizes the atom-pairwise dispersion correction
based on tight binding partial charges (D4)
Cite in your paper:
E.Caldeweyher, C.Bannwarth, S.Grimme, J.Chem.Phys., (2017), 147, 034112.
E.Caldeweyher, S.Ehlert, A.Hansen, H.Neugebauer, S.Grimme, J.Chem.Phys., (2018), in progress.
   

================================================================================

----- Orbital basis set information -----
Your calculation utilizes the basis: pcJ-0
   F. Jensen, Theor. Chem. Acc. 126, 371 (2010).

----- AuxJ basis set information -----
Your calculation utilizes the auxiliary basis: def2/J
   F. Weigend, Phys. Chem. Chem. Phys. 8, 1057 (2006).

================================================================================
                                        WARNINGS
                       Please study these warnings very carefully!
================================================================================


INFO   : the flag for use of the SHARK integral package has been found!

================================================================================
                                       INPUT FILE
================================================================================
NAME = inpJ
|  1> ! pbe0
|  2> ! D4
|  3> ! pcJ-0
|  4> ! def2/J RIJCOSX
|  5> ! DEFGRID2
|  6> ! scfconv7
|  7> ! smallprint printgap noloewdin
|  8> ! NOSOSCF
|  9> %MaxCore 4000
| 10> %output
| 11>        print[P_BondOrder_M] 1
| 12>        print[P_Mayer] 1
| 13>        print[P_basis] 2
| 14> end
| 15> %pal
| 16>     nprocs 4
| 17> end
| 18> ! CPCM(chloroform)
| 19> *xyz 0 1
| 20> C   -5.1667061200   0.2713088500   0.2231504000
| 21> C   -6.5554524800  -0.2298155700  -0.0973814800
| 22> C   -7.1246106400   0.4362625600  -1.3560023100
| 23> H   -7.2343569600   0.0157146000   0.7369184000
| 24> H   -6.5555169800  -1.3186447700  -0.2184497400
| 25> C   -5.0433980700   1.7444079500   0.2454066700
| 26> C   -5.6586322800   2.4434938800  -0.9457375000
| 27> C   -7.0879034300   1.9537629700  -1.2152741700
| 28> H   -5.0438521700   2.2260771900  -1.8324263200
| 29> H   -5.6441664900   3.5283424000  -0.7968464300
| 30> H   -7.4835123100   2.4191074800  -2.1257702100
| 31> H   -7.7420114200   2.2458060100  -0.3798165600
| 32> O   -8.4461054800  -0.0407257700  -1.6417444300
| 33> H   -6.5221975300   0.1357115100  -2.2246838700
| 34> C   -4.1445047200  -0.5937597700   0.4247283700
| 35> C   -4.4780162400   2.4195888600   1.2527950200
| 36> H   -4.0644749600   1.9065304500   2.1165139300
| 37> H   -4.4272686300   3.5058039500   1.2387730800
| 38> C   -2.7589068600  -0.2487347800   0.6418968000
| 39> H   -4.3945186900  -1.6527336000   0.3753654400
| 40> C   -1.7543949100  -1.1039943600   0.9302782800
| 41> H   -2.5109824500   0.8064376700   0.5509231000
| 42> C   -1.8982539800  -2.5888155500   1.1510653100
| 43> C   -0.9110371700  -3.3998207500   0.2901620500
| 44> H   -2.9196226300  -2.9367652200   0.9733097300
| 45> H   -1.6749566200  -2.7922856200   2.2107840000
| 46> C    0.5336455300  -2.8967946500   0.4141960400
| 47> H   -1.2294172200  -3.3569449000  -0.7590365100
| 48> H   -0.9590141700  -4.4548261300   0.5867333600
| 49> C    0.6405085500  -1.3939913400   0.1183559500
| 50> H    1.1737087500  -3.4820037400  -0.2543261700
| 51> H    0.8919633800  -3.0753070000   1.4392779200
| 52> C   -0.3336284700  -0.6574130700   1.0909188100
| 53> H   -0.0176775800  -0.9830052200   2.0997961200
| 54> C    0.0478123600   0.8121199300   0.9516085300
| 55> H   -9.0125934900   0.2093106300  -0.8995504000
| 56> C    1.5864082100   0.7692484700   0.7899535100
| 57> H   -0.2711635800   1.4071357200   1.8140675500
| 58> H   -0.4222450200   1.2518467100   0.0646423300
| 59> C    1.9823094100  -0.7166715600   0.5197516100
| 60> H    2.0908154400   1.1486351000   1.6827285700
| 61> H    1.9152516600   1.4033289300  -0.0423154900
| 62> H    2.2799258400  -1.1828311900   1.4722533500
| 63> C    3.1666591700  -0.8244739600  -0.4512469200
| 64> C    0.2783462200  -1.0934845300  -1.3428504200
| 65> H   -0.7819755100  -1.2840461900  -1.5348531300
| 66> H    0.8619616800  -1.7196546400  -2.0261579900
| 67> H    0.4729294000  -0.0480413300  -1.6029598800
| 68> H    2.8722589600  -0.3237758100  -1.3871428000
| 69> C    3.5620117500  -2.2694815300  -0.8079185200
| 70> C    4.4109429300  -0.1183517100   0.0415944500
| 71> C    4.7360094500   0.1733729300   1.3006624700
| 72> H    5.1381264000   0.1165852900  -0.7410683900
| 73> H    4.0431737500  -0.0708807200   2.1074994400
| 74> C    6.0275330100   0.8161727200   1.7228817700
| 75> C    6.7988226000  -0.1135375200   2.6710600100
| 76> C    5.8161184900   2.2248309300   2.3410417700
| 77> H    6.6404080600   0.9627943100   0.8207387300
| 78> H    6.8166847500   2.5805065000   2.6320859200
| 79> C    4.9378135000   2.2167320100   3.5949526800
| 80> C    5.2515845300   3.1985856400   1.3054888300
| 81> H    7.0754211800  -1.0399890300   2.1568811000
| 82> H    6.1955371200  -0.3882571900   3.5433337200
| 83> H    7.7160031700   0.3680920300   3.0303695200
| 84> H    4.8937492600   3.2206247000   4.0315753000
| 85> H    5.3180044300   1.5362237200   4.3634623900
| 86> H    3.9108751300   1.9187936700   3.3527963600
| 87> H    4.2459087900   2.8912653100   0.9942094300
| 88> H    5.8822006900   3.2377472600   0.4096035300
| 89> H    5.1834151500   4.2111021800   1.7189519600
| 90> H    4.4955248300  -2.2775197500  -1.3817640700
| 91> H    2.7981436100  -2.7680947000  -1.4102935900
| 92> H    3.7240355300  -2.8556980800   0.1042409500
| 93> *
| 94> %eprnmr
| 95>  Nuclei = all H { ssfc }
| 96>  SpinSpinRThresh 8.0
| 97> end
| 98> 
| 99>                          ****END OF INPUT****
================================================================================

                       ****************************
                       * Single Point Calculation *
                       ****************************

---------------------------------
CARTESIAN COORDINATES (ANGSTROEM)
---------------------------------
  C     -5.166706    0.271309    0.223150
  C     -6.555452   -0.229816   -0.097381
  C     -7.124611    0.436263   -1.356002
  H     -7.234357    0.015715    0.736918
  H     -6.555517   -1.318645   -0.218450
  C     -5.043398    1.744408    0.245407
  C     -5.658632    2.443494   -0.945738
  C     -7.087903    1.953763   -1.215274
  H     -5.043852    2.226077   -1.832426
  H     -5.644166    3.528342   -0.796846
  H     -7.483512    2.419107   -2.125770
  H     -7.742011    2.245806   -0.379817
  O     -8.446105   -0.040726   -1.641744
  H     -6.522198    0.135712   -2.224684
  C     -4.144505   -0.593760    0.424728
  C     -4.478016    2.419589    1.252795
  H     -4.064475    1.906530    2.116514
  H     -4.427269    3.505804    1.238773
  C     -2.758907   -0.248735    0.641897
  H     -4.394519   -1.652734    0.375365
  C     -1.754395   -1.103994    0.930278
  H     -2.510982    0.806438    0.550923
  C     -1.898254   -2.588816    1.151065
  C     -0.911037   -3.399821    0.290162
  H     -2.919623   -2.936765    0.973310
  H     -1.674957   -2.792286    2.210784
  C      0.533646   -2.896795    0.414196
  H     -1.229417   -3.356945   -0.759037
  H     -0.959014   -4.454826    0.586733
  C      0.640509   -1.393991    0.118356
  H      1.173709   -3.482004   -0.254326
  H      0.891963   -3.075307    1.439278
  C     -0.333628   -0.657413    1.090919
  H     -0.017678   -0.983005    2.099796
  C      0.047812    0.812120    0.951609
  H     -9.012593    0.209311   -0.899550
  C      1.586408    0.769248    0.789954
  H     -0.271164    1.407136    1.814068
  H     -0.422245    1.251847    0.064642
  C      1.982309   -0.716672    0.519752
  H      2.090815    1.148635    1.682729
  H      1.915252    1.403329   -0.042315
  H      2.279926   -1.182831    1.472253
  C      3.166659   -0.824474   -0.451247
  C      0.278346   -1.093485   -1.342850
  H     -0.781976   -1.284046   -1.534853
  H      0.861962   -1.719655   -2.026158
  H      0.472929   -0.048041   -1.602960
  H      2.872259   -0.323776   -1.387143
  C      3.562012   -2.269482   -0.807919
  C      4.410943   -0.118352    0.041594
  C      4.736009    0.173373    1.300662
  H      5.138126    0.116585   -0.741068
  H      4.043174   -0.070881    2.107499
  C      6.027533    0.816173    1.722882
  C      6.798823   -0.113538    2.671060
  C      5.816118    2.224831    2.341042
  H      6.640408    0.962794    0.820739
  H      6.816685    2.580506    2.632086
  C      4.937813    2.216732    3.594953
  C      5.251585    3.198586    1.305489
  H      7.075421   -1.039989    2.156881
  H      6.195537   -0.388257    3.543334
  H      7.716003    0.368092    3.030370
  H      4.893749    3.220625    4.031575
  H      5.318004    1.536224    4.363462
  H      3.910875    1.918794    3.352796
  H      4.245909    2.891265    0.994209
  H      5.882201    3.237747    0.409604
  H      5.183415    4.211102    1.718952
  H      4.495525   -2.277520   -1.381764
  H      2.798144   -2.768095   -1.410294
  H      3.724036   -2.855698    0.104241

----------------------------
CARTESIAN COORDINATES (A.U.)
----------------------------
  NO LB      ZA    FRAG     MASS         X           Y           Z
   0 C     6.0000    0    12.011   -9.763660    0.512699    0.421693
   1 C     6.0000    0    12.011  -12.388010   -0.434288   -0.184024
   2 C     6.0000    0    12.011  -13.463563    0.824417   -2.562473
   3 H     1.0000    0     1.008  -13.670953    0.029696    1.392574
   4 H     1.0000    0     1.008  -12.388132   -2.491877   -0.412810
   5 C     6.0000    0    12.011   -9.530641    3.296453    0.463751
   6 C     6.0000    0    12.011  -10.693265    4.617534   -1.787185
   7 C     6.0000    0    12.011  -13.394196    3.692077   -2.296535
   8 H     1.0000    0     1.008   -9.531499    4.206676   -3.462784
   9 H     1.0000    0     1.008  -10.665929    6.667601   -1.505822
  10 H     1.0000    0     1.008  -14.141789    4.571451   -4.017124
  11 H     1.0000    0     1.008  -14.630281    4.243958   -0.717749
  12 O     8.0000    0    15.999  -15.960826   -0.076961   -3.102447
  13 H     1.0000    0     1.008  -12.325167    0.256458   -4.204043
  14 C     6.0000    0    12.011   -7.831979   -1.122043    0.802620
  15 C     6.0000    0    12.011   -8.462224    4.572360    2.367439
  16 H     1.0000    0     1.008   -7.680745    3.602820    3.999632
  17 H     1.0000    0     1.008   -8.366325    6.625009    2.340942
  18 C     6.0000    0    12.011   -5.213578   -0.470041    1.213009
  19 H     1.0000    0     1.008   -8.304437   -3.123214    0.709338
  20 C     6.0000    0    12.011   -3.315326   -2.086247    1.757971
  21 H     1.0000    0     1.008   -4.745069    1.523946    1.041094
  22 C     6.0000    0    12.011   -3.587180   -4.892152    2.175198
  23 C     6.0000    0    12.011   -1.721611   -6.424730    0.548327
  24 H     1.0000    0     1.008   -5.517287   -5.549682    1.839289
  25 H     1.0000    0     1.008   -3.165209   -5.276655    4.177776
  26 C     6.0000    0    12.011    1.008444   -5.474149    0.782717
  27 H     1.0000    0     1.008   -2.323262   -6.343707   -1.434371
  28 H     1.0000    0     1.008   -1.812274   -8.418401    1.108765
  29 C     6.0000    0    12.011    1.210386   -2.634262    0.223660
  30 H     1.0000    0     1.008    2.217988   -6.580033   -0.480607
  31 H     1.0000    0     1.008    1.685567   -5.811488    2.719841
  32 C     6.0000    0    12.011   -0.630466   -1.242331    2.061538
  33 H     1.0000    0     1.008   -0.033406   -1.857611    3.968040
  34 C     6.0000    0    12.011    0.090352    1.534684    1.798280
  35 H     1.0000    0     1.008  -17.031333    0.395540   -1.699904
  36 C     6.0000    0    12.011    2.997877    1.453669    1.492796
  37 H     1.0000    0     1.008   -0.512425    2.659101    3.428091
  38 H     1.0000    0     1.008   -0.797927    2.365647    0.122156
  39 C     6.0000    0    12.011    3.746022   -1.354313    0.982188
  40 H     1.0000    0     1.008    3.951069    2.170606    3.179896
  41 H     1.0000    0     1.008    3.619301    2.651907   -0.079965
  42 H     1.0000    0     1.008    4.308435   -2.235227    2.782156
  43 C     6.0000    0    12.011    5.984119   -1.558030   -0.852733
  44 C     6.0000    0    12.011    0.525998   -2.066386   -2.537620
  45 H     1.0000    0     1.008   -1.477720   -2.426496   -2.900452
  46 H     1.0000    0     1.008    1.628872   -3.249676   -3.828884
  47 H     1.0000    0     1.008    0.893707   -0.090785   -3.029155
  48 H     1.0000    0     1.008    5.427783   -0.611848   -2.621320
  49 C     6.0000    0    12.011    6.731227   -4.288699   -1.526745
  50 C     6.0000    0    12.011    8.335474   -0.223652    0.078602
  51 C     6.0000    0    12.011    8.949761    0.327627    2.457896
  52 H     1.0000    0     1.008    9.709652    0.220314   -1.400416
  53 H     1.0000    0     1.008    7.640491   -0.133945    3.982597
  54 C     6.0000    0    12.011   11.390387    1.542343    3.255775
  55 C     6.0000    0    12.011   12.847913   -0.214555    5.047572
  56 C     6.0000    0    12.011   10.990871    4.204321    4.423928
  57 H     1.0000    0     1.008   12.548553    1.819418    1.550971
  58 H     1.0000    0     1.008   12.881667    4.876451    4.973922
  59 C     6.0000    0    12.011    9.331115    4.189016    6.793476
  60 C     6.0000    0    12.011    9.924057    6.044451    2.467016
  61 H     1.0000    0     1.008   13.370608   -1.965294    4.075915
  62 H     1.0000    0     1.008   11.707868   -0.733700    6.695930
  63 H     1.0000    0     1.008   14.581133    0.695593    5.726568
  64 H     1.0000    0     1.008    9.247846    6.086099    7.618573
  65 H     1.0000    0     1.008   10.049572    2.903042    8.245749
  66 H     1.0000    0     1.008    7.390483    3.625995    6.335867
  67 H     1.0000    0     1.008    8.023605    5.463700    1.878784
  68 H     1.0000    0     1.008   11.115748    6.118456    0.774038
  69 H     1.0000    0     1.008    9.795235    7.957830    3.248348
  70 H     1.0000    0     1.008    8.495311   -4.303889   -2.611156
  71 H     1.0000    0     1.008    5.287725   -5.230941   -2.665069
  72 H     1.0000    0     1.008    7.037407   -5.396487    0.196987

--------------------------------
INTERNAL COORDINATES (ANGSTROEM)
--------------------------------
 C      0   0   0     0.000000000000     0.00000000     0.00000000
 C      1   0   0     1.510788808150     0.00000000     0.00000000
 C      2   1   0     1.533534310040   111.79078857     0.00000000
 H      2   1   3     1.103291732550   109.35283226   241.45694895
 H      2   1   3     1.095539389758   110.68106783   122.91575715
 C      1   2   3     1.478418470924   114.22779690    50.21899310
 C      6   1   2     1.511971793521   114.51335479   312.26854567
 C      3   2   1     1.524453778573   110.34420344   305.12798318
 H      7   6   1     1.100655106859   108.42384688   289.87648077
 H      7   6   1     1.095113748043   110.21524802   172.67026945
 H      8   3   2     1.096382660287   109.70329596   179.19596341
 H      8   3   2     1.100516159764   108.65852082   296.64816442
 O      3   2   1     1.433706747646   111.17169819   180.46043313
 H      3   2   1     1.099017807608   109.05665028    65.30630921
 C      1   2   3     1.354205707217   120.90064991   232.12662164
 C      6   1   2     1.338042287313   123.32341999   130.02789184
 H     16   6   1     1.086395728005   121.40644776     0.64670010
 H     16   6   1     1.087490301780   120.93212488   181.34541738
 C     15   1   2     1.444328840794   126.43593882   175.26223345
 H     15   1   2     1.089205791702   116.17164469   357.97924306
 C     19  15   1     1.350435886994   126.47095200   175.30822985
 H     19  15   1     1.087718541905   115.96496747   354.61299139
 C     21  19  15     1.508023975575   125.72406867   356.72198170
 C     23  21  19     1.540610556712   112.04751835   128.80345483
 H     23  21  19     1.093553811331   112.24619340     4.59714328
 H     23  21  19     1.101937149888   107.65437574   247.50659796
 C     24  23  21     1.534772879496   112.67392151    50.38030020
 H     24  23  21     1.097279277603   109.13660565   288.22382160
 H     24  23  21     1.096946984258   109.09799541   172.27305824
 C     27  24  23     1.535369288621   111.76153677   306.18122202
 H     27  24  23     1.095021712058   109.00866692   182.61248054
 H     27  24  23     1.100477715102   109.18397744    66.09377953
 C     21  19  15     1.497937750872   122.65707395   177.73474320
 H     33  21  19     1.106195570262   106.31756375   123.16466740
 C     33  21  19     1.524608703567   120.98821832     0.81511045
 H     13   3   2     0.966581007969   107.52402854    62.61031375
 C     35  33  21     1.547658714708   103.38942001   195.34456400
 H     35  33  21     1.095273939171   112.26051850    73.53577182
 H     35  33  21     1.095911776323   110.69482135   313.88624676
 C     30  27  24     1.555734587950   115.87765076   166.81851594
 H     37  35  33     1.093347235080   111.32997587   251.26612055
 H     37  35  33     1.096753268845   111.18161675   132.93990901
 H     40  30  27     1.101426304730   105.77822505   321.83641029
 C     40  30  27     1.535299272689   118.13725570    82.83218600
 C     30  27  24     1.535118872223   111.01354637   295.10087760
 H     45  30  27     1.094285592530   111.19345171    67.45397962
 H     45  30  27     1.095264920934   110.86775026   307.41862248
 H     45  30  27     1.094747016231   111.78741496   187.31174485
 H     44  40  30     1.101485914237   107.41396166    62.15739643
 C     44  40  30     1.539988691555   114.23028452   303.20676817
 C     44  40  30     1.513189784306   113.30177947   179.51945966
 C     51  44  40     1.332675424473   127.62065555    23.68364972
 H     51  44  40     1.093870336981   114.44576989   199.82328490
 H     52  51  44     1.091176909988   119.65019577   357.53453325
 C     52  51  44     1.503161273234   124.64987805   176.66675401
 C     55  52  51     1.535672731025   110.24725402   240.79839818
 C     55  52  51     1.552783255148   112.50590679   115.22191460
 H     55  52  51     1.100443447973   107.77179539   358.31319128
 H     57  55  52     1.101065233760   105.93521612   178.59889589
 C     57  55  52     1.530940174592   113.53895059    60.42723181
 C     57  55  52     1.529466154834   110.99488979   295.56506540
 H     56  55  52     1.095079506852   110.43445900    63.12133396
 H     56  55  52     1.095575507494   111.52029777   303.65267714
 H     56  55  52     1.096490102735   110.88660044   183.19079002
 H     60  57  55     1.095619232479   110.15920709   175.29200353
 H     60  57  55     1.094643252561   112.27506700    55.28444032
 H     60  57  55     1.096361871617   110.97176630   294.12280132
 H     61  57  55     1.096687897316   110.62442400    65.05164199
 H     61  57  55     1.096275897979   111.32922546   305.22063201
 H     61  57  55     1.095804986306   110.84043828   184.82138172
 H     50  44  40     1.095814764806   110.29594198   188.21441168
 H     50  44  40     1.093144708427   112.10019285    68.26229353
 H     50  44  40     1.096328622034   110.30214748   307.19741389

---------------------------
INTERNAL COORDINATES (A.U.)
---------------------------
 C      0   0   0     0.000000000000     0.00000000     0.00000000
 C      1   0   0     2.854977093596     0.00000000     0.00000000
 C      2   1   0     2.897959862947   111.79078857     0.00000000
 H      2   1   3     2.084919220338   109.35283226   241.45694895
 H      2   1   3     2.070269415567   110.68106783   122.91575715
 C      1   2   3     2.793806021377   114.22779690    50.21899310
 C      6   1   2     2.857212611969   114.51335479   312.26854567
 C      3   2   1     2.880800145323   110.34420344   305.12798318
 H      7   6   1     2.079936719866   108.42384688   289.87648077
 H      7   6   1     2.069465069293   110.21524802   172.67026945
 H      8   3   2     2.071862965922   109.70329596   179.19596341
 H      8   3   2     2.079674147908   108.65852082   296.64816442
 O      3   2   1     2.709313109405   111.17169819   180.46043313
 H      3   2   1     2.076842672682   109.05665028    65.30630921
 C      1   2   3     2.559077915634   120.90064991   232.12662164
 C      6   1   2     2.528533478627   123.32341999   130.02789184
 H     16   6   1     2.052990398991   121.40644776     0.64670010
 H     16   6   1     2.055058843660   120.93212488   181.34541738
 C     15   1   2     2.729385956425   126.43593882   175.26223345
 H     15   1   2     2.058300649799   116.17164469   357.97924306
 C     19  15   1     2.551953987838   126.47095200   175.30822985
 H     19  15   1     2.055490154989   115.96496747   354.61299139
 C     21  19  15     2.849752317225   125.72406867   356.72198170
 C     23  21  19     2.911332031214   112.04751835   128.80345483
 H     23  21  19     2.066517216122   112.24619340     4.59714328
 H     23  21  19     2.082359430083   107.65437574   247.50659796
 C     24  23  21     2.900300420017   112.67392151    50.38030020
 H     24  23  21     2.073557327097   109.13660565   288.22382160
 H     24  23  21     2.072929383679   109.09799541   172.27305824
 C     27  24  23     2.901427469928   111.76153677   306.18122202
 H     27  24  23     2.069291146487   109.00866692   182.61248054
 H     27  24  23     2.079601498026   109.18397744    66.09377953
 C     21  19  15     2.830692114810   122.65707395   177.73474320
 H     33  21  19     2.090406678351   106.31756375   123.16466740
 C     33  21  19     2.881092911135   120.98821832     0.81511045
 H     13   3   2     1.826573391311   107.52402854    62.61031375
 C     35  33  21     2.924651119574   103.38942001   195.34456400
 H     35  33  21     2.069767786655   112.26051850    73.53577182
 H     35  33  21     2.070973124190   110.69482135   313.88624676
 C     30  27  24     2.939912308294   115.87765076   166.81851594
 H     37  35  33     2.066126843581   111.32997587   251.26612055
 H     37  35  33     2.072563314600   111.18161675   132.93990901
 H     40  30  27     2.081394072636   105.77822505   321.83641029
 C     40  30  27     2.901295158991   118.13725570    82.83218600
 C     30  27  24     2.900954251516   111.01354637   295.10087760
 H     45  30  27     2.067900082178   111.19345171    67.45397962
 H     45  30  27     2.069750744655   110.86775026   307.41862248
 H     45  30  27     2.068772046604   111.78741496   187.31174485
 H     44  40  30     2.081506718280   107.41396166    62.15739643
 C     44  40  30     2.910156876374   114.23028452   303.20676817
 C     44  40  30     2.859514280986   113.30177947   179.51945966
 C     51  44  40     2.518391577662   127.62065555    23.68364972
 H     51  44  40     2.067115362914   114.44576989   199.82328490
 H     52  51  44     2.062025523536   119.65019577   357.53453325
 C     52  51  44     2.840563141529   124.64987805   176.66675401
 C     55  52  51     2.902000892968   110.24725402   240.79839818
 C     55  52  51     2.934335097568   112.50590679   115.22191460
 H     55  52  51     2.079536742537   107.77179539   358.31319128
 H     57  55  52     2.080711747388   105.93521612   178.59889589
 C     57  55  52     2.893057657397   113.53895059    60.42723181
 C     57  55  52     2.890272163738   110.99488979   295.56506540
 H     56  55  52     2.069400362821   110.43445900    63.12133396
 H     56  55  52     2.070337668196   111.52029777   303.65267714
 H     56  55  52     2.072066002724   110.88660044   183.19079002
 H     60  57  55     2.070420296442   110.15920709   175.29200353
 H     60  57  55     2.068575961685   112.27506700    55.28444032
 H     60  57  55     2.071823681030   110.97176630   294.12280132
 H     61  57  55     2.072439780314   110.62442400    65.05164199
 H     61  57  55     2.071661214399   111.32922546   305.22063201
 H     61  57  55     2.070771320303   110.84043828   184.82138172
 H     50  44  40     2.070789798991   110.29594198   188.21441168
 H     50  44  40     2.065744123672   112.10019285    68.26229353
 H     50  44  40     2.071760848423   110.30214748   307.19741389

---------------------
BASIS SET INFORMATION
---------------------
There are 3 groups of distinct atoms

 Group   1 Type C   : 7s4p contracted to 4s3p pattern {4111/211}
 Group   2 Type H   : 5s contracted to 3s pattern {311}
 Group   3 Type O   : 7s4p contracted to 4s3p pattern {4111/211}

Atom   0C    basis set group =>   1
Atom   1C    basis set group =>   1
Atom   2C    basis set group =>   1
Atom   3H    basis set group =>   2
Atom   4H    basis set group =>   2
Atom   5C    basis set group =>   1
Atom   6C    basis set group =>   1
Atom   7C    basis set group =>   1
Atom   8H    basis set group =>   2
Atom   9H    basis set group =>   2
Atom  10H    basis set group =>   2
Atom  11H    basis set group =>   2
Atom  12O    basis set group =>   3
Atom  13H    basis set group =>   2
Atom  14C    basis set group =>   1
Atom  15C    basis set group =>   1
Atom  16H    basis set group =>   2
Atom  17H    basis set group =>   2
Atom  18C    basis set group =>   1
Atom  19H    basis set group =>   2
Atom  20C    basis set group =>   1
Atom  21H    basis set group =>   2
Atom  22C    basis set group =>   1
Atom  23C    basis set group =>   1
Atom  24H    basis set group =>   2
Atom  25H    basis set group =>   2
Atom  26C    basis set group =>   1
Atom  27H    basis set group =>   2
Atom  28H    basis set group =>   2
Atom  29C    basis set group =>   1
Atom  30H    basis set group =>   2
Atom  31H    basis set group =>   2
Atom  32C    basis set group =>   1
Atom  33H    basis set group =>   2
Atom  34C    basis set group =>   1
Atom  35H    basis set group =>   2
Atom  36C    basis set group =>   1
Atom  37H    basis set group =>   2
Atom  38H    basis set group =>   2
Atom  39C    basis set group =>   1
Atom  40H    basis set group =>   2
Atom  41H    basis set group =>   2
Atom  42H    basis set group =>   2
Atom  43C    basis set group =>   1
Atom  44C    basis set group =>   1
Atom  45H    basis set group =>   2
Atom  46H    basis set group =>   2
Atom  47H    basis set group =>   2
Atom  48H    basis set group =>   2
Atom  49C    basis set group =>   1
Atom  50C    basis set group =>   1
Atom  51C    basis set group =>   1
Atom  52H    basis set group =>   2
Atom  53H    basis set group =>   2
Atom  54C    basis set group =>   1
Atom  55C    basis set group =>   1
Atom  56C    basis set group =>   1
Atom  57H    basis set group =>   2
Atom  58H    basis set group =>   2
Atom  59C    basis set group =>   1
Atom  60C    basis set group =>   1
Atom  61H    basis set group =>   2
Atom  62H    basis set group =>   2
Atom  63H    basis set group =>   2
Atom  64H    basis set group =>   2
Atom  65H    basis set group =>   2
Atom  66H    basis set group =>   2
Atom  67H    basis set group =>   2
Atom  68H    basis set group =>   2
Atom  69H    basis set group =>   2
Atom  70H    basis set group =>   2
Atom  71H    basis set group =>   2
Atom  72H    basis set group =>   2

-------------------------
BASIS SET IN INPUT FORMAT
-------------------------

 # Basis set for element : H 
 NewGTO H 
 S 3 
   1    1357.7500000000      0.0012928364
   2      54.3100000000      0.0588280685
   3       4.3448000000      0.9761499708
 S 1 
   1       0.6604910000      1.0000000000
 S 1 
   1       0.1366870000      1.0000000000
  end;

 # Basis set for element : C 
 NewGTO C 
 S 4 
   1  139534.0000000000      0.0001655246
   2    5581.3600000000      0.0074486101
   3     446.5090000000      0.1285821065
   4      67.4620000000      0.9218029311
 S 1 
   1      15.0674000000      1.0000000000
 S 1 
   1       3.9387600000      1.0000000000
 S 1 
   1       0.2999150000      1.0000000000
 P 2 
   1      28.3900000000      0.0816325586
   2       4.3676900000      0.9660360576
 P 1 
   1       0.8698170000      1.0000000000
 P 1 
   1       0.1889340000      1.0000000000
  end;

 # Basis set for element : O 
 NewGTO O 
 S 4 
   1  253789.0000000000      0.0001641076
   2   10151.6000000000      0.0074010921
   3     812.1250000000      0.1277711901
   4     122.6930000000      0.9223372164
 S 1 
   1      27.5608000000      1.0000000000
 S 1 
   1       7.3172600000      1.0000000000
 S 1 
   1       0.5792400000      1.0000000000
 P 2 
   1      53.4157000000      0.0793786106
   2       8.2177900000      0.9670506337
 P 1 
   1       1.6754400000      1.0000000000
 P 1 
   1       0.3506720000      1.0000000000
  end;

---------------------------------
AUXILIARY/J BASIS SET INFORMATION
---------------------------------
There are 3 groups of distinct atoms

 Group   1 Type C   : 12s5p4d2f1g contracted to 6s4p3d1f1g pattern {711111/2111/211/2/1}
 Group   2 Type H   : 5s2p1d contracted to 3s1p1d pattern {311/2/1}
 Group   3 Type O   : 12s5p4d2f1g contracted to 6s4p3d1f1g pattern {711111/2111/211/2/1}

Atom   0C    basis set group =>   1
Atom   1C    basis set group =>   1
Atom   2C    basis set group =>   1
Atom   3H    basis set group =>   2
Atom   4H    basis set group =>   2
Atom   5C    basis set group =>   1
Atom   6C    basis set group =>   1
Atom   7C    basis set group =>   1
Atom   8H    basis set group =>   2
Atom   9H    basis set group =>   2
Atom  10H    basis set group =>   2
Atom  11H    basis set group =>   2
Atom  12O    basis set group =>   3
Atom  13H    basis set group =>   2
Atom  14C    basis set group =>   1
Atom  15C    basis set group =>   1
Atom  16H    basis set group =>   2
Atom  17H    basis set group =>   2
Atom  18C    basis set group =>   1
Atom  19H    basis set group =>   2
Atom  20C    basis set group =>   1
Atom  21H    basis set group =>   2
Atom  22C    basis set group =>   1
Atom  23C    basis set group =>   1
Atom  24H    basis set group =>   2
Atom  25H    basis set group =>   2
Atom  26C    basis set group =>   1
Atom  27H    basis set group =>   2
Atom  28H    basis set group =>   2
Atom  29C    basis set group =>   1
Atom  30H    basis set group =>   2
Atom  31H    basis set group =>   2
Atom  32C    basis set group =>   1
Atom  33H    basis set group =>   2
Atom  34C    basis set group =>   1
Atom  35H    basis set group =>   2
Atom  36C    basis set group =>   1
Atom  37H    basis set group =>   2
Atom  38H    basis set group =>   2
Atom  39C    basis set group =>   1
Atom  40H    basis set group =>   2
Atom  41H    basis set group =>   2
Atom  42H    basis set group =>   2
Atom  43C    basis set group =>   1
Atom  44C    basis set group =>   1
Atom  45H    basis set group =>   2
Atom  46H    basis set group =>   2
Atom  47H    basis set group =>   2
Atom  48H    basis set group =>   2
Atom  49C    basis set group =>   1
Atom  50C    basis set group =>   1
Atom  51C    basis set group =>   1
Atom  52H    basis set group =>   2
Atom  53H    basis set group =>   2
Atom  54C    basis set group =>   1
Atom  55C    basis set group =>   1
Atom  56C    basis set group =>   1
Atom  57H    basis set group =>   2
Atom  58H    basis set group =>   2
Atom  59C    basis set group =>   1
Atom  60C    basis set group =>   1
Atom  61H    basis set group =>   2
Atom  62H    basis set group =>   2
Atom  63H    basis set group =>   2
Atom  64H    basis set group =>   2
Atom  65H    basis set group =>   2
Atom  66H    basis set group =>   2
Atom  67H    basis set group =>   2
Atom  68H    basis set group =>   2
Atom  69H    basis set group =>   2
Atom  70H    basis set group =>   2
Atom  71H    basis set group =>   2
Atom  72H    basis set group =>   2

-------------------------------------
AUXILIARY/J BASIS SET IN INPUT FORMAT
-------------------------------------

 # Auxiliary/J basis set for element : H 
 NewAuxJGTO H 
 S 3 
   1      15.6752927000      0.1007184237
   2       3.6063578000      0.3404257499
   3       1.2080016000      0.6491996172
 S 1 
   1       0.4726794000      1.0000000000
 S 1 
   1       0.2018100000      1.0000000000
 P 2 
   1       2.0281365000      0.5596620919
   2       0.5358730000      0.5596620919
 D 1 
   1       2.2165124000      1.0000000000
  end;

 # Auxiliary/J basis set for element : C 
 NewAuxJGTO C 
 S 7 
   1    1861.0916331000      0.0134602335
   2     642.9939764000      0.0299160374
   3     235.1105725000      0.1008649584
   4      90.7028894000      0.2370970548
   5      36.7794552000      0.3924037254
   6      15.6046273000      0.3195862154
   7       6.8907294000      0.0530104441
 S 1 
   1       3.1478850000     -1.0000000000
 S 1 
   1       1.4777287000      1.0000000000
 S 1 
   1       0.7076466000      1.0000000000
 S 1 
   1       0.3430122000      1.0000000000
 S 1 
   1       0.1669453000      1.0000000000
 P 2 
   1      13.5472892000     -0.6769313712
   2       5.4669419000     -0.3779500978
 P 1 
   1       2.1751721000      1.0000000000
 P 1 
   1       0.8582194000      1.0000000000
 P 1 
   1       0.3376720000      1.0000000000
 D 2 
   1       5.9287253000     -0.3533329857
   2       1.9809209000     -0.7456525731
 D 1 
   1       0.8055417000     -1.0000000000
 D 1 
   1       0.3531244000     -1.0000000000
 F 2 
   1       1.6755626000      0.6311076882
   2       0.5997536000      0.4968166032
 G 1 
   1       1.0024600000     -1.0000000000
  end;

 # Auxiliary/J basis set for element : O 
 NewAuxJGTO O 
 S 7 
   1    2876.8216605000      0.0168151159
   2    1004.7443032000      0.0340137548
   3     369.7579954000      0.1194951309
   4     142.9442404000      0.2664627624
   5      57.8366425000      0.4202764046
   6      24.3864983000      0.2765077335
   7      10.6622662000      0.0057008815
 S 1 
   1       4.8070437000     -1.0000000000
 S 1 
   1       2.2210770000      1.0000000000
 S 1 
   1       1.0447795000      1.0000000000
 S 1 
   1       0.4968425000      1.0000000000
 S 1 
   1       0.2371384000      1.0000000000
 P 2 
   1      64.2613382000     -0.2731534179
   2      16.3006076000     -0.8168011598
 P 1 
   1       4.3550542000      1.0000000000
 P 1 
   1       1.2019554000      1.0000000000
 P 1 
   1       0.3354196000      1.0000000000
 D 2 
   1       9.2146611000     -0.4661230638
   2       2.8435251000     -0.6600908911
 D 1 
   1       0.9955759000     -1.0000000000
 D 1 
   1       0.3649441000     -1.0000000000
 F 2 
   1       2.6420115000      0.5931563945
   2       0.7345613000      0.5931563945
 G 1 
   1       1.3931000000     -1.0000000000
  end;



           ************************************************************
           *        Program running with 4 parallel MPI-processes     *
           *              working on a common directory               *
           ************************************************************
------------------------------------------------------------------------------
                           ORCA GTO INTEGRAL CALCULATION
                           -- RI-GTO INTEGRALS CHOSEN --
------------------------------------------------------------------------------
------------------------------------------------------------------------------
                   ___                                                        
                  /   \      - P O W E R E D   B Y -                         
                 /     \                                                     
                 |  |  |   _    _      __       _____    __    __             
                 |  |  |  | |  | |    /  \     |  _  \  |  |  /  |          
                  \  \/   | |  | |   /    \    | | | |  |  | /  /          
                 / \  \   | |__| |  /  /\  \   | |_| |  |  |/  /          
                |  |  |   |  __  | /  /__\  \  |    /   |      \           
                |  |  |   | |  | | |   __   |  |    \   |  |\   \          
                \     /   | |  | | |  |  |  |  | |\  \  |  | \   \       
                 \___/    |_|  |_| |__|  |__|  |_| \__\ |__|  \__/        
                                                                              
                      - O R C A' S   B I G   F R I E N D -                    
                                      &                                       
                       - I N T E G R A L  F E E D E R -                       
                                                                              
 v1 FN, 2020, v2 2021                                                         
------------------------------------------------------------------------------


Reading SHARK input file inpJ.SHARKINP.tmp ... ok
----------------------
SHARK INTEGRAL PACKAGE
----------------------

Number of atoms                             ...     73
Number of basis functions                   ...    509
Number of shells                            ...    335
Maximum angular momentum                    ...      1
Integral batch strategy                     ... SHARK/LIBINT Hybrid
RI-J (if used) integral strategy            ... SPLIT-RIJ (Revised 2003 algorithm where possible)
Printlevel                                  ...      1
Contraction scheme used                     ... SEGMENTED contraction
Coulomb Range Separation                    ... NOT USED
Exchange Range Separation                   ... NOT USED
Finite Nucleus Model                        ... NOT USED
Auxiliary Coulomb fitting basis             ... AVAILABLE
   # of basis functions in Aux-J            ...   1905
   # of shells in Aux-J                     ...    655
   Maximum angular momentum in Aux-J        ...      4
Auxiliary J/K fitting basis                 ... NOT available
Auxiliary Correlation fitting basis         ... NOT available
Auxiliary 'external' fitting basis          ... NOT available
Integral threshold                          ...     3.000000e-11
Primitive cut-off                           ...     1.000000e-12
Primitive pair pre-selection threshold      ...     1.000000e-12

Calculating pre-screening integrals         ... done (  0.0 sec) Dimension = 335
Organizing shell pair data                  ... done (  0.1 sec)
Shell pair information
Total number of shell pairs                 ...     56280
Shell pairs after pre-screening             ...     22188
Total number of primitive shell pairs       ...    145865
Primitive shell pairs kept                  ...     38085
          la=0 lb=0:  11186 shell pairs
          la=1 lb=0:   9110 shell pairs
          la=1 lb=1:   1892 shell pairs

Calculating one electron integrals          ... done (  0.0 sec)
Calculating RI/J V-Matrix + Cholesky decomp.... done (  0.2 sec)
Calculating Nuclear repulsion               ... done (  0.0 sec) ENN=   2796.163202587098 Eh

SHARK setup successfully completed in   0.4 seconds

Maximum memory used throughout the entire GTOINT-calculation: 46.5 MB


           ************************************************************
           *        Program running with 4 parallel MPI-processes     *
           *              working on a common directory               *
           ************************************************************
-------------------------------------------------------------------------------
                                 ORCA SCF
-------------------------------------------------------------------------------

------------
SCF SETTINGS
------------
Hamiltonian:
 Density Functional     Method          .... DFT(GTOs)
 Exchange Functional    Exchange        .... PBE
   PBE kappa parameter   XKappa         ....  0.804000
   PBE mue parameter    XMuePBE         ....  0.219520
 Correlation Functional Correlation     .... PBE
   PBE beta parameter  CBetaPBE         ....  0.066725
 LDA part of GGA corr.  LDAOpt          .... PW91-LDA
 Gradients option       PostSCFGGA      .... off
 Hybrid DFT is turned on
   Fraction HF Exchange ScalHFX         ....  0.250000
   Scaling of DF-GGA-X  ScalDFX         ....  0.750000
   Scaling of DF-GGA-C  ScalDFC         ....  1.000000
   Scaling of DF-LDA-C  ScalLDAC        ....  1.000000
   Perturbative correction              ....  0.000000
   Density functional embedding theory  .... OFF
   NL short-range parameter             ....  6.900000
 RI-approximation to the Coulomb term is turned on
   Number of AuxJ basis functions       .... 1905
   RIJ-COSX (HFX calculated with COS-X)).... on


General Settings:
 Integral files         IntName         .... inpJ
 Hartree-Fock type      HFTyp           .... RHF
 Total Charge           Charge          ....    0
 Multiplicity           Mult            ....    1
 Number of Electrons    NEL             ....  220
 Basis Dimension        Dim             ....  509
 Nuclear Repulsion      ENuc            ....   2796.1632025871 Eh

Convergence Acceleration:
 DIIS                   CNVDIIS         .... on
   Start iteration      DIISMaxIt       ....    12
   Startup error        DIISStart       ....  0.200000
   # of expansion vecs  DIISMaxEq       ....     5
   Bias factor          DIISBfac        ....   1.050
   Max. coefficient     DIISMaxC        ....  10.000
 Trust-Rad. Augm. Hess. CNVTRAH         .... auto
   Auto Start mean grad. ratio tolernc. ....  1.125000
   Auto Start start iteration           ....    20
   Auto Start num. interpolation iter.  ....    10
   Max. Number of Micro iterations      ....    16
   Max. Number of Macro iterations      .... Maxiter - #DIIS iter
   Number of Davidson start vectors     ....     2
   Converg. threshold I  (grad. norm)   ....   1.000e-04
   Converg. threshold II (energy diff.) ....   1.000e-07
   Grad. Scal. Fac. for Micro threshold ....   0.100
   Minimum threshold for Micro iter.    ....   0.010
   NR start threshold (gradient norm)   ....   0.001
   Initial trust radius                 ....   0.400
   Minimum AH scaling param. (alpha)    ....   1.000
   Maximum AH scaling param. (alpha)    .... 1000.000
   Orbital update algorithm             .... Taylor
   White noise on init. David. guess    .... on
   Maximum white noise                  ....   0.010
   Quad. conv. algorithm                .... NR
 SOSCF                  CNVSOSCF        .... off
 Level Shifting         CNVShift        .... on
   Level shift para.    LevelShift      ....    0.2500
   Turn off err/grad.   ShiftErr        ....    0.0010
 Zerner damping         CNVZerner       .... off
 Static damping         CNVDamp         .... on
   Fraction old density DampFac         ....    0.7000
   Max. Damping (<1)    DampMax         ....    0.9800
   Min. Damping (>=0)   DampMin         ....    0.0000
   Turn off err/grad.   DampErr         ....    0.1000
 Fernandez-Rico         CNVRico         .... off

SCF Procedure:
 Maximum # iterations   MaxIter         ....   125
 SCF integral mode      SCFMode         .... Direct
   Integral package                     .... SHARK and LIBINT hybrid scheme
 Reset frequency        DirectResetFreq ....    20
 Integral Threshold     Thresh          ....  3.000e-11 Eh
 Primitive CutOff       TCut            ....  1.000e-12 Eh

Convergence Tolerance:
 Convergence Check Mode ConvCheckMode   .... Total+1el-Energy
 Convergence forced     ConvForced      .... 0
 Energy Change          TolE            ....  1.000e-07 Eh
 1-El. energy change                    ....  1.000e-04 Eh
 DIIS Error             TolErr          ....  1.000e-07


Diagonalization of the overlap matrix:
Smallest eigenvalue                        ... 7.558e-03
Time for diagonalization                   ...    0.029 sec
Threshold for overlap eigenvalues          ... 1.000e-08
Number of eigenvalues below threshold      ... 0
Time for construction of square roots      ...    0.031 sec
Total time needed                          ...    0.060 sec

Time for model grid setup =    0.765 sec

------------------------------
INITIAL GUESS: MODEL POTENTIAL
------------------------------
Loading Hartree-Fock densities                     ... done
Calculating cut-offs                               ... done
Initializing the effective Hamiltonian             ... done
Setting up the integral package (SHARK)            ... done
Starting the Coulomb interaction                   ... done (   0.4 sec)
Reading the grid                                   ... done
Mapping shells                                     ... done
Starting the XC term evaluation                    ... done (   0.1 sec)
  promolecular density results
     # of electrons  =    219.982905334
     EX              =   -164.430949022
     EC              =     -7.326004310
     EX+EC           =   -171.756953331
Transforming the Hamiltonian                       ... done (   0.0 sec)
Diagonalizing the Hamiltonian                      ... done (   0.0 sec)
Back transforming the eigenvectors                 ... done (   0.0 sec)
Now organizing SCF variables                       ... done
                      ------------------
                      INITIAL GUESS DONE (   1.4 sec)
                      ------------------
-------------------
DFT GRID GENERATION
-------------------

General Integration Accuracy     IntAcc      ... 4.388
Radial Grid Type                 RadialGrid  ... OptM3 with GC (2021)
Angular Grid (max. ang.)         AngularGrid ... 4 (Lebedev-302)
Angular grid pruning method      GridPruning ... 4 (adaptive)
Weight generation scheme         WeightScheme... Becke
Basis function cutoff            BFCut       ... 1.0000e-11
Integration weight cutoff        WCut        ... 1.0000e-14
Angular grids for H and He will be reduced by one unit
Partially contracted basis set               ... off
Rotationally invariant grid construction     ... off

Total number of grid points                  ...   309758
Total number of batches                      ...     4877
Average number of points per batch           ...       63
Average number of grid points per atom       ...     4243
Time for grid setup =    2.822 sec

--------------------
COSX GRID GENERATION
--------------------

GRIDX 1
-------
General Integration Accuracy     IntAcc      ... 3.816
Radial Grid Type                 RadialGrid  ... OptM3 with GC (2021)
Angular Grid (max. ang.)         AngularGrid ... 1 (Lebedev-50)
Angular grid pruning method      GridPruning ... 4 (adaptive)
Weight generation scheme         WeightScheme... Becke
Basis function cutoff            BFCut       ... 1.0000e-11
Integration weight cutoff        WCut        ... 1.0000e-14
Angular grids for H and He will be reduced by one unit
Partially contracted basis set               ... on
Rotationally invariant grid construction     ... off

Total number of grid points                  ...    39384
Total number of batches                      ...      657
Average number of points per batch           ...       59
Average number of grid points per atom       ...      540
UseSFitting                                  ... on

GRIDX 2
-------
General Integration Accuracy     IntAcc      ... 4.020
Radial Grid Type                 RadialGrid  ... OptM3 with GC (2021)
Angular Grid (max. ang.)         AngularGrid ... 2 (Lebedev-110)
Angular grid pruning method      GridPruning ... 4 (adaptive)
Weight generation scheme         WeightScheme... Becke
Basis function cutoff            BFCut       ... 1.0000e-11
Integration weight cutoff        WCut        ... 1.0000e-14
Angular grids for H and He will be reduced by one unit
Partially contracted basis set               ... on
Rotationally invariant grid construction     ... off

Total number of grid points                  ...    81353
Total number of batches                      ...     1305
Average number of points per batch           ...       62
Average number of grid points per atom       ...     1114
UseSFitting                                  ... on

GRIDX 3
-------
General Integration Accuracy     IntAcc      ... 4.338
Radial Grid Type                 RadialGrid  ... OptM3 with GC (2021)
Angular Grid (max. ang.)         AngularGrid ... 3 (Lebedev-194)
Angular grid pruning method      GridPruning ... 4 (adaptive)
Weight generation scheme         WeightScheme... Becke
Basis function cutoff            BFCut       ... 1.0000e-11
Integration weight cutoff        WCut        ... 1.0000e-14
Angular grids for H and He will be reduced by one unit
Partially contracted basis set               ... on
Rotationally invariant grid construction     ... off

Total number of grid points                  ...   176168
Total number of batches                      ...     2787
Average number of points per batch           ...       63
Average number of grid points per atom       ...     2413
UseSFitting                                  ... on

Time for X-Grid setup             =    2.830 sec


--------------------
CPCM SOLVATION MODEL
--------------------
CPCM parameters:
  Epsilon                                         ...       4.9000
  Refrac                                          ...       1.4500
  Rsolv                                           ...       1.3000
  Surface type                                    ... GAUSSIAN VDW
  Epsilon function type                           ...         CPCM
Radii:
 Radius for C  used is    3.8550 Bohr (=   2.0400 Ang.)
 Radius for H  used is    2.4944 Bohr (=   1.3200 Ang.)
 Radius for O  used is    3.4469 Bohr (=   1.8240 Ang.)
Calculating surface                               ...        done! (  0.0s)
GEPOL surface points                              ...         3654
GEPOL Volume                                      ...    3617.2089
GEPOL Surface-area                                ...    1794.7127
Calculating surface distance matrix               ...        done! (  0.1s)
Performing Cholesky decomposition & store         ...        done! (  0.4s)
Overall time for CPCM initialization              ...                 0.6s
--------------
SCF ITERATIONS
--------------
ITER       Energy         Delta-E        Max-DP      RMS-DP      [F,P]     Damp
               ***  Starting incremental Fock matrix formation  ***

  HOMO= 109 E= -3.894 eV LUMO=  7.785 eV gap=  11.678 eV
  0  -1165.0080436079   0.000000000000 0.09752838  0.00106070  0.1929428 0.7000

  HOMO= 109 E= -4.738 eV LUMO=  7.090 eV gap=  11.828 eV
  1  -1165.2266654817  -0.218621873815 0.06544125  0.00078114  0.0936983 0.7000
                               ***Turning on DIIS***

  HOMO= 109 E= -5.336 eV LUMO=  6.533 eV gap=  11.868 eV
  2  -1165.3275648942  -0.100899412498 0.10365541  0.00138452  0.0376773 0.0000

  HOMO= 109 E= -5.901 eV LUMO=  5.990 eV gap=  11.892 eV
  3  -1165.4718513086  -0.144286414355 0.05147119  0.00056997  0.0453328 0.0000

  HOMO= 109 E= -5.982 eV LUMO=  5.910 eV gap=  11.892 eV
  4  -1165.5073878066  -0.035536498063 0.01229531  0.00013460  0.0062956 0.0000

  HOMO= 109 E= -5.929 eV LUMO=  5.971 eV gap=  11.899 eV
  5  -1165.5082496139  -0.000861807266 0.00302218  0.00003837  0.0043549 0.0000

  HOMO= 109 E= -5.915 eV LUMO=  5.985 eV gap=  11.899 eV
  6  -1165.5083289648  -0.000079350936 0.00117427  0.00001162  0.0010025 0.0000

  HOMO= 109 E= -5.916 eV LUMO= -0.819 eV gap=   5.097 eV
  7  -1165.5083337364  -0.000004771555 0.00050739  0.00000593  0.0002302 0.0000
               *** Restarting incremental Fock matrix formation ***
                                   *** Resetting DIIS ***

  HOMO= 109 E= -5.916 eV LUMO= -0.818 eV gap=   5.098 eV
  8  -1165.5083887768  -0.000055040437 0.00040063  0.00000277  0.0001229 0.0000

  HOMO= 109 E= -5.916 eV LUMO= -0.818 eV gap=   5.098 eV
  9  -1165.5083888044  -0.000000027516 0.00013637  0.00000126  0.0001555 0.0000

  HOMO= 109 E= -5.916 eV LUMO= -0.818 eV gap=   5.098 eV
 10  -1165.5083889217  -0.000000117344 0.00006350  0.00000039  0.0000375 0.0000

  HOMO= 109 E= -5.916 eV LUMO= -0.818 eV gap=   5.098 eV
 11  -1165.5083889658  -0.000000044054 0.00002456  0.00000017  0.0000210 0.0000

  HOMO= 109 E= -5.916 eV LUMO= -0.818 eV gap=   5.098 eV
 12  -1165.5083889448   0.000000020930 0.00000736  0.00000005  0.0000037 0.0000
                 **** Energy Check signals convergence ****

               *****************************************************
               *                     SUCCESS                       *
               *           SCF CONVERGED AFTER  13 CYCLES          *
               *****************************************************

Old exchange energy                            =    -42.067174298 Eh
New exchange energy                            =    -42.067216476 Eh
Exchange energy change after final integration =     -0.000042179 Eh
Total energy after final integration           =  -1165.508431138 Eh
Final COS-X integration done in                =    13.568 sec

----------------
TOTAL SCF ENERGY
----------------

Total Energy       :        -1165.50843114 Eh          -31715.09678 eV

Components:
Nuclear Repulsion  :         2796.16320259 Eh           76087.46895 eV
Electronic Energy  :        -3961.67163373 Eh         -107802.56573 eV
One Electron Energy:        -7134.37858843 Eh         -194136.31109 eV
Two Electron Energy:         3172.70695470 Eh           86333.74536 eV
Max COSX asymmetry :            0.00000274 Eh               0.00007 eV
CPCM Dielectric    :           -0.01548386 Eh              -0.42134 eV

Virial components:
Potential Energy   :        -2322.40649442 Eh          -63195.89353 eV
Kinetic Energy     :         1156.89806328 Eh           31480.79675 eV
Virial Ratio       :            2.00744263


DFT components:
N(Alpha)           :      110.000375023111 electrons
N(Beta)            :      110.000375023111 electrons
N(Total)           :      220.000750046223 electrons
E(X)               :     -125.744774928259 Eh       
E(C)               :       -7.326849312118 Eh       
E(XC)              :     -133.071624240377 Eh       
DFET-embed. en.    :        0.000000000000 Eh       
CPCM Solvation Model Properties:
Surface-charge          :           -0.03402594
Charge-correction       :           -0.00005209 Eh              -0.00142 eV
Free-energy (cav+disp)  :  This term is not implemented in the current solvation scheme

---------------
SCF CONVERGENCE
---------------

  Last Energy change         ...   -1.4522e-08  Tolerance :   1.0000e-07
  Last MAX-Density change    ...    0.0000e+00  Tolerance :   1.0000e-05
  Last RMS-Density change    ...    0.0000e+00  Tolerance :   1.0000e-06
  Last DIIS Error            ...    2.3446e-06  Tolerance :   1.0000e-07

             **** THE GBW FILE WAS UPDATED (inpJ.gbw) ****
             **** DENSITY inpJ.scfp WAS UPDATED ****
             **** ENERGY FILE WAS UPDATED (inpJ.en.tmp) ****
             **** THE GBW FILE WAS UPDATED (inpJ.gbw) ****
             **** DENSITY inpJ.scfp WAS UPDATED ****
----------------
ORBITAL ENERGIES
----------------

  NO   OCC          E(Eh)            E(eV) 
   0   2.0000     -19.214893      -522.8638 
   1   2.0000     -10.301253      -280.3114 
   2   2.0000     -10.269395      -279.4444 
   3   2.0000     -10.266676      -279.3705 
   4   2.0000     -10.261575      -279.2317 
   5   2.0000     -10.256096      -279.0826 
   6   2.0000     -10.253282      -279.0060 
   7   2.0000     -10.251458      -278.9563 
   8   2.0000     -10.249118      -278.8927 
   9   2.0000     -10.248844      -278.8852 
  10   2.0000     -10.247791      -278.8566 
  11   2.0000     -10.246003      -278.8079 
  12   2.0000     -10.244956      -278.7794 
  13   2.0000     -10.244739      -278.7735 
  14   2.0000     -10.244042      -278.7546 
  15   2.0000     -10.243758      -278.7468 
  16   2.0000     -10.242907      -278.7237 
  17   2.0000     -10.241927      -278.6970 
  18   2.0000     -10.241214      -278.6776 
  19   2.0000     -10.241003      -278.6719 
  20   2.0000     -10.238970      -278.6166 
  21   2.0000     -10.233467      -278.4668 
  22   2.0000     -10.233299      -278.4622 
  23   2.0000     -10.232415      -278.4382 
  24   2.0000     -10.226812      -278.2857 
  25   2.0000     -10.226413      -278.2749 
  26   2.0000     -10.223654      -278.1998 
  27   2.0000     -10.221882      -278.1515 
  28   2.0000     -10.219975      -278.0997 
  29   2.0000      -1.045673       -28.4542 
  30   2.0000      -0.900497       -24.5038 
  31   2.0000      -0.883497       -24.0412 
  32   2.0000      -0.859469       -23.3873 
  33   2.0000      -0.844887       -22.9905 
  34   2.0000      -0.821663       -22.3586 
  35   2.0000      -0.813461       -22.1354 
  36   2.0000      -0.794694       -21.6247 
  37   2.0000      -0.794632       -21.6230 
  38   2.0000      -0.775881       -21.1128 
  39   2.0000      -0.757356       -20.6087 
  40   2.0000      -0.739623       -20.1262 
  41   2.0000      -0.735554       -20.0154 
  42   2.0000      -0.713621       -19.4186 
  43   2.0000      -0.701728       -19.0950 
  44   2.0000      -0.699269       -19.0281 
  45   2.0000      -0.693439       -18.8694 
  46   2.0000      -0.668703       -18.1963 
  47   2.0000      -0.656462       -17.8632 
  48   2.0000      -0.631996       -17.1975 
  49   2.0000      -0.621816       -16.9205 
  50   2.0000      -0.619284       -16.8516 
  51   2.0000      -0.609971       -16.5981 
  52   2.0000      -0.596636       -16.2353 
  53   2.0000      -0.583200       -15.8697 
  54   2.0000      -0.565609       -15.3910 
  55   2.0000      -0.543858       -14.7991 
  56   2.0000      -0.538375       -14.6499 
  57   2.0000      -0.529522       -14.4090 
  58   2.0000      -0.514874       -14.0104 
  59   2.0000      -0.507861       -13.8196 
  60   2.0000      -0.498778       -13.5724 
  61   2.0000      -0.486886       -13.2488 
  62   2.0000      -0.481252       -13.0955 
  63   2.0000      -0.477843       -13.0028 
  64   2.0000      -0.475534       -12.9399 
  65   2.0000      -0.468732       -12.7548 
  66   2.0000      -0.462752       -12.5921 
  67   2.0000      -0.459749       -12.5104 
  68   2.0000      -0.456805       -12.4303 
  69   2.0000      -0.449934       -12.2433 
  70   2.0000      -0.447560       -12.1787 
  71   2.0000      -0.441838       -12.0230 
  72   2.0000      -0.435721       -11.8566 
  73   2.0000      -0.430538       -11.7155 
  74   2.0000      -0.427376       -11.6295 
  75   2.0000      -0.424433       -11.5494 
  76   2.0000      -0.416285       -11.3277 
  77   2.0000      -0.414891       -11.2898 
  78   2.0000      -0.406819       -11.0701 
  79   2.0000      -0.403334       -10.9753 
  80   2.0000      -0.401389       -10.9224 
  81   2.0000      -0.397192       -10.8081 
  82   2.0000      -0.395708       -10.7678 
  83   2.0000      -0.389683       -10.6038 
  84   2.0000      -0.387546       -10.5457 
  85   2.0000      -0.384537       -10.4638 
  86   2.0000      -0.378138       -10.2897 
  87   2.0000      -0.372453       -10.1350 
  88   2.0000      -0.367943       -10.0122 
  89   2.0000      -0.367151        -9.9907 
  90   2.0000      -0.362507        -9.8643 
  91   2.0000      -0.356018        -9.6878 
  92   2.0000      -0.354996        -9.6599 
  93   2.0000      -0.342854        -9.3295 
  94   2.0000      -0.340746        -9.2722 
  95   2.0000      -0.337756        -9.1908 
  96   2.0000      -0.336672        -9.1613 
  97   2.0000      -0.332715        -9.0536 
  98   2.0000      -0.329406        -8.9636 
  99   2.0000      -0.328850        -8.9485 
 100   2.0000      -0.325827        -8.8662 
 101   2.0000      -0.321731        -8.7548 
 102   2.0000      -0.316500        -8.6124 
 103   2.0000      -0.314978        -8.5710 
 104   2.0000      -0.310847        -8.4586 
 105   2.0000      -0.299272        -8.1436 
 106   2.0000      -0.279847        -7.6150 
 107   2.0000      -0.274667        -7.4741 
 108   2.0000      -0.256354        -6.9758 
 109   2.0000      -0.217417        -5.9162 
 110   0.0000      -0.030074        -0.8184 
 111   0.0000       0.021591         0.5875 
 112   0.0000       0.026596         0.7237 
 113   0.0000       0.079453         2.1620 
 114   0.0000       0.089659         2.4398 
 115   0.0000       0.101268         2.7556 
 116   0.0000       0.102500         2.7892 
 117   0.0000       0.108099         2.9415 
 118   0.0000       0.109811         2.9881 
 119   0.0000       0.113998         3.1020 
 120   0.0000       0.118725         3.2307 
 121   0.0000       0.119980         3.2648 
 122   0.0000       0.128258         3.4901 
 123   0.0000       0.131602         3.5811 
 124   0.0000       0.137981         3.7546 
 125   0.0000       0.139934         3.8078 
 126   0.0000       0.140718         3.8291 
 127   0.0000       0.141915         3.8617 
 128   0.0000       0.146687         3.9916 
 129   0.0000       0.148321         4.0360 
 130   0.0000       0.154144         4.1945 
 131   0.0000       0.157930         4.2975 
 132   0.0000       0.160602         4.3702 
 133   0.0000       0.162572         4.4238 
 134   0.0000       0.165075         4.4919 
 135   0.0000       0.169176         4.6035 
 136   0.0000       0.170040         4.6270 
 137   0.0000       0.173100         4.7103 
 138   0.0000       0.175481         4.7751 
 139   0.0000       0.181640         4.9427 
 140   0.0000       0.183953         5.0056 
 141   0.0000       0.185077         5.0362 
 142   0.0000       0.186756         5.0819 
 143   0.0000       0.191084         5.1997 
 144   0.0000       0.192791         5.2461 
 145   0.0000       0.194544         5.2938 
 146   0.0000       0.198338         5.3970 
 147   0.0000       0.202722         5.5163 
 148   0.0000       0.204777         5.5723 
 149   0.0000       0.210910         5.7391 
 150   0.0000       0.217399         5.9157 
 151   0.0000       0.221919         6.0387 
 152   0.0000       0.223966         6.0944 
 153   0.0000       0.228982         6.2309 
 154   0.0000       0.236256         6.4289 
 155   0.0000       0.238278         6.4839 
 156   0.0000       0.244358         6.6493 
 157   0.0000       0.247737         6.7413 
 158   0.0000       0.249751         6.7961 
 159   0.0000       0.254521         6.9259 
 160   0.0000       0.259084         7.0500 
 161   0.0000       0.261150         7.1063 
 162   0.0000       0.261634         7.1194 
 163   0.0000       0.263864         7.1801 
 164   0.0000       0.271547         7.3892 
 165   0.0000       0.274294         7.4639 
 166   0.0000       0.278752         7.5852 
 167   0.0000       0.287844         7.8326 
 168   0.0000       0.292241         7.9523 
 169   0.0000       0.294588         8.0162 
 170   0.0000       0.296465         8.0672 
 171   0.0000       0.300784         8.1848 
 172   0.0000       0.305544         8.3143 
 173   0.0000       0.316124         8.6022 
 174   0.0000       0.322885         8.7861 
 175   0.0000       0.325879         8.8676 
 176   0.0000       0.330248         8.9865 
 177   0.0000       0.334576         9.1043 
 178   0.0000       0.351945         9.5769 
 179   0.0000       0.358330         9.7506 
 180   0.0000       0.367356         9.9963 
 181   0.0000       0.379793        10.3347 
 182   0.0000       0.383112        10.4250 
 183   0.0000       0.413608        11.2549 
 184   0.0000       0.420504        11.4425 
 185   0.0000       0.463632        12.6161 
 186   0.0000       0.472136        12.8475 
 187   0.0000       0.493023        13.4158 
 188   0.0000       0.506621        13.7858 
 189   0.0000       0.521850        14.2003 
 190   0.0000       0.524690        14.2775 
 191   0.0000       0.534674        14.5492 
 192   0.0000       0.543133        14.7794 
 193   0.0000       0.547294        14.8926 
 194   0.0000       0.564619        15.3641 
 195   0.0000       0.574224        15.6254 
 196   0.0000       0.581464        15.8225 
 197   0.0000       0.582970        15.8634 
 198   0.0000       0.587328        15.9820 
 199   0.0000       0.596854        16.2412 
 200   0.0000       0.607519        16.5314 
 201   0.0000       0.611357        16.6359 
 202   0.0000       0.625888        17.0313 
 203   0.0000       0.627301        17.0697 
 204   0.0000       0.637652        17.3514 
 205   0.0000       0.644557        17.5393 
 206   0.0000       0.646993        17.6056 
 207   0.0000       0.654566        17.8116 
 208   0.0000       0.661872        18.0104 
 209   0.0000       0.666025        18.1235 
 210   0.0000       0.671128        18.2623 
 211   0.0000       0.678302        18.4575 
 212   0.0000       0.695027        18.9127 
 213   0.0000       0.699338        19.0300 
 214   0.0000       0.702424        19.1139 
 215   0.0000       0.706903        19.2358 
 216   0.0000       0.711742        19.3675 
 217   0.0000       0.713418        19.4131 
 218   0.0000       0.722405        19.6576 
 219   0.0000       0.726048        19.7568 
 220   0.0000       0.728199        19.8153 
 221   0.0000       0.730469        19.8771 
 222   0.0000       0.737672        20.0731 
 223   0.0000       0.738800        20.1038 
 224   0.0000       0.745642        20.2899 
 225   0.0000       0.748783        20.3754 
 226   0.0000       0.750160        20.4129 
 227   0.0000       0.756913        20.5966 
 228   0.0000       0.757299        20.6072 
 229   0.0000       0.765677        20.8351 
 230   0.0000       0.772562        21.0225 
 231   0.0000       0.775874        21.1126 
 232   0.0000       0.778289        21.1783 
 233   0.0000       0.785189        21.3661 
 234   0.0000       0.789578        21.4855 
 235   0.0000       0.795309        21.6414 
 236   0.0000       0.801587        21.8123 
 237   0.0000       0.805598        21.9214 
 238   0.0000       0.809042        22.0152 
 239   0.0000       0.817483        22.2448 
 240   0.0000       0.822933        22.3931 
 241   0.0000       0.828110        22.5340 
 242   0.0000       0.834024        22.6949 
 243   0.0000       0.840406        22.8686 
 244   0.0000       0.855914        23.2906 
 245   0.0000       0.858119        23.3506 
 246   0.0000       0.863352        23.4930 
 247   0.0000       0.866129        23.5686 
 248   0.0000       0.867859        23.6156 
 249   0.0000       0.871427        23.7127 
 250   0.0000       0.876103        23.8400 
 251   0.0000       0.876843        23.8601 
 252   0.0000       0.877858        23.8877 
 253   0.0000       0.879768        23.9397 
 254   0.0000       0.881434        23.9850 
 255   0.0000       0.882623        24.0174 
 256   0.0000       0.888576        24.1794 
 257   0.0000       0.888966        24.1900 
 258   0.0000       0.894851        24.3501 
 259   0.0000       0.900634        24.5075 
 260   0.0000       0.902710        24.5640 
 261   0.0000       0.908001        24.7080 
 262   0.0000       0.910231        24.7686 
 263   0.0000       0.918253        24.9869 
 264   0.0000       0.919965        25.0335 
 265   0.0000       0.922837        25.1117 
 266   0.0000       0.928799        25.2739 
 267   0.0000       0.930885        25.3307 
 268   0.0000       0.938464        25.5369 
 269   0.0000       0.941417        25.6173 
 270   0.0000       0.944526        25.7019 
 271   0.0000       0.948223        25.8025 
 272   0.0000       0.950159        25.8551 
 273   0.0000       0.955436        25.9987 
 274   0.0000       0.960907        26.1476 
 275   0.0000       0.967351        26.3230 
 276   0.0000       0.970297        26.4031 
 277   0.0000       0.974453        26.5162 
 278   0.0000       0.983950        26.7746 
 279   0.0000       0.993118        27.0241 
 280   0.0000       0.999742        27.2044 
 281   0.0000       1.004450        27.3325 
 282   0.0000       1.009643        27.4738 
 283   0.0000       1.019679        27.7469 
 284   0.0000       1.020947        27.7814 
 285   0.0000       1.027761        27.9668 
 286   0.0000       1.043815        28.4036 
 287   0.0000       1.055082        28.7102 
 288   0.0000       1.063957        28.9517 
 289   0.0000       1.068540        29.0764 
 290   0.0000       1.073225        29.2040 
 291   0.0000       1.076577        29.2951 
 292   0.0000       1.082172        29.4474 
 293   0.0000       1.092581        29.7306 
 294   0.0000       1.101716        29.9792 
 295   0.0000       1.115148        30.3447 
 296   0.0000       1.127770        30.6882 
 297   0.0000       1.140570        31.0365 
 298   0.0000       1.142864        31.0989 
 299   0.0000       1.155080        31.4313 
 300   0.0000       1.168347        31.7923 
 301   0.0000       1.173626        31.9360 
 302   0.0000       1.185092        32.2480 
 303   0.0000       1.214201        33.0401 
 304   0.0000       1.233646        33.5692 
 305   0.0000       1.243545        33.8386 
 306   0.0000       1.254106        34.1260 
 307   0.0000       1.259725        34.2788 
 308   0.0000       1.283706        34.9314 
 309   0.0000       1.303380        35.4668 
 310   0.0000       1.323226        36.0068 
 311   0.0000       1.336101        36.3572 
 312   0.0000       1.369658        37.2703 
 313   0.0000       1.372333        37.3431 
 314   0.0000       1.405695        38.2509 
 315   0.0000       1.491835        40.5949 
 316   0.0000       1.525839        41.5202 
 317   0.0000       1.563403        42.5424 
 318   0.0000       1.606131        43.7051 
 319   0.0000       1.657305        45.0976 
 320   0.0000       6.207933       168.9265 
 321   0.0000       6.239958       169.7979 
 322   0.0000       6.266788       170.5280 
 323   0.0000       6.268076       170.5630 
 324   0.0000       6.279807       170.8822 
 325   0.0000       6.289875       171.1562 
 326   0.0000       6.296178       171.3277 
 327   0.0000       6.308221       171.6554 
 328   0.0000       6.314770       171.8336 
 329   0.0000       6.335908       172.4088 
 330   0.0000       6.341724       172.5671 
 331   0.0000       6.350386       172.8028 
 332   0.0000       6.354756       172.9217 
 333   0.0000       6.366244       173.2343 
 334   0.0000       6.384204       173.7230 
 335   0.0000       6.391557       173.9231 
 336   0.0000       6.397148       174.0753 
 337   0.0000       6.416306       174.5966 
 338   0.0000       6.420990       174.7240 
 339   0.0000       6.427999       174.9147 
 340   0.0000       6.433478       175.0638 
 341   0.0000       6.443608       175.3395 
 342   0.0000       6.454530       175.6367 
 343   0.0000       6.457009       175.7042 
 344   0.0000       6.467938       176.0015 
 345   0.0000       6.478240       176.2819 
 346   0.0000       6.481582       176.3728 
 347   0.0000       6.505673       177.0284 
 348   0.0000       6.509247       177.1256 
 349   0.0000       6.516951       177.3353 
 350   0.0000       6.521949       177.4712 
 351   0.0000       6.528872       177.6596 
 352   0.0000       6.539629       177.9524 
 353   0.0000       6.542019       178.0174 
 354   0.0000       6.542700       178.0359 
 355   0.0000       6.551583       178.2776 
 356   0.0000       6.554327       178.3523 
 357   0.0000       6.558012       178.4526 
 358   0.0000       6.562462       178.5737 
 359   0.0000       6.580036       179.0519 
 360   0.0000       6.585162       179.1914 
 361   0.0000       6.587296       179.2494 
 362   0.0000       6.594672       179.4502 
 363   0.0000       6.603110       179.6798 
 364   0.0000       6.605271       179.7386 
 365   0.0000       6.607545       179.8004 
 366   0.0000       6.611090       179.8969 
 367   0.0000       6.612367       179.9316 
 368   0.0000       6.619366       180.1221 
 369   0.0000       6.621771       180.1875 
 370   0.0000       6.622340       180.2030 
 371   0.0000       6.625657       180.2933 
 372   0.0000       6.632196       180.4712 
 373   0.0000       6.635428       180.5592 
 374   0.0000       6.641579       180.7265 
[...]
     69 H        0.000      0.000      0.000      0.000      0.000      0.000
     70 H        0.000      0.000      0.000      0.000      0.003      0.036
     71 H        0.000      0.000      0.000     -0.000      0.001      0.019
     72 H        0.000      0.000      0.000      0.000      0.001      0.015
                 25 H       27 H       28 H       30 H       31 H       33 H  
      3 H        2.551     -0.103      0.059      0.000      0.000      2.447
      4 H        0.119     -0.004      0.003      0.000      0.000      0.104
      8 H       -0.351      0.011      0.000      0.000      0.000     -0.319
      9 H        0.000      0.000      0.000      0.000      0.000      0.133
     10 H        0.000      0.000      0.000      0.000      0.000      0.000
     11 H        0.000      0.000      0.000      0.000      0.000      0.000
     13 H       -0.103      0.004     -0.003      0.000      0.000     -0.105
     16 H       -0.381      0.012     -0.005     -0.021     -0.001     -0.349
     17 H       -0.378      0.011      0.000      0.000      0.000     -0.329
     19 H        0.973     -0.048      0.017      0.087      0.007      1.180
     21 H       -2.896      0.192      0.648     -0.213     -0.027     -2.644
     24 H      -14.163      4.411      2.228      0.731     -0.504     -0.158
     25 H        0.000     12.982      5.371     -0.639     -0.349     -2.438
     27 H       12.982      0.000    -13.647      3.999     12.996      0.070
     28 H        5.371    -13.647      0.000      2.652      4.124      0.280
     30 H       -0.639      3.999      2.652      0.000    -12.966      0.017
     31 H       -0.349     12.996      4.124    -12.966      0.000     -0.326
     33 H       -2.438      0.070      0.280      0.017     -0.326      0.000
     35 H        0.000      0.000      0.000      0.000      0.000      0.000
     37 H        0.267      0.007     -0.034      0.535     -0.040      6.283
     38 H        0.204      0.002     -0.030     -0.020      0.120     12.232
     40 H       -0.014      0.022      0.137     -0.001     -0.037     -0.238
     41 H        0.013      0.019     -0.029      0.012      0.088     -0.389
     42 H       -0.019      0.007     -0.003     -0.265     -0.388     -0.201
     45 H       -0.017     -0.209      0.038     -0.202     -0.474     -0.144
     46 H        0.014      0.036      0.064     -0.321      0.044      0.948
     47 H       -0.060     -0.116     -0.143     -0.165      1.824     -0.465
     48 H       -0.016      0.030      0.021      0.035      0.017     -0.004
     52 H       -0.002     -0.001      0.009     -0.009      0.003      0.017
     53 H       -0.000      0.000     -0.001      0.000     -0.000     -0.002
     57 H        0.000      0.000      0.000      0.001      0.001     -0.000
     58 H        0.000      0.000      0.000      0.000      0.000     -0.000
     61 H        0.000      0.000      0.000      0.000      0.000      0.000
     62 H        0.000      0.000      0.000      0.000      0.000      0.000
     63 H        0.000      0.000      0.000      0.000     -0.000     -0.000
     64 H        0.000      0.000      0.000      0.000     -0.000     -0.000
     65 H        0.000      0.000      0.000     -0.000     -0.000     -0.000
     66 H       -0.000      0.000      0.000      0.000      0.000     -0.000
     67 H        0.000      0.000      0.000      0.000     -0.000     -0.000
     68 H        0.000      0.000      0.000      0.000      0.000      0.000
     69 H        0.000      0.000      0.000      0.000      0.000     -0.000
     70 H        0.000     -0.008     -0.010      0.049     -0.058      0.007
     71 H        0.003     -0.003     -0.007     -0.451     -0.096      0.004
     72 H        0.000     -0.004     -0.005      0.038      0.001      0.002
                 35 H       37 H       38 H       40 H       41 H       42 H  
      3 H       -0.077     -0.043     -0.041      0.000      0.000      0.000
      4 H       -0.165     -0.002     -0.002      0.000      0.000      0.000
      8 H        0.021      0.006      0.004      0.000      0.001      0.000
      9 H       -0.092     -0.002     -0.001      0.000     -0.000      0.000
     10 H       -0.181      0.000     -0.002      0.000      0.000      0.000
     11 H       -0.101     -0.000     -0.000      0.000      0.000      0.000
     13 H       13.732      0.002      0.002      0.000      0.000      0.000
     16 H        0.005      0.007      0.002     -0.001      0.001     -0.001
     17 H        0.007      0.005      0.005     -0.000      0.002      0.000
     19 H       -0.005     -0.007      0.115      0.004     -0.010      0.007
     21 H       -0.004      0.029     -0.511     -0.010      0.059     -0.026
     24 H       -0.001     -0.049     -0.079     -0.021      0.072     -0.025
     25 H        0.000      0.267      0.204     -0.014      0.013     -0.019
     27 H        0.000      0.007      0.002      0.022      0.019      0.007
     28 H        0.000     -0.034     -0.030      0.137     -0.029     -0.003
     30 H        0.000      0.535     -0.020     -0.001      0.012     -0.265
     31 H        0.000     -0.040      0.120     -0.037      0.088     -0.388
     33 H        0.000      6.283     12.232     -0.238     -0.389     -0.201
     35 H        0.000      0.000      0.000      0.000      0.000      0.000
     37 H        0.000      0.000    -12.100      9.437      2.291     -0.248
     38 H        0.000    -12.100      0.000      7.201     11.285     -0.464
     40 H        0.000      9.437      7.201      0.000    -13.849      9.609
     41 H        0.000      2.291     11.285    -13.849      0.000      8.163
     42 H        0.000     -0.248     -0.464      9.609      8.163      0.000
     45 H        0.000      0.059      0.038     -0.072      0.015      0.954
     46 H        0.000     -0.159      0.011      0.043      0.035     -0.403
     47 H        0.000      0.089     -0.072     -0.111     -0.037     -0.119
     48 H        0.000      0.135      0.006     -0.154     -0.446     10.684
     52 H        0.000     -0.008     -0.004     -0.021      0.080     -0.560
     53 H        0.000      0.011      0.020     -0.160     -0.039     -0.423
     57 H        0.000      0.001      0.005     -0.012     -0.003      0.054
     58 H        0.000     -0.001     -0.001      0.014     -0.001     -0.007
     61 H        0.000      0.000      0.000      0.000      0.000      0.000
     62 H        0.000      0.000      0.000     -0.001     -0.001     -0.000
     63 H        0.000      0.000      0.000      0.004      0.006     -0.004
     64 H        0.000     -0.000     -0.000     -0.013     -0.002     -0.002
     65 H        0.000     -0.001     -0.000     -0.018     -0.003     -0.000
     66 H        0.000     -0.001     -0.001     -0.113     -0.015     -0.001
     67 H        0.000      0.000      0.001     -0.036     -0.039      0.001
     68 H        0.000      0.000      0.001     -0.008     -0.007      0.001
     69 H        0.000     -0.000     -0.000     -0.006     -0.006      0.002
     70 H        0.000      0.059      0.011     -0.042     -0.015     -0.437
     71 H        0.000     -0.017     -0.002      0.034     -0.004     -0.165
     72 H        0.000     -0.024      0.032     -0.002     -0.071     -0.350
                 45 H       46 H       47 H       48 H       52 H       53 H  
      3 H       -0.021      0.000      0.000      0.000      0.000      0.000
      4 H       -0.001     -0.001      0.001      0.000      0.000      0.000
      8 H        0.002      0.002     -0.003      0.000      0.000      0.000
      9 H       -0.001      0.000      0.001      0.000      0.000      0.000
     10 H       -0.001      0.000      0.000      0.000      0.000      0.000
     11 H       -0.000      0.000      0.000      0.000      0.000      0.000
     13 H        0.001      0.001     -0.001      0.000      0.000      0.000
     16 H        0.002      0.002     -0.004      0.000      0.000      0.000
     17 H        0.003      0.000     -0.004      0.000      0.000      0.000
     19 H       -0.010     -0.008      0.011      0.006      0.000      0.000
     21 H        0.033      0.015     -0.016     -0.017      0.003     -0.000
     24 H       -0.023     -0.016     -0.023      0.003      0.000     -0.000
     25 H       -0.017      0.014     -0.060     -0.016     -0.002     -0.000
     27 H       -0.209      0.036     -0.116      0.030     -0.001      0.000
     28 H        0.038      0.064     -0.143      0.021      0.009     -0.001
     30 H       -0.202     -0.321     -0.165      0.035     -0.009      0.000
     31 H       -0.474      0.044      1.824      0.017      0.003     -0.000
     33 H       -0.144      0.948     -0.465     -0.004      0.017     -0.002
     35 H        0.000      0.000      0.000      0.000      0.000      0.000
     37 H        0.059     -0.159      0.089      0.135     -0.008      0.011
     38 H        0.038      0.011     -0.072      0.006     -0.004      0.020
     40 H       -0.072      0.043     -0.111     -0.154     -0.021     -0.160
     41 H        0.015      0.035     -0.037     -0.446      0.080     -0.039
     42 H        0.954     -0.403     -0.119     10.684     -0.560     -0.423
     45 H        0.000    -12.945    -13.630     -0.150      0.017      0.005
     46 H      -12.945      0.000    -12.971     -0.053      0.010     -0.004
     47 H      -13.630    -12.971      0.000     -0.233      0.017      0.000
     48 H       -0.150     -0.053     -0.233      0.000      6.063     -1.932
     52 H        0.017      0.010      0.017      6.063      0.000     16.786
     53 H        0.005     -0.004      0.000     -1.932     16.786      0.000
     57 H        0.000     -0.001     -0.000      0.128     -0.685     10.226
     58 H        0.000      0.000      0.000      0.226      0.159     -0.388
     61 H        0.000     -0.000     -0.000     -0.059      0.133     -0.174
     62 H        0.000      0.000     -0.000     -0.052      0.045     -0.328
     63 H        0.000      0.000      0.000      0.119     -0.342     -0.056
     64 H        0.000      0.000     -0.000     -0.000      0.146     -0.015
     65 H        0.000      0.000     -0.000      0.016     -0.013     -0.002
     66 H        0.000      0.000     -0.000     -0.014      0.104     -0.049
     67 H       -0.000     -0.000     -0.000     -0.017      0.036      0.015
     68 H        0.000     -0.000     -0.000      0.003      0.007     -0.006
     69 H        0.000      0.000     -0.000     -0.019      0.048     -0.039
     70 H       -0.029     -0.018     -0.010      1.864     -0.204     -0.043
     71 H       -0.074     -0.292     -0.022      5.626     -0.051     -0.412
     72 H       -0.036     -0.054      0.025     12.343     -0.238      0.138
                 57 H       58 H       61 H       62 H       63 H       64 H  
      3 H        0.000      0.000      0.000      0.000      0.000      0.000
      4 H        0.000      0.000      0.000      0.000      0.000      0.000
      8 H        0.000      0.000      0.000      0.000      0.000      0.000
      9 H        0.000      0.000      0.000      0.000      0.000      0.000
     10 H        0.000      0.000      0.000      0.000      0.000      0.000
     11 H        0.000      0.000      0.000      0.000      0.000      0.000
     13 H        0.000      0.000      0.000      0.000      0.000      0.000
     16 H        0.000      0.000      0.000      0.000      0.000      0.000
     17 H        0.000      0.000      0.000      0.000      0.000      0.000
     19 H        0.000      0.000      0.000      0.000      0.000      0.000
     21 H        0.000      0.000      0.000      0.000      0.000      0.000
     24 H        0.000      0.000      0.000      0.000      0.000      0.000
     25 H        0.000      0.000      0.000      0.000      0.000      0.000
     27 H        0.000      0.000      0.000      0.000      0.000      0.000
     28 H        0.000      0.000      0.000      0.000      0.000      0.000
     30 H        0.001      0.000      0.000      0.000      0.000      0.000
     31 H        0.001      0.000      0.000      0.000     -0.000     -0.000
     33 H       -0.000     -0.000      0.000      0.000     -0.000     -0.000
     35 H        0.000      0.000      0.000      0.000      0.000      0.000
     37 H        0.001     -0.001      0.000      0.000      0.000     -0.000
     38 H        0.005     -0.001      0.000      0.000      0.000     -0.000
     40 H       -0.012      0.014      0.000     -0.001      0.004     -0.013
     41 H       -0.003     -0.001      0.000     -0.001      0.006     -0.002
     42 H        0.054     -0.007      0.000     -0.000     -0.004     -0.002
     45 H        0.000      0.000      0.000      0.000      0.000      0.000
     46 H       -0.001      0.000     -0.000      0.000      0.000      0.000
     47 H       -0.000      0.000     -0.000     -0.000      0.000     -0.000
     48 H        0.128      0.226     -0.059     -0.052      0.119     -0.000
     52 H       -0.685      0.159      0.133      0.045     -0.342      0.146
     53 H       10.226     -0.388     -0.174     -0.328     -0.056     -0.015
     57 H        0.000      2.904      4.801     12.992      2.450      0.516
     58 H        2.904      0.000     -0.229     -0.258     -0.325      3.921
     61 H        4.801     -0.229      0.000    -13.027    -12.506     -0.092
     62 H       12.992     -0.258    -13.027      0.000    -12.336     -0.100
     63 H        2.450     -0.325    -12.506    -12.336      0.000      0.047
     64 H        0.516      3.921     -0.092     -0.100      0.047      0.000
     65 H       -0.451      2.966     -0.122     -0.291      0.009    -13.058
     66 H       -0.532     13.280      0.053      0.029      0.033    -13.156
     67 H       -0.272     13.087     -0.052      0.031      0.021     -0.225
     68 H       -0.320      3.153      0.007      0.040      0.056     -0.046
     69 H       -0.071      3.632      0.578     -0.065      0.022     -0.220
     70 H        0.005     -0.006     -0.003     -0.003      0.019     -0.001
     71 H        0.028     -0.021     -0.020     -0.023      0.181      0.000
     72 H       -0.006      0.000      0.002      0.002     -0.028      0.000
                 65 H       66 H       67 H       68 H       69 H       70 H  
      3 H        0.000      0.000      0.000      0.000      0.000      0.000
      4 H        0.000      0.000      0.000      0.000      0.000      0.000
      8 H        0.000      0.000      0.000      0.000      0.000      0.000
      9 H        0.000      0.000      0.000      0.000      0.000      0.000
     10 H        0.000      0.000      0.000      0.000      0.000      0.000
     11 H        0.000      0.000      0.000      0.000      0.000      0.000
     13 H        0.000      0.000      0.000      0.000      0.000      0.000
     16 H        0.000      0.000      0.000      0.000      0.000      0.000
     17 H        0.000      0.000      0.000      0.000      0.000      0.000
     19 H        0.000      0.000      0.000      0.000      0.000      0.000
     21 H        0.000     -0.000     -0.000      0.000      0.000      0.003
     24 H        0.000      0.000      0.000      0.000      0.000      0.036
     25 H        0.000     -0.000      0.000      0.000      0.000      0.000
     27 H        0.000      0.000      0.000      0.000      0.000     -0.008
     28 H        0.000      0.000      0.000      0.000      0.000     -0.010
     30 H       -0.000      0.000      0.000      0.000      0.000      0.049
     31 H       -0.000      0.000     -0.000      0.000      0.000     -0.058
     33 H       -0.000     -0.000     -0.000      0.000     -0.000      0.007
     35 H        0.000      0.000      0.000      0.000      0.000      0.000
     37 H       -0.001     -0.001      0.000      0.000     -0.000      0.059
     38 H       -0.000     -0.001      0.001      0.001     -0.000      0.011
     40 H       -0.018     -0.113     -0.036     -0.008     -0.006     -0.042
     41 H       -0.003     -0.015     -0.039     -0.007     -0.006     -0.015
     42 H       -0.000     -0.001      0.001      0.001      0.002     -0.437
     45 H        0.000      0.000     -0.000      0.000      0.000     -0.029
     46 H        0.000      0.000     -0.000     -0.000      0.000     -0.018
     47 H       -0.000     -0.000     -0.000     -0.000     -0.000     -0.010
     48 H        0.016     -0.014     -0.017      0.003     -0.019      1.864
     52 H       -0.013      0.104      0.036      0.007      0.048     -0.204
     53 H       -0.002     -0.049      0.015     -0.006     -0.039     -0.043
     57 H       -0.451     -0.532     -0.272     -0.320     -0.071      0.005
     58 H        2.966     13.280     13.087      3.153      3.632     -0.006
     61 H       -0.122      0.053     -0.052      0.007      0.578     -0.003
     62 H       -0.291      0.029      0.031      0.040     -0.065     -0.003
     63 H        0.009      0.033      0.021      0.056      0.022      0.019
     64 H      -13.058    -13.156     -0.225     -0.046     -0.220     -0.001
     65 H        0.000    -12.100     -0.291      2.929     -0.033      0.000
     66 H      -12.100      0.000     -0.329     -0.226     -0.190      0.000
     67 H       -0.291     -0.329      0.000    -12.516    -12.518      0.001
     68 H        2.929     -0.226    -12.516      0.000    -12.387     -0.000
     69 H       -0.033     -0.190    -12.518    -12.387      0.000     -0.001
     70 H        0.000      0.000      0.001     -0.000     -0.001      0.000
     71 H        0.002     -0.001      0.005     -0.001      0.000    -13.388
     72 H       -0.001      0.001      0.001     -0.000      0.002    -12.987
                 71 H       72 H  
      3 H        0.000      0.000
      4 H        0.000      0.000
      8 H        0.000      0.000
      9 H        0.000      0.000
     10 H        0.000      0.000
     11 H        0.000      0.000
     13 H        0.000      0.000
     16 H        0.000      0.000
     17 H        0.000      0.000
     19 H       -0.000      0.000
     21 H        0.001      0.001
     24 H        0.019      0.015
     25 H        0.003      0.000
     27 H       -0.003     -0.004
     28 H       -0.007     -0.005
     30 H       -0.451      0.038
     31 H       -0.096      0.001
     33 H        0.004      0.002
     35 H        0.000      0.000
     37 H       -0.017     -0.024
     38 H       -0.002      0.032
     40 H        0.034     -0.002
     41 H       -0.004     -0.071
     42 H       -0.165     -0.350
     45 H       -0.074     -0.036
     46 H       -0.292     -0.054
     47 H       -0.022      0.025
     48 H        5.626     12.343
     52 H       -0.051     -0.238
     53 H       -0.412      0.138
     57 H        0.028     -0.006
     58 H       -0.021      0.000
     61 H       -0.020      0.002
     62 H       -0.023      0.002
     63 H        0.181     -0.028
     64 H        0.000      0.000
     65 H        0.002     -0.001
     66 H       -0.001      0.001
     67 H        0.005      0.001
     68 H       -0.001     -0.000
     69 H        0.000      0.002
     70 H      -13.388    -12.987
     71 H        0.000    -11.536
     72 H      -11.536      0.000

Maximum memory used throughout the entire EPRNMR-calculation: 968.3 MB

Timings for individual modules:

Sum of individual times         ...      411.984 sec (=   6.866 min)
GTO integral calculation        ...        0.572 sec (=   0.010 min)   0.1 %
SCF iterations                  ...      104.591 sec (=   1.743 min)  25.4 %
EPR/NMR calculation             ...      306.821 sec (=   5.114 min)  74.5 %
                             ****ORCA TERMINATED NORMALLY****
TOTAL RUN TIME: 0 days 0 hours 6 minutes 52 seconds 350 msec
