
                                 *****************
                                 * O   R   C   A *
                                 *****************

                                            #,                                       
                                            ###                                      
                                            ####                                     
                                            #####                                    
                                            ######                                   
                                           ########,                                 
                                     ,,################,,,,,                         
                               ,,#################################,,                 
                          ,,##########################################,,             
                       ,#########################################, ''#####,          
                    ,#############################################,,   '####,        
                  ,##################################################,,,,####,       
                ,###########''''           ''''###############################       
              ,#####''   ,,,,##########,,,,          '''####'''          '####       
            ,##' ,,,,###########################,,,                        '##       
           ' ,,###''''                  '''############,,,                           
         ,,##''                                '''############,,,,        ,,,,,,###''
      ,#''                                            '''#######################'''  
     '                                                          ''''####''''         
             ,#######,   #######,   ,#######,      ##                                
            ,#'     '#,  ##    ##  ,#'     '#,    #''#        ,####,   ,####,        
            ##       ##  ##   ,#'  ##            #'  '#       #'       #'  '#        
            ##       ##  #######   ##           ,######,      #####,   #    #        
            '#,     ,#'  ##    ##  '#,     ,#' ,#      #,     #,   #   #,  ,#        
             '#######'   ##     ##  '#######'  #'      '#     '####' # '####'        



                #########################################################
                #                        -***-                          #
                #          Department of theory and spectroscopy        #
                #                                                       #
                #                      Frank Neese                      #
                #                                                       #
                #     Directorship, Architecture, Infrastructure        #
                #                    SHARK, DRIVERS                     #
                #        Core code/Algorithms in most modules           #
                #                                                       #
                #        Max Planck Institute fuer Kohlenforschung      #
                #                Kaiser Wilhelm Platz 1                 #
                #                 D-45470 Muelheim/Ruhr                 #
                #                      Germany                          #
                #                                                       #
                #                  All rights reserved                  #
                #                        -***-                          #
                #########################################################


                         Program Version 6.0.0  -   RELEASE  -


 With contributions from (in alphabetic order):
   Daniel Aravena         : Magnetic Suceptibility
   Michael Atanasov       : Ab Initio Ligand Field Theory (pilot matlab implementation)
   Alexander A. Auer      : GIAO ZORA, VPT2 properties, NMR spectrum
   Ute Becker             : All parallelization in ORCA, NUMFREQ, NUMCALC
   Giovanni Bistoni       : ED, misc. LED, open-shell LED, HFLD
   Martin Brehm           : Molecular dynamics
   Dmytro Bykov           : pre 5.0 version of the SCF Hessian
   Marcos Casanova-Páez   : Triplet and SCS-CIS(D). UHF-(DLPNO)-IP/EA/STEOM-CCSD. UHF-CVS-IP/STEOM-CCSD
   Vijay G. Chilkuri      : MRCI spin determinant printing, contributions to CSF-ICE
   Pauline Colinet        : FMM embedding
   Dipayan Datta          : RHF DLPNO-CCSD density
   Achintya Kumar Dutta   : EOM-CC, STEOM-CC
   Nicolas Foglia         : Exact transition moments, OPA infrastructure, MCD improvements
   Dmitry Ganyushin       : Spin-Orbit,Spin-Spin,Magnetic field MRCI
   Miquel Garcia          : C-PCM and meta-GGA Hessian, CCSD/C-PCM, Gaussian charge scheme
   Tiago L. C. Gouveia    : GS-ROHF, GS-ROCIS
   Yang Guo               : DLPNO-NEVPT2, F12-NEVPT2, CIM, IAO-localization
   Andreas Hansen         : Spin unrestricted coupled pair/coupled cluster methods
   Ingolf Harden          : AUTO-CI MPn and infrastructure 
   Benjamin Helmich-Paris : MC-RPA, TRAH-(SCF,CASSCF), AVAS, COSX integrals, SCF dyn. polar.
   Lee Huntington         : MR-EOM, pCC
   Robert Izsak           : Overlap fitted RIJCOSX, COSX-SCS-MP3, EOM
   Riya Kayal             : Wick's Theorem for AUTO-CI, AUTO-CI UHF-CCSDT
   Emily Kempfer          : AUTO-CI, RHF CISDT and CCSDT
   Christian Kollmar      : KDIIS, OOCD, Brueckner-CCSD(T), CCSD density, CASPT2, CASPT2-K, improved NEVPT2
   Axel Koslowski         : Symmetry handling
   Simone Kossmann        : Meta GGA functionals, TD-DFT gradient, OOMP2, (MP2 Hessian; deprecated post 5.0)
   Lucas Lang             : DCDCAS
   Marvin Lechner         : AUTO-CI (C++ implementation), FIC-MRCC
   Spencer Leger          : CASSCF response
   Dagmar Lenk            : GEPOL surface, SMD, ORCA-2-JSON
   Dimitrios Liakos       : Extrapolation schemes; Compound Job, initial MDCI parallelization
   Dimitrios Manganas     : Further ROCIS development; embedding schemes. LFT, Crystal Embedding
   Dimitrios Pantazis     : SARC Basis sets
   Anastasios Papadopoulos: AUTO-CI, single reference methods and gradients
   Taras Petrenko         : pre 6.0 DFT Hessian and TD-DFT gradient, (ASA, deprecated), ECA, 1-Electron XAS/XES, NRVS
   Peter Pinski           : DLPNO-MP2, DLPNO-MP2 Gradient
   Christoph Reimann      : Effective Core Potentials
   Marius Retegan         : Local ZFS, SOC
   Christoph Riplinger    : Optimizer, TS searches, QM/MM, DLPNO-CCSD(T), (RO)-DLPNO pert. Triples
   Michael Roemelt        : Original ROCIS implementation
   Masaaki Saitow         : Open-shell DLPNO-CCSD energy and density
   Barbara Sandhoefer     : DKH picture change effects
   Kantharuban Sivalingam : CASSCF convergence/infrastructure, NEVPT2 and variants, FIC-MRCI
   Bernardo de Souza      : ESD, SOC TD-DFT
   Georgi Stoychev        : AutoAux, RI-MP2 NMR, DLPNO-MP2 response, X2C
   Van Anh Tran           : RI-MP2 g-tensors
   Willem Van den Heuvel  : Paramagnetic NMR
   Zikuan Wang            : NOTCH, Electric field optimization 
   Frank Wennmohs         : Technical directorship and infrastructure
   Hang Xu                : AUTO-CI-Response properties 


 We gratefully acknowledge several colleagues who have allowed us to
 interface, adapt or use parts of their codes:
   Stefan Grimme, W. Hujo, H. Kruse, P. Pracht,  : VdW corrections, initial TS optimization,
                  C. Bannwarth, S. Ehlert,         DFT functionals, gCP, sTDA/sTD-DF
                  L. Wittmann, M. Mueller
   Ed Valeev, F. Pavosevic, A. Kumar             : LibInt (2-el integral package), F12 methods
   Garnet Chan, S. Sharma, J. Yang, R. Olivares  : DMRG
   Ulf Ekstrom                                   : XCFun DFT Library
   Mihaly Kallay                                 : mrcc  (arbitrary order and MRCC methods)
   Frank Weinhold                                : gennbo (NPA and NBO analysis)
   Simon Mueller                                 : openCOSMO-RS
   Christopher J. Cramer and Donald G. Truhlar   : smd solvation model
   Lars Goerigk                                  : TD-DFT with DH, B97 family of functionals
   V. Asgeirsson, H. Jonsson                     : NEB implementation
   FAccTs GmbH                                   : IRC, NEB, NEB-TS, DLPNO-Multilevel, CI-OPT
                                                   MM, QMMM, 2- and 3-layer-ONIOM, Crystal-QMMM,
                                                   LR-CPCM, SF, NACMEs, symmetry and pop. for TD-DFT,
                                                   nearIR, NL-DFT gradient (VV10), updates on ESD,
                                                   ML-optimized integration grids, MBIS, APM,
                                                   GOAT, DOCKER, SOLVATOR, interface openCOSMO-RS
   S Lehtola, MJT Oliveira, MAL Marques          : LibXC Library
   Liviu Ungur et al                             : ANISO software


 Your calculation uses the libint2 library for the computation of 2-el integrals
 For citations please refer to: http://libint.valeyev.net

 Your ORCA version has been built with support for libXC version: 6.2.2
 For citations please refer to: https://libxc.gitlab.io

 This ORCA versions uses:
   CBLAS   interface :  Fast vector & matrix operations
   LAPACKE interface :  Fast linear algebra routines
   SCALAPACK package :  Parallel linear algebra routines
   Shared memory     :  Shared parallel matrices
   BLAS/LAPACK       :  OpenBLAS 0.3.27  USE64BITINT DYNAMIC_ARCH NO_AFFINITY Zen SINGLE_THREADED
        Core in use  :  Zen
   Copyright (c) 2011-2014, The OpenBLAS Project


NOTE: MaxCore=8000 MB was set to SCF,MP2,MDCI,CIPSI,MRCI and CIS
      => If you want to overwrite this, your respective input block should be placed after the MaxCore statement
================================================================================

----- Orbital basis set information -----
Your calculation utilizes the basis: pcSseg-1
   F. Jensen, J. Chem. Theory Comput. 11, 132 (2015).

----- AuxJ basis set information -----
Your calculation utilizes the auxiliary basis: def2/J
   F. Weigend, Phys. Chem. Chem. Phys. 8, 1057 (2006).

================================================================================
                                        WARNINGS
                       Please study these warnings very carefully!
================================================================================


================================================================================
                                       INPUT FILE
================================================================================
NAME = inpS
|  1> ! revTPSS
|  2> ! pcSseg-1
|  3> ! RI def2/J
|  4> ! DEFGRID2
|  5> ! scfconv7
|  6> ! smallprint printgap noloewdin
|  7> ! NOSOSCF
|  8> %MaxCore 8000
|  9> %output
| 10>        print[P_BondOrder_M] 1
| 11>        print[P_Mayer] 1
| 12>        print[P_basis] 2
| 13> end
| 14> %pal
| 15>     nprocs 8
| 16> end
| 17> ! CPCM(chloroform)
| 18> *xyz 0 1
| 19> C    1.8550841941  -0.0000230069  -0.0942913024
| 20> C    1.0770159050  -1.2573667318   0.2911791006
| 21> C   -0.3148642869  -1.2764668786  -0.3688248092
| 22> H    0.9559781451  -1.2903547026   1.3825699956
| 23> H    1.6258162000  -2.1608840521   0.0022326674
| 24> C   -1.0750350549  -0.0000006200  -0.0935243725
| 25> H   -0.9143477918  -2.1312867807  -0.0418141347
| 26> H   -0.1846991187  -1.3448058075  -1.4597766811
| 27> C   -0.3148692738   1.2764805951  -0.3687737198
| 28> C    1.0770613277   1.2573624165   0.2911252729
| 29> H   -0.9143347268   2.1312532152  -0.0415985531
| 30> H   -0.1848155688   1.3449991629  -1.4597251664
| 31> H    0.9560944623   1.2904645738   1.3825203588
| 32> H    1.6258590988   2.1608542092   0.0020900690
| 33> H    2.0390381543  -0.0000498563  -1.1783426484
| 34> H    2.8349659186  -0.0000210637   0.3980405588
| 35> O   -2.2237864696   0.0000000388   0.3214404209
| 36> *
| 37> %eprnmr
| 38>  Nuclei = all H { shift }
| 39>  origin giao
| 40>  giao_2el giao_2el_same_as_scf
| 41>  giao_1el giao_1el_analytic
| 42> end
| 43> 
| 44>                          ****END OF INPUT****
================================================================================

                       ****************************
                       * Single Point Calculation *
                       ****************************

---------------------------------
CARTESIAN COORDINATES (ANGSTROEM)
---------------------------------
  C      1.855084   -0.000023   -0.094291
  C      1.077016   -1.257367    0.291179
  C     -0.314864   -1.276467   -0.368825
  H      0.955978   -1.290355    1.382570
  H      1.625816   -2.160884    0.002233
  C     -1.075035   -0.000001   -0.093524
  H     -0.914348   -2.131287   -0.041814
  H     -0.184699   -1.344806   -1.459777
  C     -0.314869    1.276481   -0.368774
  C      1.077061    1.257362    0.291125
  H     -0.914335    2.131253   -0.041599
  H     -0.184816    1.344999   -1.459725
  H      0.956094    1.290465    1.382520
  H      1.625859    2.160854    0.002090
  H      2.039038   -0.000050   -1.178343
  H      2.834966   -0.000021    0.398041
  O     -2.223786    0.000000    0.321440

----------------------------
CARTESIAN COORDINATES (A.U.)
----------------------------
  NO LB      ZA    FRAG     MASS         X           Y           Z
   0 C     6.0000    0    12.011    3.505601   -0.000043   -0.178185
   1 C     6.0000    0    12.011    2.035265   -2.376079    0.550249
   2 C     6.0000    0    12.011   -0.595007   -2.412173   -0.696978
   3 H     1.0000    0     1.008    1.806537   -2.438417    2.612679
   4 H     1.0000    0     1.008    3.072347   -4.083479    0.004219
   5 C     6.0000    0    12.011   -2.031522   -0.000001   -0.176735
   6 H     1.0000    0     1.008   -1.727867   -4.027548   -0.079017
   7 H     1.0000    0     1.008   -0.349031   -2.541315   -2.758578
   8 C     6.0000    0    12.011   -0.595017    2.412199   -0.696881
   9 C     6.0000    0    12.011    2.035351    2.376071    0.550147
  10 H     1.0000    0     1.008   -1.727842    4.027485   -0.078610
  11 H     1.0000    0     1.008   -0.349251    2.541680   -2.758481
  12 H     1.0000    0     1.008    1.806757    2.438625    2.612585
  13 H     1.0000    0     1.008    3.072428    4.083423    0.003950
  14 H     1.0000    0     1.008    3.853224   -0.000094   -2.226745
  15 H     1.0000    0     1.008    5.357309   -0.000040    0.752188
  16 O     8.0000    0    15.999   -4.202347    0.000000    0.607434

--------------------------------
INTERNAL COORDINATES (ANGSTROEM)
--------------------------------
 C      0   0   0     0.000000000000     0.00000000     0.00000000
 C      1   0   0     1.528034991955     0.00000000     0.00000000
 C      2   1   0     1.540551993658   111.23422425     0.00000000
 H      2   1   3     1.098577458001   109.35529974   239.54574965
 H      2   1   3     1.095908460198   110.90947873   121.77621693
 C      3   2   1     1.510965266415   111.47021796   307.29325063
 H      3   2   1     1.094090270001   112.12865595   184.42868196
 H      3   2   1     1.100812957326   108.57338257    64.92231994
 C      6   3   2     1.510966085141   115.30243576    49.76708691
 C      1   2   3     1.528032597864   110.74513055    57.36706791
 H      9   6   3     1.094092615421   109.26209932   185.75123385
 H      9   6   3     1.100810528273   107.01118672    68.81172008
 H     10   1   2     1.098577247566   109.35631786    63.09230130
 H     10   1   2     1.095909559286   110.90999684   180.86010339
 H      1   2   3     1.099548262223   109.50433015   296.50834780
 H      1   2   3     1.096612445473   109.98281727   179.14026005
 O      6   3   2     1.221403124500   122.34930637   229.71355963

---------------------------
INTERNAL COORDINATES (A.U.)
---------------------------
 C      0   0   0     0.000000000000     0.00000000     0.00000000
 C      1   0   0     2.887567657843     0.00000000     0.00000000
 C      2   1   0     2.911221363079   111.23422425     0.00000000
 H      2   1   3     2.076010532521   109.35529974   239.54574965
 H      2   1   3     2.070966857621   110.90947873   121.77621693
 C      3   2   1     2.855310551392   111.47021796   307.29325063
 H      3   2   1     2.067530976089   112.12865595   184.42868196
 H      3   2   1     2.080235014019   108.57338257    64.92231994
 C      6   3   2     2.855312098560   115.30243576    49.76708691
 C      1   2   3     2.887563133668   110.74513055    57.36706791
 H      9   6   3     2.067535408291   109.26209932   185.75123385
 H      9   6   3     2.080230423773   107.01118672    68.81172008
 H     10   1   2     2.076010134856   109.35631786    63.09230130
 H     10   1   2     2.070968934597   110.90999684   180.86010339
 H      1   2   3     2.077845086631   109.50433015   296.50834780
 H      1   2   3     2.072297196993   109.98281727   179.14026005
 O      6   3   2     2.308117404420   122.34930637   229.71355963

---------------------
BASIS SET INFORMATION
---------------------
There are 3 groups of distinct atoms

 Group   1 Type C   : 8s5p1d contracted to 3s3p1d pattern {521/311/1}
 Group   2 Type H   : 4s2p contracted to 2s1p pattern {31/2}
 Group   3 Type O   : 8s5p1d contracted to 3s3p1d pattern {521/311/1}

Atom   0C    basis set group =>   1
Atom   1C    basis set group =>   1
Atom   2C    basis set group =>   1
Atom   3H    basis set group =>   2
Atom   4H    basis set group =>   2
Atom   5C    basis set group =>   1
Atom   6H    basis set group =>   2
Atom   7H    basis set group =>   2
Atom   8C    basis set group =>   1
Atom   9C    basis set group =>   1
Atom  10H    basis set group =>   2
Atom  11H    basis set group =>   2
Atom  12H    basis set group =>   2
Atom  13H    basis set group =>   2
Atom  14H    basis set group =>   2
Atom  15H    basis set group =>   2
Atom  16O    basis set group =>   3

-------------------------
BASIS SET IN INPUT FORMAT
-------------------------

 # Basis set for element : H 
 NewGTO H 
 S 3 
   1      12.2518000000      0.0372173893
   2       1.8687100000      0.2538082070
   3       0.4182080000      0.7973867639
 S 1 
   1       0.1061000000      1.0000000000
 P 2 
   1       9.0000000000      0.0402678705
   2       1.0000000000      0.9880231245
  end;

 # Basis set for element : C 
 NewGTO C 
 S 5 
   1    1243.2000000000      0.0056300977
   2     187.1450000000      0.0419506039
   3      42.5126000000      0.1846643605
   4      11.7393000000      0.4665574214
   5       3.5054800000      0.4482347783
 S 2 
   1       5.3908900000     -0.1481148174
   2       0.4933410000      1.0519817143
 S 1 
   1       0.1497410000      1.0000000000
 P 3 
   1      59.6736000000      0.0113906672
   2       9.1805600000      0.1672414929
   3       1.9365800000      0.9041087436
 P 1 
   1       0.5262960000      1.0000000000
 P 1 
   1       0.1363190000      1.0000000000
 D 1 
   1       0.8000000000      1.0000000000
  end;

 # Basis set for element : O 
 NewGTO O 
 S 5 
   1    2288.6400000000      0.0054511382
   2     344.4160000000      0.0407189228
   3      78.2538000000      0.1813694209
   4      21.7195000000      0.4655368202
   5       6.5590700000      0.4512113212
 S 2 
   1      10.4656000000     -0.1502112012
   2       0.9643510000      1.0528679834
 S 1 
   1       0.2851270000      1.0000000000
 P 3 
   1     110.8840000000      0.0113058003
   2      17.0590000000      0.1699226452
   3       3.6899900000      0.9008060328
 P 1 
   1       0.9929960000      1.0000000000
 P 1 
   1       0.2449240000      1.0000000000
 D 1 
   1       1.0000000000      1.0000000000
  end;

---------------------------------
AUXILIARY/J BASIS SET INFORMATION
---------------------------------
There are 3 groups of distinct atoms

 Group   1 Type C   : 12s5p4d2f1g contracted to 6s4p3d1f1g pattern {711111/2111/211/2/1}
 Group   2 Type H   : 5s2p1d contracted to 3s1p1d pattern {311/2/1}
 Group   3 Type O   : 12s5p4d2f1g contracted to 6s4p3d1f1g pattern {711111/2111/211/2/1}

Atom   0C    basis set group =>   1
Atom   1C    basis set group =>   1
Atom   2C    basis set group =>   1
Atom   3H    basis set group =>   2
Atom   4H    basis set group =>   2
Atom   5C    basis set group =>   1
Atom   6H    basis set group =>   2
Atom   7H    basis set group =>   2
Atom   8C    basis set group =>   1
Atom   9C    basis set group =>   1
Atom  10H    basis set group =>   2
Atom  11H    basis set group =>   2
Atom  12H    basis set group =>   2
Atom  13H    basis set group =>   2
Atom  14H    basis set group =>   2
Atom  15H    basis set group =>   2
Atom  16O    basis set group =>   3

-------------------------------------
AUXILIARY/J BASIS SET IN INPUT FORMAT
-------------------------------------

 # Auxiliary/J basis set for element : H 
 NewAuxJGTO H 
 S 3 
   1      15.6752927000      0.1007184237
   2       3.6063578000      0.3404257499
   3       1.2080016000      0.6491996172
 S 1 
   1       0.4726794000      1.0000000000
 S 1 
   1       0.2018100000      1.0000000000
 P 2 
   1       2.0281365000      0.5596620919
   2       0.5358730000      0.5596620919
 D 1 
   1       2.2165124000      1.0000000000
  end;

 # Auxiliary/J basis set for element : C 
 NewAuxJGTO C 
 S 7 
   1    1861.0916331000      0.0134602335
   2     642.9939764000      0.0299160374
   3     235.1105725000      0.1008649584
   4      90.7028894000      0.2370970548
   5      36.7794552000      0.3924037254
   6      15.6046273000      0.3195862154
   7       6.8907294000      0.0530104441
 S 1 
   1       3.1478850000     -1.0000000000
 S 1 
   1       1.4777287000      1.0000000000
 S 1 
   1       0.7076466000      1.0000000000
 S 1 
   1       0.3430122000      1.0000000000
 S 1 
   1       0.1669453000      1.0000000000
 P 2 
   1      13.5472892000     -0.6769313712
   2       5.4669419000     -0.3779500978
 P 1 
   1       2.1751721000      1.0000000000
 P 1 
   1       0.8582194000      1.0000000000
 P 1 
   1       0.3376720000      1.0000000000
 D 2 
   1       5.9287253000     -0.3533329857
   2       1.9809209000     -0.7456525731
 D 1 
   1       0.8055417000     -1.0000000000
 D 1 
   1       0.3531244000     -1.0000000000
 F 2 
   1       1.6755626000      0.6311076882
   2       0.5997536000      0.4968166032
 G 1 
   1       1.0024600000     -1.0000000000
  end;

 # Auxiliary/J basis set for element : O 
 NewAuxJGTO O 
 S 7 
   1    2876.8216605000      0.0168151159
   2    1004.7443032000      0.0340137548
   3     369.7579954000      0.1194951309
   4     142.9442404000      0.2664627624
   5      57.8366425000      0.4202764046
   6      24.3864983000      0.2765077335
   7      10.6622662000      0.0057008815
 S 1 
   1       4.8070437000     -1.0000000000
 S 1 
   1       2.2210770000      1.0000000000
 S 1 
   1       1.0447795000      1.0000000000
 S 1 
   1       0.4968425000      1.0000000000
 S 1 
   1       0.2371384000      1.0000000000
 P 2 
   1      64.2613382000     -0.2731534179
   2      16.3006076000     -0.8168011598
 P 1 
   1       4.3550542000      1.0000000000
 P 1 
   1       1.2019554000      1.0000000000
 P 1 
   1       0.3354196000      1.0000000000
 D 2 
   1       9.2146611000     -0.4661230638
   2       2.8435251000     -0.6600908911
 D 1 
   1       0.9955759000     -1.0000000000
 D 1 
   1       0.3649441000     -1.0000000000
 F 2 
   1       2.6420115000      0.5931563945
   2       0.7345613000      0.5931563945
 G 1 
   1       1.3931000000     -1.0000000000
  end;



           ************************************************************
           *        Program running with 8 parallel MPI-processes     *
           *              working on a common directory               *
           ************************************************************
------------------------------------------------------------------------------
                             ORCA STARTUP CALCULATIONS
                           -- RI-GTO INTEGRALS CHOSEN --
------------------------------------------------------------------------------
------------------------------------------------------------------------------
                   ___                                                        
                  /   \      - P O W E R E D   B Y -                         
                 /     \                                                     
                 |  |  |   _    _      __       _____    __    __             
                 |  |  |  | |  | |    /  \     |  _  \  |  |  /  |          
                  \  \/   | |  | |   /    \    | | | |  |  | /  /          
                 / \  \   | |__| |  /  /\  \   | |_| |  |  |/  /          
                |  |  |   |  __  | /  /__\  \  |    /   |      \           
                |  |  |   | |  | | |   __   |  |    \   |  |\   \          
                \     /   | |  | | |  |  |  |  | |\  \  |  | \   \       
                 \___/    |_|  |_| |__|  |__|  |_| \__\ |__|  \__/        
                                                                              
                      - O R C A' S   B I G   F R I E N D -                    
                                      &                                       
                       - I N T E G R A L  F E E D E R -                       
                                                                              
 v1 FN, 2020, v2 2021, v3 2022-2024                                           
------------------------------------------------------------------------------


----------------------
SHARK INTEGRAL PACKAGE
----------------------

Number of atoms                             ...     17
Number of basis functions                   ...    169
Number of shells                            ...     79
Maximum angular momentum                    ...      2
Integral batch strategy                     ... SHARK/LIBINT Hybrid
RI-J (if used) integral strategy            ... SPLIT-RIJ (Revised 2003 algorithm where possible)
Printlevel                                  ...      1
Contraction scheme used                     ... SEGMENTED contraction
Prescreening option                         ... SCHWARTZ
   Thresh                                   ... 3.000e-11
   Tcut                                     ... 1.000e-12
   Tpresel                                  ... 1.000e-12 
Coulomb Range Separation                    ... NOT USED
Exchange Range Separation                   ... NOT USED
Multipole approximations                    ... NOT USED
Finite Nucleus Model                        ... NOT USED
CABS basis                                  ... NOT available
Auxiliary Coulomb fitting basis             ... AVAILABLE
   # of basis functions in Aux-J            ...    453
   # of shells in Aux-J                     ...    155
   Maximum angular momentum in Aux-J        ...      4
Auxiliary J/K fitting basis                 ... NOT available
Auxiliary Correlation fitting basis         ... NOT available
Auxiliary 'external' fitting basis          ... NOT available

Checking pre-screening integrals            ... done (  0.0 sec) Dimension = 79
Check shell pair data                       ... done (  0.0 sec)
Shell pair information
Shell pair cut-off parameter TPreSel        ...   1.0e-12
Total number of shell pairs                 ...      3160
Shell pairs after pre-screening             ...      3047
Total number of primitive shell pairs       ...     12699
Primitive shell pairs kept                  ...      8733
          la=0 lb=0:    839 shell pairs
          la=1 lb=0:   1219 shell pairs
          la=1 lb=1:    469 shell pairs
          la=2 lb=0:    281 shell pairs
          la=2 lb=1:    211 shell pairs
          la=2 lb=2:     28 shell pairs

Calculating one electron integrals          ... done (  0.0 sec)
Calculating RI/J V-Matrix + Cholesky decomp.... done (  0.0 sec)
Calculating Nuclear repulsion               ... done (  0.0 sec) ENN=    309.821517093651 Eh

Diagonalization of the overlap matrix:
Smallest eigenvalue                        ... 2.706e-03
Time for diagonalization                   ...    0.002 sec
Threshold for overlap eigenvalues          ... 1.000e-07
Number of eigenvalues below threshold      ... 0
Time for construction of square roots      ...    0.001 sec
Total time needed                          ...    0.003 sec

-------------------
DFT GRID GENERATION
-------------------

General Integration Accuracy     IntAcc      ... 4.388
Radial Grid Type                 RadialGrid  ... OptM3 with GC (2021)
Angular Grid (max. ang.)         AngularGrid ... 4 (Lebedev-302)
Angular grid pruning method      GridPruning ... 4 (adaptive)
Weight generation scheme         WeightScheme... mBecke (2022)
Basis function cutoff            BFCut       ... 1.0000e-11
Integration weight cutoff        WCut        ... 1.0000e-14
Partially contracted basis set               ... off
Rotationally invariant grid construction     ... off
Angular grids for H and He will be reduced by one unit

Total number of grid points                  ...    73947
Total number of batches                      ...     1162
Average number of points per batch           ...       63
Average number of grid points per atom       ...     4350
Initializing property integral containers    ... done (  0.0 sec)

SHARK setup successfully completed in   0.3 seconds

Maximum memory used throughout the entire STARTUP-calculation: 21.8 MB


           ************************************************************
           *        Program running with 8 parallel MPI-processes     *
           *              working on a common directory               *
           ************************************************************
-------------------------------------------------------------------------------
                                 ORCA GUESS
                   Start orbitals & Density for SCF / CASSCF
-------------------------------------------------------------------------------

------------
SCF SETTINGS
------------
Hamiltonian:
 Density Functional     Method          .... DFT(GTOs)
 Exchange Functional    Exchange        .... revTPSS
 Correlation Functional Correlation     .... revTPSS
 LDA part of GGA corr.  LDAOpt          .... PW91-LDA
 Gradients option       PostSCFGGA      .... off
 RI-approximation to the Coulomb term is turned on
   Number of AuxJ basis functions       .... 453


General Settings:
 Integral files         IntName         .... inpS
 Hartree-Fock type      HFTyp           .... RHF
 Total Charge           Charge          ....    0
 Multiplicity           Mult            ....    1
 Number of Electrons    NEL             ....   54
 Basis Dimension        Dim             ....  169
 Nuclear Repulsion      ENuc            ....    309.8215170937 Eh

Convergence Acceleration:
 AO-DIIS                CNVDIIS         .... on
   Start iteration      DIISMaxIt       ....    12
   Startup error        DIISStart       ....  0.200000
   # of expansion vecs  DIISMaxEq       ....     5
   Bias factor          DIISBfac        ....   1.050
   Max. coefficient     DIISMaxC        ....  10.000
 MO-DIIS                CNVKDIIS        .... off
 Trust-Rad. Augm. Hess. CNVTRAH         .... auto
   Auto Start mean grad. ratio tolernc. ....  1.125000
   Auto Start start iteration           ....    50
   Auto Start num. interpolation iter.  ....    10
   Max. Number of Micro iterations      ....    24
   Max. Number of Macro iterations      .... Maxiter - #DIIS iter
   Number of Davidson start vectors     ....     2
   Converg. threshold    (grad. norm)   ....   1.000e-04
   Grad. Scal. Fac. for Micro threshold ....   0.100
   Minimum threshold for Micro iter.    ....   1.000e-02
   NR start threshold (gradient norm)   ....   1.000e-04
   Initial trust radius                 ....   0.400
   Minimum AH scaling param. (alpha)    ....   1.000
   Maximum AH scaling param. (alpha)    .... 1000.000
   Quad. conv. algorithm                .... NR
   White noise on init. David. guess    .... on
   Maximum white noise                  ....   0.010
   Pseudo random numbers                .... off
   Inactive MOs                         .... canonical
   Orbital update algorithm             .... Taylor
   Preconditioner                       .... Diag
   Full preconditioner red. dimension   ....   250
 SOSCF                  CNVSOSCF        .... off
 Level Shifting         CNVShift        .... on
   Level shift para.    LevelShift      ....    0.2500
   Turn off err/grad.   ShiftErr        ....    0.0010
 Zerner damping         CNVZerner       .... off
 Static damping         CNVDamp         .... on
   Fraction old density DampFac         ....    0.7000
   Max. Damping (<1)    DampMax         ....    0.9800
   Min. Damping (>=0)   DampMin         ....    0.0000
   Turn off err/grad.   DampErr         ....    0.1000

SCF Procedure:
 Maximum # iterations   MaxIter         ....   125
 SCF integral mode      SCFMode         .... Direct
   Integral package                     .... SHARK and LIBINT hybrid scheme
 Reset frequency        DirectResetFreq ....    20
 Integral Threshold     Thresh          ....  3.000e-11 Eh
 Primitive CutOff       TCut            ....  1.000e-12 Eh

Convergence Tolerance:
 Convergence Check Mode ConvCheckMode   .... Total+1el-Energy
 Convergence forced     ConvForced      .... 0
 Energy Change          TolE            ....  1.000e-07 Eh
 1-El. energy change                    ....  1.000e-04 Eh
 DIIS Error             TolErr          ....  1.000e-07

------------------------------
INITIAL GUESS: MODEL POTENTIAL
------------------------------
Loading Hartree-Fock densities                     ... done
Calculating cut-offs                               ... done
Initializing the effective Hamiltonian             ... done
Setting up the integral package (SHARK)            ... done
Starting the Coulomb interaction                   ... done (   0.0 sec)
Making the grid                                    ... done (   0.1 sec)
Mapping shells                                     ... done
Starting the XC term evaluation                    ... done (   0.0 sec)
  promolecular density results
     # of electrons  =     53.993041601
     EX              =    -41.783021649
     EC              =     -1.783987743
     EX+EC           =    -43.567009393
Transforming the Hamiltonian                       ... done (   0.0 sec)
Diagonalizing the Hamiltonian                      ... done (   0.0 sec)
Back transforming the eigenvectors                 ... done (   0.0 sec)
Now organizing SCF variables                       ... done
                      ------------------
                      INITIAL GUESS DONE (   0.1 sec)
                      ------------------
             **** ENERGY FILE WAS UPDATED (inpS.en.tmp) ****
Finished Guess after   0.2 sec
Maximum memory used throughout the entire GUESS-calculation: 12.3 MB


           ************************************************************
           *        Program running with 8 parallel MPI-processes     *
           *              working on a common directory               *
           ************************************************************

-------------------------------------------------------------------------------------------
                                      ORCA LEAN-SCF
                              memory conserving SCF solver
-------------------------------------------------------------------------------------------

--------------------
CPCM SOLVATION MODEL
--------------------
CPCM parameters:
  Epsilon                                         ...       4.8030
  Refrac                                          ...       1.4459
  Rsolv                                           ...       1.3000
  Surface type                                    ... GAUSSIAN VDW
  Discretization scheme                           ... Constant charge density
    Threshold for H atoms                         ...       5.0000 (charges/Ang^2)
    Threshold for non-H atoms                     ...       5.0000 (charges/Ang^2)
  Epsilon function type                           ...         CPCM
Solvent:                                          ... CHLOROFORM
Radii:
  Scheme                                          ... Element-dependent radii
  Radius for C  used is    3.8550 Bohr (=   2.0400 Ang.)
  Radius for H  used is    2.4944 Bohr (=   1.3200 Ang.)
  Radius for O  used is    3.4469 Bohr (=   1.8240 Ang.)
Calculating surface                               ...        done! (  0.0s)
Cavity surface points                             ...         1441
Cavity Volume                                     ...     904.2545
Cavity Surface-area                               ...     521.4218
Calculating surface distance matrix               ...        done! (  0.0s)
Performing Cholesky decomposition & store         ...        done! (  0.0s)
Overall time for CPCM initialization              ...                 0.1s

----------------------------------------D-I-I-S--------------------------------------------
Iteration    Energy (Eh)           Delta-E    RMSDP     MaxDP     DIISErr   Damp  Time(sec)
-------------------------------------------------------------------------------------------
               ***  Starting incremental Fock matrix formation  ***
    1    -309.5837060844064013     0.00e+00  2.65e-03  5.37e-02  2.71e-01  0.700   0.2

  HOMO=  26 E= -1.447 eV LUMO=  7.337 eV gap=   8.783 eV
    2    -309.6880122568617821    -1.04e-01  1.78e-03  3.18e-02  9.18e-02  0.700   0.2

  HOMO=  26 E= -3.927 eV LUMO=  6.430 eV gap=  10.357 eV
                               ***Turning on AO-DIIS***
    3    -309.7242947556969170    -3.63e-02  6.90e-04  1.23e-02  2.96e-02  0.700   0.2

  HOMO=  26 E= -5.607 eV LUMO=  5.480 eV gap=  11.088 eV
    4    -309.7465858780347503    -2.23e-02  1.05e-03  1.98e-02  1.31e-02  0.000   0.2

  HOMO=  26 E= -5.601 eV LUMO=  5.371 eV gap=  10.971 eV
    5    -309.7966485218597086    -5.01e-02  2.98e-04  4.95e-03  5.53e-03  0.000   0.2

  HOMO=  26 E= -5.629 eV LUMO=  5.346 eV gap=  10.976 eV
    6    -309.7970424513843568    -3.94e-04  1.11e-04  1.99e-03  1.43e-03  0.000   0.2

  HOMO=  26 E= -5.577 eV LUMO=  5.384 eV gap=  10.961 eV
    7    -309.7970708441573038    -2.84e-05  4.36e-05  6.25e-04  1.20e-03  0.000   0.2

  HOMO=  26 E= -5.585 eV LUMO=  5.382 eV gap=  10.966 eV
    8    -309.7970745992650450    -3.76e-06  1.61e-05  2.14e-04  3.03e-04  0.000   0.2

  HOMO=  26 E= -5.579 eV LUMO=  5.384 eV gap=  10.963 eV
    9    -309.7970750175945227    -4.18e-07  6.23e-06  8.58e-05  8.04e-05  0.000   0.2

  HOMO=  26 E= -5.577 eV LUMO=  5.387 eV gap=  10.964 eV
   10    -309.7970750844341978    -6.68e-08  2.42e-06  3.86e-05  1.55e-05  0.000   0.2
                 **** Energy Check signals convergence ****

  HOMO=  26 E= -5.577 eV LUMO=  5.387 eV gap=  10.963 eV

               *****************************************************
               *                     SUCCESS                       *
               *           SCF CONVERGED AFTER  10 CYCLES          *
               *****************************************************

             **** ENERGY FILE WAS UPDATED (inpS.en.tmp) ****

----------------
TOTAL SCF ENERGY
----------------

Total Energy       :       -309.79707508443420 Eh           -8430.00699 eV

Components:
Nuclear Repulsion  :        309.82151709365127 Eh            8430.67209 eV
Electronic Energy  :       -619.61128226560277 Eh          -16860.48016 eV
One Electron Energy:      -1032.02324442598388 Eh          -28082.78018 eV
Two Electron Energy:        412.41196216038105 Eh           11222.30002 eV
CPCM Dielectric    :         -0.00730991248262 Eh              -0.19891 eV

Virial components:
Potential Energy   :       -618.07868913838070 Eh          -16818.77618 eV
Kinetic Energy     :        308.28161405394650 Eh            8388.76920 eV
Virial Ratio       :          2.00491583332058

DFT components:
N(Alpha)           :       27.000024932078 electrons
N(Beta)            :       27.000024932078 electrons
N(Total)           :       54.000049864156 electrons
E(X)               :      -43.042409944497 Eh       
E(C)               :       -1.822887379572 Eh       
E(XC)              :      -44.865297324069 Eh       

CPCM Solvation Model Properties:
Surface-charge          :         -0.02139672337460
Corrected charge        :          0.00000000000000
Outlying charge corr.   :          0.00002904574099 Eh               0.00079 eV
Free-energy (cav+disp)  :  This term is not implemented in the current solvation scheme

---------------
SCF CONVERGENCE
---------------

  Last Energy change         ...    6.6840e-08  Tolerance :   1.0000e-07
  Last MAX-Density change    ...    3.8631e-05  Tolerance :   1.0000e-05
  Last RMS-Density change    ...    2.4230e-06  Tolerance :   1.0000e-06
  Last DIIS Error            ...    1.5471e-05  Tolerance :   1.0000e-07


----------------
ORBITAL ENERGIES
----------------

  NO   OCC          E(Eh)            E(eV) 
   0   2.0000     -18.899723      -514.2876 
   1   2.0000     -10.088788      -274.5299 
   2   2.0000     -10.014262      -272.5019 
   3   2.0000     -10.014256      -272.5018 
   4   2.0000     -10.013741      -272.4877 
   5   2.0000     -10.013734      -272.4876 
   6   2.0000     -10.009347      -272.3682 
   7   2.0000      -0.975307       -26.5395 
   8   2.0000      -0.776898       -21.1405 
   9   2.0000      -0.700870       -19.0716 
  10   2.0000      -0.674589       -18.3565 
  11   2.0000      -0.578038       -15.7292 
  12   2.0000      -0.544066       -14.8048 
  13   2.0000      -0.488839       -13.3020 
  14   2.0000      -0.437375       -11.9016 
  15   2.0000      -0.418718       -11.3939 
  16   2.0000      -0.408654       -11.1200 
  17   2.0000      -0.399811       -10.8794 
  18   2.0000      -0.375875       -10.2281 
  19   2.0000      -0.364757        -9.9256 
  20   2.0000      -0.352835        -9.6011 
  21   2.0000      -0.325833        -8.8664 
  22   2.0000      -0.319662        -8.6984 
  23   2.0000      -0.295736        -8.0474 
  24   2.0000      -0.290907        -7.9160 
  25   2.0000      -0.289119        -7.8673 
  26   2.0000      -0.204955        -5.5771 
  27   0.0000      -0.052056        -1.4165 
  28   0.0000       0.045605         1.2410 
  29   0.0000       0.059963         1.6317 
  30   0.0000       0.073036         1.9874 
  31   0.0000       0.084129         2.2893 
  32   0.0000       0.102758         2.7962 
  33   0.0000       0.112038         3.0487 
  34   0.0000       0.115707         3.1486 
  35   0.0000       0.122282         3.3275 
  36   0.0000       0.123465         3.3597 
  37   0.0000       0.139354         3.7920 
*Only the first 10 virtual orbitals were printed.

                    ********************************
                    * MULLIKEN POPULATION ANALYSIS *
                    ********************************

-----------------------
MULLIKEN ATOMIC CHARGES
-----------------------
   0 C :   -0.194091
   1 C :   -0.184371
   2 C :   -0.151830
   3 H :    0.104287
   4 H :    0.110063
   5 C :    0.151725
   6 H :    0.107924
   7 H :    0.129902
   8 C :   -0.151841
   9 C :   -0.184374
  10 H :    0.107922
  11 H :    0.129907
  12 H :    0.104286
  13 H :    0.110060
  14 H :    0.097560
  15 H :    0.108541
  16 O :   -0.395671
Sum of atomic charges:   -0.0000000

--------------------------------
MULLIKEN REDUCED ORBITAL CHARGES
--------------------------------
  0 C s       :     3.140391  s :     3.140391
      pz      :     1.047134  p :     3.015855
      px      :     1.029379
      py      :     0.939343
      dz2     :     0.010105  d :     0.037844
      dxz     :     0.005531
      dyz     :     0.004941
      dx2y2   :     0.008923
      dxy     :     0.008344

  1 C s       :     3.145114  s :     3.145114
      pz      :     1.040615  p :     3.001478
      px      :     0.949839
      py      :     1.011024
      dz2     :     0.011199  d :     0.037779
      dxz     :     0.005845
      dyz     :     0.003651
      dx2y2   :     0.007704
      dxy     :     0.009380

  2 C s       :     3.116920  s :     3.116920
      pz      :     1.047746  p :     3.000352
      px      :     0.967726
      py      :     0.984879
      dz2     :     0.010265  d :     0.034559
      dxz     :     0.004782
      dyz     :     0.002793
      dx2y2   :     0.006279
      dxy     :     0.010440

  3 H s       :     0.879585  s :     0.879585
      pz      :     0.011235  p :     0.016128
      px      :     0.002445
      py      :     0.002448

  4 H s       :     0.873541  s :     0.873541
      pz      :     0.003247  p :     0.016396
      px      :     0.004633
      py      :     0.008516

  5 C s       :     3.170055  s :     3.170055
      pz      :     0.741847  p :     2.584501
      px      :     0.828981
      py      :     1.013673
      dz2     :     0.008308  d :     0.093718
      dxz     :     0.016081
      dyz     :     0.009083
      dx2y2   :     0.022106
      dxy     :     0.038142

  6 H s       :     0.875637  s :     0.875637
      pz      :     0.003342  p :     0.016440
      px      :     0.005115
      py      :     0.007983

  7 H s       :     0.853363  s :     0.853363
      pz      :     0.011268  p :     0.016735
      px      :     0.002810
      py      :     0.002658

  8 C s       :     3.116913  s :     3.116913
      pz      :     1.047768  p :     3.000369
      px      :     0.967725
      py      :     0.984876
      dz2     :     0.010264  d :     0.034558
      dxz     :     0.004782
      dyz     :     0.002793
      dx2y2   :     0.006279
      dxy     :     0.010440

  9 C s       :     3.145107  s :     3.145107
      pz      :     1.040628  p :     3.001488
      px      :     0.949842
      py      :     1.011018
      dz2     :     0.011198  d :     0.037779
      dxz     :     0.005844
      dyz     :     0.003652
      dx2y2   :     0.007704
      dxy     :     0.009380

 10 H s       :     0.875639  s :     0.875639
      pz      :     0.003342  p :     0.016440
      px      :     0.005115
      py      :     0.007982

 11 H s       :     0.853358  s :     0.853358
      pz      :     0.011268  p :     0.016735
      px      :     0.002809
      py      :     0.002658

 12 H s       :     0.879586  s :     0.879586
      pz      :     0.011235  p :     0.016128
      px      :     0.002445
      py      :     0.002448

 13 H s       :     0.873545  s :     0.873545
      pz      :     0.003247  p :     0.016396
      px      :     0.004633
      py      :     0.008515

 14 H s       :     0.886389  s :     0.886389
      pz      :     0.011032  p :     0.016050
      px      :     0.002681
      py      :     0.002337

 15 H s       :     0.875136  s :     0.875136
      pz      :     0.004422  p :     0.016323
      px      :     0.009539
      py      :     0.002361

 16 O s       :     3.819002  s :     3.819002
      pz      :     1.347372  p :     4.554714
      px      :     1.371770
      py      :     1.835572
      dz2     :     0.003191  d :     0.021955
      dxz     :     0.007178
      dyz     :     0.000595
      dx2y2   :     0.006582
      dxy     :     0.004409


------------------------
MULLIKEN OVERLAP CHARGES
------------------------
B(  0-C ,  1-C ) :   0.7765 B(  0-C ,  2-C ) :  -0.1623 B(  0-C ,  3-H ) :  -0.0750 
B(  0-C ,  8-C ) :  -0.1623 B(  0-C ,  9-C ) :   0.7765 B(  0-C , 12-H ) :  -0.0750 
B(  0-C , 14-H ) :   0.7927 B(  0-C , 15-H ) :   0.7820 B(  1-C ,  2-C ) :   0.7250 
B(  1-C ,  3-H ) :   0.7932 B(  1-C ,  4-H ) :   0.7815 B(  1-C ,  5-C ) :  -0.1191 
B(  1-C ,  7-H ) :  -0.0636 B(  1-C ,  9-C ) :  -0.1749 B(  1-C , 14-H ) :  -0.0824 
B(  2-C ,  3-H ) :  -0.0905 B(  2-C ,  5-C ) :   0.6895 B(  2-C ,  6-H ) :   0.7364 
B(  2-C ,  7-H ) :   0.7437 B(  2-C ,  8-C ) :  -0.2902 B(  2-C , 16-O ) :  -0.1923 
B(  3-H ,  4-H ) :  -0.0600 B(  5-C ,  7-H ) :  -0.0549 B(  5-C ,  8-C ) :   0.6895 
B(  5-C ,  9-C ) :  -0.1191 B(  5-C , 11-H ) :  -0.0549 B(  5-C , 16-O ) :   1.2506 
B(  8-C ,  9-C ) :   0.7250 B(  8-C , 10-H ) :   0.7364 B(  8-C , 11-H ) :   0.7437 
B(  8-C , 12-H ) :  -0.0905 B(  8-C , 16-O ) :  -0.1923 B(  9-C , 11-H ) :  -0.0636 
B(  9-C , 12-H ) :   0.7932 B(  9-C , 13-H ) :   0.7815 B(  9-C , 14-H ) :  -0.0824 
B( 12-H , 13-H ) :  -0.0600 B( 14-H , 15-H ) :  -0.0558 


                      *****************************
                      * MAYER POPULATION ANALYSIS *
                      *****************************

  NA   - Mulliken gross atomic population
  ZA   - Total nuclear charge
  QA   - Mulliken gross atomic charge
  VA   - Mayer's total valence
  BVA  - Mayer's bonded valence
  FA   - Mayer's free valence

  ATOM       NA         ZA         QA         VA         BVA        FA
  0 C      6.1941     6.0000    -0.1941     3.9393     3.9393    -0.0000
  1 C      6.1844     6.0000    -0.1844     3.9326     3.9326    -0.0000
  2 C      6.1518     6.0000    -0.1518     3.8378     3.8378    -0.0000
  3 H      0.8957     1.0000     0.1043     0.9410     0.9410    -0.0000
  4 H      0.8899     1.0000     0.1101     0.9471     0.9471    -0.0000
  5 C      5.8483     6.0000     0.1517     3.9893     3.9893    -0.0000
  6 H      0.8921     1.0000     0.1079     0.9768     0.9768    -0.0000
  7 H      0.8701     1.0000     0.1299     0.9423     0.9423    -0.0000
  8 C      6.1518     6.0000    -0.1518     3.8378     3.8378    -0.0000
  9 C      6.1844     6.0000    -0.1844     3.9326     3.9326    -0.0000
 10 H      0.8921     1.0000     0.1079     0.9768     0.9768    -0.0000
 11 H      0.8701     1.0000     0.1299     0.9423     0.9423    -0.0000
 12 H      0.8957     1.0000     0.1043     0.9410     0.9410    -0.0000
 13 H      0.8899     1.0000     0.1101     0.9471     0.9471    -0.0000
 14 H      0.9024     1.0000     0.0976     0.9476     0.9476    -0.0000
 15 H      0.8915     1.0000     0.1085     0.9482     0.9482    -0.0000
 16 O      8.3957     8.0000    -0.3957     2.1007     2.1007    -0.0000

  Mayer bond orders larger than 0.100000
B(  0-C ,  1-C ) :   1.0421 B(  0-C ,  9-C ) :   1.0421 B(  0-C , 14-H ) :   0.9465 
B(  0-C , 15-H ) :   0.9488 B(  1-C ,  2-C ) :   1.0233 B(  1-C ,  3-H ) :   0.9459 
B(  1-C ,  4-H ) :   0.9484 B(  2-C ,  5-C ) :   0.9952 B(  2-C ,  6-H ) :   0.9409 
B(  2-C ,  7-H ) :   0.9185 B(  5-C ,  8-C ) :   0.9952 B(  5-C , 16-O ) :   1.9821 
B(  8-C ,  9-C ) :   1.0233 B(  8-C , 10-H ) :   0.9409 B(  8-C , 11-H ) :   0.9185 
B(  9-C , 12-H ) :   0.9459 B(  9-C , 13-H ) :   0.9484 

-------
TIMINGS
-------

Total SCF time: 0 days 0 hours 0 min 2 sec 

Total time                  ....       2.187 sec
Sum of individual times     ....       2.176 sec  ( 99.5%)

SCF preparation             ....       0.132 sec  (  6.0%)
Fock matrix formation       ....       1.913 sec  ( 87.5%)
  Startup                   ....       0.004 sec  (  0.2% of F)
  Split-RI-J                ....       0.288 sec  ( 15.1% of F)
  XC integration            ....       1.088 sec  ( 56.9% of F)
    XC Preparation          ....       0.000 sec  (  0.0% of XC)
    Basis function eval.    ....       0.213 sec  ( 19.6% of XC)
    Density eval.           ....       0.343 sec  ( 31.5% of XC)
    XC-Functional eval.     ....       0.069 sec  (  6.4% of XC)
    XC-Potential eval.      ....       0.304 sec  ( 27.9% of XC)
  CPCM terms                ....       0.507 sec  ( 26.5% of F)
Diagonalization             ....       0.000 sec  (  0.0%)
Density matrix formation    ....       0.011 sec  (  0.5%)
Total Energy calculation    ....       0.009 sec  (  0.4%)
Population analysis         ....       0.004 sec  (  0.2%)
Orbital Transformation      ....       0.012 sec  (  0.5%)
Orbital Orthonormalization  ....       0.000 sec  (  0.0%)
DIIS solution               ....       0.096 sec  (  4.4%)
Finished LeanSCF after   2.2 sec

Maximum memory used throughout the entire LEANSCF-calculation: 16.4 MB


           ************************************************************
           *        Program running with 8 parallel MPI-processes     *
           *              working on a common directory               *
           ************************************************************

------------------------------------------------------------------------------
                         ORCA PROPERTY INTEGRAL CALCULATIONS
------------------------------------------------------------------------------

GBWName                                   ... inpS.gbw
Number of atoms                           ...     17
Number of basis functions                 ...    169
Max core memory                           ...   8000 MB

Dipole integrals                          ... YES
Quadrupole integrals                      ...  NO
Linear momentum integrals                 ...  NO
Angular momentum integrals                ...  NO
Higher moments length integrals           ...  NO
Higher moments velocity integrals         ...  NO
Kinetic energy integrals                  ...  NO
GIAO right hand sides                     ... YES
GIAO dipole derivative integrals          ...  NO
SOC integrals                             ...  NO
EPR diamagnetic integrals (GIAO)          ...  NO
EPR gauge integrals                       ...  NO
Field gradient integrals                  ...  NO (   0 nuclei)
Spin-dipole/Fermi contact integrals       ...  NO (   0 nuclei)
Contact density integrals                 ...  NO (   0 nuclei)
Nucleus-orbit integrals                   ...  NO (   0 nuclei)
Geometric perturbations                   ...  NO (  17 nuclei)

Tau option for meta-GGA DFT with GIAOs    ... Ad-hoc gauge-invariant
Choice of electric origin   ... Center of mass
Position of electric origin ... (  0.0000,  0.0000, -0.0000) 
Choice of magnetic origin   ... GIAO
Position of magnetic origin ... (  0.0000,  0.0000,  0.0000) 

Calculating integrals                     ... Electric Dipole (Length)     done (  0.0 sec)

Calculating integrals                     ... GIAO Right Hand Sides
     -> RI used in SCF. Same chosen for GIAO calculation.
  One-electron GIAO integrals (SHARK)     ... done (  0.1 sec)
  Calculating G(B)[P]                     ... (RI-J: SHARK-ok) (copy J to G-ok) => dG/dB done (  0.1 sec)
  DFT XC-terms                            ... done (  0.8 sec)
  Extracting occupied and virtual blocks  ... 
  Operator  0  NO=  27 NV= 142 
  Transforming and RHS contribution       ... done
  Adding eps_i * S(B)_ai terms            ... done
  GIAO Right hand sides done (  1.0 sec)


Property integrals calculated in   1.1 sec

Maximum memory used throughout the entire PROPINT-calculation: 19.5 MB

-------------------------   --------------------
FINAL SINGLE POINT ENERGY      -309.797075084434
-------------------------   --------------------



           ************************************************************
           *        Program running with 8 parallel MPI-processes     *
           *              working on a common directory               *
           ************************************************************
------------------------------------------------------------------------------
                            ORCA SCF RESPONSE CALCULATION
------------------------------------------------------------------------------

GBWName                                 ... inpS.gbw
Number of atoms                         ...     17
Number of basis functions               ...    169
Max core memory                         ...   8000 MB

Electric field perturbation             ...  NO
Quadrupolar field perturbation          ...  NO
Magnetic field perturbation (no GIAO)   ...  NO
Magnetic field perturbation (with GIAO) ... YES
Linear momentum (velocity) perturbation ...  NO
Spin-orbit coupling perturbation        ...  NO
Choice of electric origin               ... Center of mass
Position of electric origin             ...     0.000038     0.000000    -0.000005
Choice of magnetic origin               ... GIAO
Position of magnetic origin             ...     0.000000     0.000000     0.000000
Nuclear geometric perturbations         ...  NO (  51 perturbations)
Nucleus-orbit perturbations             ...  NO (   0 perturbations)
Spin-dipole/Fermi contact perturbations ...  NO (   0 perturbations)

Total number of real perturbations      ...      0
Total number of imaginary perturbations ...      3
Total number of triplet perturbations   ...      0
Total number of SOC perturbations       ...      0

Using XC Grid                  ... (inpS.grid_cpscf.tmp) 
Recalculating density on grid  ... (inpS.grho_cpscf0.tmp) done
Calculating the xc-kernel      ... (inpS.fxc_cpscf0.tmp) done

                              ***************************
                              * IMAGINARY PERTURBATIONS *
                              ***************************



-------------------
SHARK CP-SCF DRIVER
-------------------

Dimension of the orbital basis          ...    169
Dimension of the CPSCF-problem          ...   3834
Number of operators                     ...      1
Max. number of iterations               ...    128
Convergence Tolerance                   ... 1.0e-03
Number of perturbations                 ...      3
Perturbation type                       ... IMAGINARY

----------------------------
POPLE LINEAR EQUATION SOLVER
----------------------------

  ITERATION   0:   ||err||_max =   2.4197e-16 (   0.0 sec   3/  3 done)

CP-SCF equations solved in   0.0 sec
Response densities calculated in   0.0 sec

Maximum memory used throughout the entire SCFRESP-calculation: 10.7 MB


           ************************************************************
           *        Program running with 8 parallel MPI-processes     *
           *              working on a common directory               *
           ************************************************************

------------------------------------------------------------------------------
                              ORCA PROPERTY CALCULATIONS
------------------------------------------------------------------------------

GBWName                                 ... inpS.gbw
Number of atoms                         ...     17
Number of basis functions               ...    169
Max core memory                         ...   8000 MB

Electric properties:
Dipole moment                           ... YES
Quadrupole moment                       ...  NO
Static polarizability (Dipole/Dipole)   ...  NO
Static polarizability (Dipole/Quad.)    ...  NO
Static polarizability (Quad./Quad.)     ...  NO
Static polarizability (Velocity)        ...  NO

Atomic electric properties:
Dipole moment                           ...  NO
Quadrupole moment                       ...  NO
Static polarizability                   ...  NO

Choice of electric origin               ... Center of mass
Position of electric origin             ...     0.000038     0.000000    -0.000005

General magnetic properties:
Magnetizability                         ...  NO

EPR properties:
g-Tensor (aka g-matrix)                 ...  NO
Zero-Field splitting spin-orbit         ...  NO
Zero-field splitting spin-spin          ...  NO
Hyperfine couplings                     ...  NO (   0 nuclei)
Quadrupole couplings                    ...  NO (   0 nuclei)
Contact density                         ...  NO (   0 nuclei)

NMR properties:
Chemical shifts                         ... YES (  10 nuclei)
Spin-rotation constants                 ...  NO (   0 nuclei)
Spin-spin couplings                     ...  NO (   0 nuclei,    0 pairs)

Choice of magnetic origin               ... GIAO
Position of magnetic origin             ...     0.000000     0.000000     0.000000

Properties with geometric perturbations:
SCF Hessian                             ...  NO
IR spectrum                             ...  NO
VCD spectrum                            ...  NO
X-ray spectroscopy properties:
SCF XES/XAS/RIXS spectra                ...  NO


-------------
DIPOLE MOMENT
-------------

Method             : SCF
Type of density    : Electron Density
Multiplicity       :   1
Irrep              :   0
Energy             :  -309.7970750844341978 Eh
Relativity type    : 
Basis              : AO
                                X                 Y                 Z
Electronic contribution:     -5.837295956      -0.000152020       0.485778146
Nuclear contribution   :      7.321808212       0.000158456      -0.946345800
                        -----------------------------------------
Total Dipole Moment    :      1.484512256       0.000006436      -0.460567654
                        -----------------------------------------
Magnitude (a.u.)       :      1.554316314
Magnitude (Debye)      :      3.950758098



--------------------
Rotational spectrum 
--------------------
 
Rotational constants in cm-1:             0.140981             0.083174             0.058434 
Rotational constants in MHz :          4226.504733          2493.486360          1751.794835 

Dipole components along the rotational axes: 
x,y,z [a.u.] :     1.484511    -0.000006    -0.460573 
x,y,z [Debye]:     3.773326    -0.000016    -1.170684 

 

Dipole moment calculation done in   0.0 sec 
GIAO: Analytic para- and diamagnetic shielding integrals (SHARK)       ... done (  0.0 sec)
-------------------
CHEMICAL SHIELDINGS (ppm)
-------------------

Method             : SCF
Type of density    : Electron Density
Type of derivative : Magnetic Field (with GIAOs) (Direction=X)
Multiplicity       :   1
Irrep              :   0
Relativity type    : 
Basis              : AO
 --------------
 Nucleus   3H :
 --------------

Diamagnetic contribution to the shielding tensor (ppm) : 
            27.715         -0.341         0.842
            -1.592         26.637        -2.760
             1.087         -2.810        38.184

Paramagnetic contribution to the shielding tensor (ppm): 
             0.381          1.050        -0.045
             2.366          1.730        -0.571
             0.054         -0.459        -4.180

Total shielding tensor (ppm): 
            28.096          0.709         0.796
             0.774         28.367        -3.331
             1.141         -3.268        34.004


 Diagonalized sT*s matrix:
 
 sDSO            27.363           26.710           38.463  iso=      30.845
 sPSO            -1.147            1.972           -2.894  iso=      -0.690
        ---------------  ---------------  ---------------
 Total           26.215           28.683           35.569  iso=      30.156

 Orientation: 
  X          -0.5026622    0.8608164    0.0795355
  Y           0.7713701    0.4881545   -0.4082809
  Z           0.3902805    0.1438760    0.9093849

 --------------
 Nucleus   4H :
 --------------

Diamagnetic contribution to the shielding tensor (ppm) : 
            28.912         -8.441        -1.131
           -10.110         35.845         2.849
            -1.170          1.757        22.433

Paramagnetic contribution to the shielding tensor (ppm): 
             0.512          5.843         1.003
             6.086         -0.916        -2.065
             1.470         -1.695         2.284

Total shielding tensor (ppm): 
            29.424         -2.597        -0.128
            -4.024         34.928         0.784
             0.300          0.062        24.718


 Diagonalized sT*s matrix:
 
 sDSO            22.265           22.972           41.953  iso=      29.063
 sPSO             2.422            4.920           -5.463  iso=       0.627
        ---------------  ---------------  ---------------
 Total           24.687           27.892           36.490  iso=      29.690

 Orientation: 
  X          -0.0546781    0.8994065   -0.4336799
  Y          -0.0664554    0.4300887    0.9003374
  Z           0.9962901    0.0780491    0.0362540

 --------------
 Nucleus   6H :
 --------------

Diamagnetic contribution to the shielding tensor (ppm) : 
            29.612          7.475        -1.594
             4.478         38.237        -1.577
            -1.122         -2.551        24.053

Paramagnetic contribution to the shielding tensor (ppm): 
             1.601         -5.505         1.536
             0.232         -6.550         0.197
             1.054          2.077         1.938

Total shielding tensor (ppm): 
            31.213          1.971        -0.058
             4.710         31.687        -1.380
            -0.068         -0.475        25.991


 Diagonalized sT*s matrix:
 
 sDSO            23.948           27.580           40.374  iso=      30.634
 sPSO             1.838            0.671           -5.520  iso=      -1.004
        ---------------  ---------------  ---------------
 Total           25.786           28.250           34.854  iso=      29.630

 Orientation: 
  X          -0.1172553   -0.7144377   -0.6898043
  Y           0.2303501    0.6560867   -0.7186718
  Z           0.9660176   -0.2431645    0.0876411

 --------------
 Nucleus   7H :
 --------------

Diamagnetic contribution to the shielding tensor (ppm) : 
            26.854         -0.684        -0.235
            -1.728         26.760         4.407
            -0.187          4.135        38.191

Paramagnetic contribution to the shielding tensor (ppm): 
             0.767          2.478         2.912
             2.368          1.754        -1.819
             0.553         -2.157        -6.319

Total shielding tensor (ppm): 
            27.621          1.793         2.677
             0.640         28.514         2.587
             0.366          1.977        31.873


 Diagonalized sT*s matrix:
 
 sDSO            27.737           26.230           37.838  iso=      30.602
 sPSO            -0.966            1.375           -4.207  iso=      -1.266
        ---------------  ---------------  ---------------
 Total           26.772           27.605           33.631  iso=      29.336

 Orientation: 
  X           0.7990544    0.5304867    0.2830122
  Y          -0.5993018    0.6647609    0.4460160
  Z           0.0484701   -0.5260007    0.8491018

 --------------
 Nucleus  10H :
 --------------

Diamagnetic contribution to the shielding tensor (ppm) : 
            29.612         -7.475        -1.595
            -4.478         38.237         1.578
            -1.123          2.553        24.054

Paramagnetic contribution to the shielding tensor (ppm): 
             1.602          5.504         1.537
            -0.232         -6.550        -0.197
             1.054         -2.078         1.938

Total shielding tensor (ppm): 
            31.213         -1.970        -0.058
            -4.710         31.686         1.381
            -0.069          0.476        25.991


 Diagonalized sT*s matrix:
 
 sDSO            23.949           27.580           40.373  iso=      30.634
 sPSO             1.838            0.671           -5.520  iso=      -1.004
        ---------------  ---------------  ---------------
 Total           25.786           28.251           34.854  iso=      29.630

 Orientation: 
  X          -0.1172259    0.7144215   -0.6898261
  Y          -0.2305053    0.6560722    0.7186352
  Z           0.9659842    0.2432512    0.0877693

 --------------
 Nucleus  11H :
 --------------

Diamagnetic contribution to the shielding tensor (ppm) : 
            26.853          0.684        -0.234
             1.728         26.760        -4.409
            -0.186         -4.137        38.191

Paramagnetic contribution to the shielding tensor (ppm): 
             0.768         -2.477         2.911
            -2.368          1.754         1.821
             0.552          2.159        -6.318

Total shielding tensor (ppm): 
            27.621         -1.793         2.677
            -0.640         28.514        -2.588
             0.366         -1.978        31.872


 Diagonalized sT*s matrix:
 
 sDSO            27.736           26.229           37.839  iso=      30.601
 sPSO            -0.964            1.376           -4.208  iso=      -1.265
        ---------------  ---------------  ---------------
 Total           26.772           27.604           33.631  iso=      29.336

 Orientation: 
  X           0.7989025   -0.5307057    0.2830305
  Y           0.5994898    0.6645476   -0.4460813
  Z           0.0486506    0.5260493    0.8490614

 --------------
 Nucleus  12H :
 --------------

Diamagnetic contribution to the shielding tensor (ppm) : 
            27.715          0.341         0.842
             1.593         26.638         2.761
             1.088          2.811        38.184

Paramagnetic contribution to the shielding tensor (ppm): 
             0.381         -1.050        -0.045
            -2.367          1.729         0.571
             0.053          0.458        -4.180

Total shielding tensor (ppm): 
            28.096         -0.709         0.797
            -0.774         28.367         3.332
             1.141          3.269        34.004


 Diagonalized sT*s matrix:
 
 sDSO            27.362           26.710           38.464  iso=      30.845
 sPSO            -1.147            1.973           -2.894  iso=      -0.690
        ---------------  ---------------  ---------------
 Total           26.215           28.683           35.570  iso=      30.156

 Orientation: 
  X           0.5026256    0.8608326    0.0795918
  Y           0.7713513   -0.4881338    0.4083413
  Z          -0.3903649    0.1438495    0.9093528

 --------------
 Nucleus  13H :
 --------------

Diamagnetic contribution to the shielding tensor (ppm) : 
            28.912          8.441        -1.131
            10.111         35.844        -2.850
            -1.172         -1.758        22.434

Paramagnetic contribution to the shielding tensor (ppm): 
             0.512         -5.843         1.003
            -6.086         -0.916         2.065
             1.471          1.695         2.284

Total shielding tensor (ppm): 
            29.424          2.597        -0.129
             4.024         34.928        -0.785
             0.299         -0.063        24.718


 Diagonalized sT*s matrix:
 
 sDSO            22.265           22.972           41.953  iso=      29.063
 sPSO             2.423            4.921           -5.463  iso=       0.627
        ---------------  ---------------  ---------------
 Total           24.688           27.892           36.490  iso=      29.690

 Orientation: 
  X          -0.0546391   -0.8993992   -0.4336999
  Y           0.0665290    0.4301043   -0.9003245
  Z           0.9962873   -0.0780466    0.0363356

 --------------
 Nucleus  14H :
 --------------

Diamagnetic contribution to the shielding tensor (ppm) : 
            29.574         -0.000        -4.853
            -0.000         25.459         0.000
            -4.673          0.000        36.575

Paramagnetic contribution to the shielding tensor (ppm): 
            -0.987          0.000         0.516
             0.000          3.180        -0.000
             1.294         -0.000        -3.139

Total shielding tensor (ppm): 
            28.588         -0.000        -4.337
            -0.000         28.639         0.000
            -3.380          0.000        33.436


 Diagonalized sT*s matrix:
 
 sDSO            27.173           25.459           38.976  iso=      30.536
 sPSO            -0.718            3.180           -3.408  iso=      -0.315
        ---------------  ---------------  ---------------
 Total           26.455           28.639           35.568  iso=      30.221

 Orientation: 
  X          -0.8789102    0.0000334   -0.4769874
  Y           0.0000200    1.0000000    0.0000332
  Z          -0.4769874   -0.0000196    0.8789102

 --------------
 Nucleus  15H :
 --------------

Diamagnetic contribution to the shielding tensor (ppm) : 
            40.620         -0.000         6.194
            -0.000         21.931         0.000
             6.108          0.000        23.940

Paramagnetic contribution to the shielding tensor (ppm): 
            -4.881          0.000        -3.683
             0.000          5.908        -0.000
            -2.754         -0.000         2.507

Total shielding tensor (ppm): 
            35.740         -0.000         2.511
             0.000         27.839         0.000
             3.354         -0.000        26.447


 Diagonalized sT*s matrix:
 
 sDSO            21.955           21.931           42.605  iso=      28.830
 sPSO             3.644            5.908           -6.018  iso=       1.178
        ---------------  ---------------  ---------------
 Total           25.599           27.839           36.587  iso=      30.008

 Orientation: 
  X          -0.2712708   -0.0000007    0.9625031
  Y          -0.0000002   -1.0000000   -0.0000008
  Z           0.9625031   -0.0000004    0.2712708



--------------------------------
CHEMICAL SHIELDING SUMMARY (ppm)
--------------------------------


  Nucleus  Element    Isotropic     Anisotropy
  -------  -------  ------------   ------------
      3       H           30.156          8.121 
      4       H           29.690         10.200 
      6       H           29.630          7.836 
      7       H           29.336          6.443 
     10       H           29.630          7.835 
     11       H           29.336          6.443 
     12       H           30.156          8.121 
     13       H           29.690         10.200 
     14       H           30.221          8.021 
     15       H           30.008          9.868 


NMR shielding tensor and spin rotation calculation done in   0.0 sec 

Maximum memory used throughout the entire PROP-calculation: 10.3 MB

--------------------------------
SUGGESTED CITATIONS FOR THIS RUN
--------------------------------

Below you find a list of papers that are relevant to this ORCA run
We neither can nor want to force you to cite these papers, but we appreciate if you do
You receive ORCA, which is the product of decades of hard work by many enthusiastic individuals, for free
The only thing we kindly ask in return is that you cite our papers,
We deeply appreciate it, if you show your appreciation for ORCA by not just citing the generic ORCA reference.

Please note that relegating all ORCA citations to the supporting information does *not* help us.
SI sections are not indexed - citations you put there will not count into any citation statistics
But we need these citations in order to attract the funding resources that allow us to do what we are doing

Therefore, if you are a happy ORCA user, please consider citing a few of the papers listed below in the main body of your paper

In addition to the list printed below, the program has created the file inpS.bibtex that contains the list in bibtex format
You can import this file easily into all common literature databanks and citation aid programs


List of essential papers. We consider these as the minimum necessary citations

  1. Neese,F.
     Software update: the ORCA program system, version 5.0
     WIRES Comput. Molec. Sci., 2022 12(1)e1606
     doi.org/10.1002/wcms.1606

List of papers to cite with high priority. The work reported in these papers was absolutely
necessary for this run to complete.
Our perspective: the developers of density functionals and basis sets usually get cited in chemistry papers
Good! But without the algorithms to do something with them, the functionals or basis sets would not do anything.
Hence, in our opinion, the algorithm design and method developments papers are equally worthy of getting cited

  1. Neese,F.
     An improvement of the resolution of the identity approximation for the formation of the Coulomb matrix
     J. Comp. Chem., 2003 24(14)1740-1747
     doi.org/10.1002/jcc.10318
  2. Stoychev,G.L.; Auer,A.A.; Izsak,R.; Neese,F.
     Self-Consistent Field Calculation of Nuclear Magnetic Resonance Chemical Shielding Constants Using Gauge-Including Atomic Orbitals and Approximate Two-Electron Integrals
     J. Chem. Theory Comput., 2018 14(2)619-637
     doi.org/10.1021/acs.jctc.7b01006
  3. Garcia-Rates,M.; Neese,F.
     Effect of the Solute Cavity on the Solvation Energy and its Derivatives within the Framework of the Gaussian Charge Scheme
     J. Comput. Chem., 2020 41 922-939
     doi.org/10.1002/jcc.26139
  4. Neese,F.
     The SHARK Integral Generation and Digestion System
     J. Comp. Chem., 2022  1-16
     doi.org/10.1002/jcc.26942

List of suggested additional citations. These are papers that are important in the 'surrounding' of 
of this run, or papers that preceded the highly important papers. If you like your results we are grateful for a citation.

  1. Neese,F.
     The ORCA program system
     WIRES Comput. Molec. Sci., 2012 2(1)73-78
     doi.org/10.1002/wcms.81
  2. Neese,F.
     Software update: the ORCA program system, version 4.0
     WIRES Comput. Molec. Sci., 2018 8(1)1-6
     doi.org/10.1002/wcms.1327
  3. Neese,F.; Wennmohs,F.; Becker,U.; Riplinger,C.
     The ORCA quantum chemistry program package
     J. Chem. Phys., 2020 152 Art. No. L224108
     doi.org/10.1063/5.0004608

Timings for individual modules:

Sum of individual times          ...        4.679 sec (=   0.078 min)
Startup calculation              ...        0.423 sec (=   0.007 min)   9.0 %
SCF iterations                   ...        2.576 sec (=   0.043 min)  55.1 %
Property integrals               ...        1.216 sec (=   0.020 min)  26.0 %
SCF Response                     ...        0.257 sec (=   0.004 min)   5.5 %
Property calculations            ...        0.207 sec (=   0.003 min)   4.4 %
                             ****ORCA TERMINATED NORMALLY****
TOTAL RUN TIME: 0 days 0 hours 0 minutes 4 seconds 847 msec
