
                                 *****************
                                 * O   R   C   A *
                                 *****************

                                            #,                                       
                                            ###                                      
                                            ####                                     
                                            #####                                    
                                            ######                                   
                                           ########,                                 
                                     ,,################,,,,,                         
                               ,,#################################,,                 
                          ,,##########################################,,             
                       ,#########################################, ''#####,          
                    ,#############################################,,   '####,        
                  ,##################################################,,,,####,       
                ,###########''''           ''''###############################       
              ,#####''   ,,,,##########,,,,          '''####'''          '####       
            ,##' ,,,,###########################,,,                        '##       
           ' ,,###''''                  '''############,,,                           
         ,,##''                                '''############,,,,        ,,,,,,###''
      ,#''                                            '''#######################'''  
     '                                                          ''''####''''         
             ,#######,   #######,   ,#######,      ##                                
            ,#'     '#,  ##    ##  ,#'     '#,    #''#        ,####,   ,####,        
            ##       ##  ##   ,#'  ##            #'  '#       #'       #'  '#        
            ##       ##  #######   ##           ,######,      #####,   #    #        
            '#,     ,#'  ##    ##  '#,     ,#' ,#      #,     #,   #   #,  ,#        
             '#######'   ##     ##  '#######'  #'      '#     '####' # '####'        



                #########################################################
                #                        -***-                          #
                #          Department of theory and spectroscopy        #
                #                                                       #
                #                      Frank Neese                      #
                #                                                       #
                #     Directorship, Architecture, Infrastructure        #
                #                    SHARK, DRIVERS                     #
                #        Core code/Algorithms in most modules           #
                #                                                       #
                #        Max Planck Institute fuer Kohlenforschung      #
                #                Kaiser Wilhelm Platz 1                 #
                #                 D-45470 Muelheim/Ruhr                 #
                #                      Germany                          #
                #                                                       #
                #                  All rights reserved                  #
                #                        -***-                          #
                #########################################################


                         Program Version 6.0.0  -   RELEASE  -


 With contributions from (in alphabetic order):
   Daniel Aravena         : Magnetic Suceptibility
   Michael Atanasov       : Ab Initio Ligand Field Theory (pilot matlab implementation)
   Alexander A. Auer      : GIAO ZORA, VPT2 properties, NMR spectrum
   Ute Becker             : All parallelization in ORCA, NUMFREQ, NUMCALC
   Giovanni Bistoni       : ED, misc. LED, open-shell LED, HFLD
   Martin Brehm           : Molecular dynamics
   Dmytro Bykov           : pre 5.0 version of the SCF Hessian
   Marcos Casanova-Páez   : Triplet and SCS-CIS(D). UHF-(DLPNO)-IP/EA/STEOM-CCSD. UHF-CVS-IP/STEOM-CCSD
   Vijay G. Chilkuri      : MRCI spin determinant printing, contributions to CSF-ICE
   Pauline Colinet        : FMM embedding
   Dipayan Datta          : RHF DLPNO-CCSD density
   Achintya Kumar Dutta   : EOM-CC, STEOM-CC
   Nicolas Foglia         : Exact transition moments, OPA infrastructure, MCD improvements
   Dmitry Ganyushin       : Spin-Orbit,Spin-Spin,Magnetic field MRCI
   Miquel Garcia          : C-PCM and meta-GGA Hessian, CCSD/C-PCM, Gaussian charge scheme
   Tiago L. C. Gouveia    : GS-ROHF, GS-ROCIS
   Yang Guo               : DLPNO-NEVPT2, F12-NEVPT2, CIM, IAO-localization
   Andreas Hansen         : Spin unrestricted coupled pair/coupled cluster methods
   Ingolf Harden          : AUTO-CI MPn and infrastructure 
   Benjamin Helmich-Paris : MC-RPA, TRAH-(SCF,CASSCF), AVAS, COSX integrals, SCF dyn. polar.
   Lee Huntington         : MR-EOM, pCC
   Robert Izsak           : Overlap fitted RIJCOSX, COSX-SCS-MP3, EOM
   Riya Kayal             : Wick's Theorem for AUTO-CI, AUTO-CI UHF-CCSDT
   Emily Kempfer          : AUTO-CI, RHF CISDT and CCSDT
   Christian Kollmar      : KDIIS, OOCD, Brueckner-CCSD(T), CCSD density, CASPT2, CASPT2-K, improved NEVPT2
   Axel Koslowski         : Symmetry handling
   Simone Kossmann        : Meta GGA functionals, TD-DFT gradient, OOMP2, (MP2 Hessian; deprecated post 5.0)
   Lucas Lang             : DCDCAS
   Marvin Lechner         : AUTO-CI (C++ implementation), FIC-MRCC
   Spencer Leger          : CASSCF response
   Dagmar Lenk            : GEPOL surface, SMD, ORCA-2-JSON
   Dimitrios Liakos       : Extrapolation schemes; Compound Job, initial MDCI parallelization
   Dimitrios Manganas     : Further ROCIS development; embedding schemes. LFT, Crystal Embedding
   Dimitrios Pantazis     : SARC Basis sets
   Anastasios Papadopoulos: AUTO-CI, single reference methods and gradients
   Taras Petrenko         : pre 6.0 DFT Hessian and TD-DFT gradient, (ASA, deprecated), ECA, 1-Electron XAS/XES, NRVS
   Peter Pinski           : DLPNO-MP2, DLPNO-MP2 Gradient
   Christoph Reimann      : Effective Core Potentials
   Marius Retegan         : Local ZFS, SOC
   Christoph Riplinger    : Optimizer, TS searches, QM/MM, DLPNO-CCSD(T), (RO)-DLPNO pert. Triples
   Michael Roemelt        : Original ROCIS implementation
   Masaaki Saitow         : Open-shell DLPNO-CCSD energy and density
   Barbara Sandhoefer     : DKH picture change effects
   Kantharuban Sivalingam : CASSCF convergence/infrastructure, NEVPT2 and variants, FIC-MRCI
   Bernardo de Souza      : ESD, SOC TD-DFT
   Georgi Stoychev        : AutoAux, RI-MP2 NMR, DLPNO-MP2 response, X2C
   Van Anh Tran           : RI-MP2 g-tensors
   Willem Van den Heuvel  : Paramagnetic NMR
   Zikuan Wang            : NOTCH, Electric field optimization 
   Frank Wennmohs         : Technical directorship and infrastructure
   Hang Xu                : AUTO-CI-Response properties 


 We gratefully acknowledge several colleagues who have allowed us to
 interface, adapt or use parts of their codes:
   Stefan Grimme, W. Hujo, H. Kruse, P. Pracht,  : VdW corrections, initial TS optimization,
                  C. Bannwarth, S. Ehlert,         DFT functionals, gCP, sTDA/sTD-DF
                  L. Wittmann, M. Mueller
   Ed Valeev, F. Pavosevic, A. Kumar             : LibInt (2-el integral package), F12 methods
   Garnet Chan, S. Sharma, J. Yang, R. Olivares  : DMRG
   Ulf Ekstrom                                   : XCFun DFT Library
   Mihaly Kallay                                 : mrcc  (arbitrary order and MRCC methods)
   Frank Weinhold                                : gennbo (NPA and NBO analysis)
   Simon Mueller                                 : openCOSMO-RS
   Christopher J. Cramer and Donald G. Truhlar   : smd solvation model
   Lars Goerigk                                  : TD-DFT with DH, B97 family of functionals
   V. Asgeirsson, H. Jonsson                     : NEB implementation
   FAccTs GmbH                                   : IRC, NEB, NEB-TS, DLPNO-Multilevel, CI-OPT
                                                   MM, QMMM, 2- and 3-layer-ONIOM, Crystal-QMMM,
                                                   LR-CPCM, SF, NACMEs, symmetry and pop. for TD-DFT,
                                                   nearIR, NL-DFT gradient (VV10), updates on ESD,
                                                   ML-optimized integration grids, MBIS, APM,
                                                   GOAT, DOCKER, SOLVATOR, interface openCOSMO-RS
   S Lehtola, MJT Oliveira, MAL Marques          : LibXC Library
   Liviu Ungur et al                             : ANISO software


 Your calculation uses the libint2 library for the computation of 2-el integrals
 For citations please refer to: http://libint.valeyev.net

 Your ORCA version has been built with support for libXC version: 6.2.2
 For citations please refer to: https://libxc.gitlab.io

 This ORCA versions uses:
   CBLAS   interface :  Fast vector & matrix operations
   LAPACKE interface :  Fast linear algebra routines
   SCALAPACK package :  Parallel linear algebra routines
   Shared memory     :  Shared parallel matrices
   BLAS/LAPACK       :  OpenBLAS 0.3.27  USE64BITINT DYNAMIC_ARCH NO_AFFINITY Zen SINGLE_THREADED
        Core in use  :  Zen
   Copyright (c) 2011-2014, The OpenBLAS Project


NOTE: MaxCore=8000 MB was set to SCF,MP2,MDCI,CIPSI,MRCI and CIS
      => If you want to overwrite this, your respective input block should be placed after the MaxCore statement
Your calculation utilizes the atom-pairwise dispersion correction
based on EEQ partial charges (D4)


================================================================================

----- Orbital basis set information -----
Your calculation utilizes the basis: pcJ-0
   F. Jensen, Theor. Chem. Acc. 126, 371 (2010).

----- AuxJ basis set information -----
Your calculation utilizes the auxiliary basis: def2/J
   F. Weigend, Phys. Chem. Chem. Phys. 8, 1057 (2006).

================================================================================
                                        WARNINGS
                       Please study these warnings very carefully!
================================================================================


================================================================================
                                       INPUT FILE
================================================================================
NAME = inpJ
|  1> ! pbe0
|  2> ! D4
|  3> ! pcJ-0
|  4> ! def2/J RIJCOSX
|  5> ! DEFGRID2
|  6> ! scfconv7
|  7> ! smallprint printgap noloewdin
|  8> ! NOSOSCF
|  9> %MaxCore 8000
| 10> %output
| 11>        print[P_BondOrder_M] 1
| 12>        print[P_Mayer] 1
| 13>        print[P_basis] 2
| 14> end
| 15> %pal
| 16>     nprocs 8
| 17> end
| 18> ! CPCM(chloroform)
| 19> *xyz 0 1
| 20> C    1.8550841941  -0.0000230069  -0.0942913024
| 21> C    1.0770159050  -1.2573667318   0.2911791006
| 22> C   -0.3148642869  -1.2764668786  -0.3688248092
| 23> H    0.9559781451  -1.2903547026   1.3825699956
| 24> H    1.6258162000  -2.1608840521   0.0022326674
| 25> C   -1.0750350549  -0.0000006200  -0.0935243725
| 26> H   -0.9143477918  -2.1312867807  -0.0418141347
| 27> H   -0.1846991187  -1.3448058075  -1.4597766811
| 28> C   -0.3148692738   1.2764805951  -0.3687737198
| 29> C    1.0770613277   1.2573624165   0.2911252729
| 30> H   -0.9143347268   2.1312532152  -0.0415985531
| 31> H   -0.1848155688   1.3449991629  -1.4597251664
| 32> H    0.9560944623   1.2904645738   1.3825203588
| 33> H    1.6258590988   2.1608542092   0.0020900690
| 34> H    2.0390381543  -0.0000498563  -1.1783426484
| 35> H    2.8349659186  -0.0000210637   0.3980405588
| 36> O   -2.2237864696   0.0000000388   0.3214404209
| 37> *
| 38> %eprnmr
| 39>  Nuclei = all H { ssfc }
| 40>  SpinSpinRThresh 8.0
| 41> end
| 42> 
| 43>                          ****END OF INPUT****
================================================================================

                       ****************************
                       * Single Point Calculation *
                       ****************************

---------------------------------
CARTESIAN COORDINATES (ANGSTROEM)
---------------------------------
  C      1.855084   -0.000023   -0.094291
  C      1.077016   -1.257367    0.291179
  C     -0.314864   -1.276467   -0.368825
  H      0.955978   -1.290355    1.382570
  H      1.625816   -2.160884    0.002233
  C     -1.075035   -0.000001   -0.093524
  H     -0.914348   -2.131287   -0.041814
  H     -0.184699   -1.344806   -1.459777
  C     -0.314869    1.276481   -0.368774
  C      1.077061    1.257362    0.291125
  H     -0.914335    2.131253   -0.041599
  H     -0.184816    1.344999   -1.459725
  H      0.956094    1.290465    1.382520
  H      1.625859    2.160854    0.002090
  H      2.039038   -0.000050   -1.178343
  H      2.834966   -0.000021    0.398041
  O     -2.223786    0.000000    0.321440

----------------------------
CARTESIAN COORDINATES (A.U.)
----------------------------
  NO LB      ZA    FRAG     MASS         X           Y           Z
   0 C     6.0000    0    12.011    3.505601   -0.000043   -0.178185
   1 C     6.0000    0    12.011    2.035265   -2.376079    0.550249
   2 C     6.0000    0    12.011   -0.595007   -2.412173   -0.696978
   3 H     1.0000    0     1.008    1.806537   -2.438417    2.612679
   4 H     1.0000    0     1.008    3.072347   -4.083479    0.004219
   5 C     6.0000    0    12.011   -2.031522   -0.000001   -0.176735
   6 H     1.0000    0     1.008   -1.727867   -4.027548   -0.079017
   7 H     1.0000    0     1.008   -0.349031   -2.541315   -2.758578
   8 C     6.0000    0    12.011   -0.595017    2.412199   -0.696881
   9 C     6.0000    0    12.011    2.035351    2.376071    0.550147
  10 H     1.0000    0     1.008   -1.727842    4.027485   -0.078610
  11 H     1.0000    0     1.008   -0.349251    2.541680   -2.758481
  12 H     1.0000    0     1.008    1.806757    2.438625    2.612585
  13 H     1.0000    0     1.008    3.072428    4.083423    0.003950
  14 H     1.0000    0     1.008    3.853224   -0.000094   -2.226745
  15 H     1.0000    0     1.008    5.357309   -0.000040    0.752188
  16 O     8.0000    0    15.999   -4.202347    0.000000    0.607434

--------------------------------
INTERNAL COORDINATES (ANGSTROEM)
--------------------------------
 C      0   0   0     0.000000000000     0.00000000     0.00000000
 C      1   0   0     1.528034991955     0.00000000     0.00000000
 C      2   1   0     1.540551993658   111.23422425     0.00000000
 H      2   1   3     1.098577458001   109.35529974   239.54574965
 H      2   1   3     1.095908460198   110.90947873   121.77621693
 C      3   2   1     1.510965266415   111.47021796   307.29325063
 H      3   2   1     1.094090270001   112.12865595   184.42868196
 H      3   2   1     1.100812957326   108.57338257    64.92231994
 C      6   3   2     1.510966085141   115.30243576    49.76708691
 C      1   2   3     1.528032597864   110.74513055    57.36706791
 H      9   6   3     1.094092615421   109.26209932   185.75123385
 H      9   6   3     1.100810528273   107.01118672    68.81172008
 H     10   1   2     1.098577247566   109.35631786    63.09230130
 H     10   1   2     1.095909559286   110.90999684   180.86010339
 H      1   2   3     1.099548262223   109.50433015   296.50834780
 H      1   2   3     1.096612445473   109.98281727   179.14026005
 O      6   3   2     1.221403124500   122.34930637   229.71355963

---------------------------
INTERNAL COORDINATES (A.U.)
---------------------------
 C      0   0   0     0.000000000000     0.00000000     0.00000000
 C      1   0   0     2.887567657843     0.00000000     0.00000000
 C      2   1   0     2.911221363079   111.23422425     0.00000000
 H      2   1   3     2.076010532521   109.35529974   239.54574965
 H      2   1   3     2.070966857621   110.90947873   121.77621693
 C      3   2   1     2.855310551392   111.47021796   307.29325063
 H      3   2   1     2.067530976089   112.12865595   184.42868196
 H      3   2   1     2.080235014019   108.57338257    64.92231994
 C      6   3   2     2.855312098560   115.30243576    49.76708691
 C      1   2   3     2.887563133668   110.74513055    57.36706791
 H      9   6   3     2.067535408291   109.26209932   185.75123385
 H      9   6   3     2.080230423773   107.01118672    68.81172008
 H     10   1   2     2.076010134856   109.35631786    63.09230130
 H     10   1   2     2.070968934597   110.90999684   180.86010339
 H      1   2   3     2.077845086631   109.50433015   296.50834780
 H      1   2   3     2.072297196993   109.98281727   179.14026005
 O      6   3   2     2.308117404420   122.34930637   229.71355963

---------------------
BASIS SET INFORMATION
---------------------
There are 3 groups of distinct atoms

 Group   1 Type C   : 7s4p contracted to 4s3p pattern {4111/211}
 Group   2 Type H   : 5s contracted to 3s pattern {311}
 Group   3 Type O   : 7s4p contracted to 4s3p pattern {4111/211}

Atom   0C    basis set group =>   1
Atom   1C    basis set group =>   1
Atom   2C    basis set group =>   1
Atom   3H    basis set group =>   2
Atom   4H    basis set group =>   2
Atom   5C    basis set group =>   1
Atom   6H    basis set group =>   2
Atom   7H    basis set group =>   2
Atom   8C    basis set group =>   1
Atom   9C    basis set group =>   1
Atom  10H    basis set group =>   2
Atom  11H    basis set group =>   2
Atom  12H    basis set group =>   2
Atom  13H    basis set group =>   2
Atom  14H    basis set group =>   2
Atom  15H    basis set group =>   2
Atom  16O    basis set group =>   3

-------------------------
BASIS SET IN INPUT FORMAT
-------------------------

 # Basis set for element : H 
 NewGTO H 
 S 3 
   1    1357.7500000000      0.0012928364
   2      54.3100000000      0.0588280685
   3       4.3448000000      0.9761499708
 S 1 
   1       0.6604910000      1.0000000000
 S 1 
   1       0.1366870000      1.0000000000
  end;

 # Basis set for element : C 
 NewGTO C 
 S 4 
   1  139534.0000000000      0.0001655246
   2    5581.3600000000      0.0074486101
   3     446.5090000000      0.1285821065
   4      67.4620000000      0.9218029311
 S 1 
   1      15.0674000000      1.0000000000
 S 1 
   1       3.9387600000      1.0000000000
 S 1 
   1       0.2999150000      1.0000000000
 P 2 
   1      28.3900000000      0.0816325586
   2       4.3676900000      0.9660360576
 P 1 
   1       0.8698170000      1.0000000000
 P 1 
   1       0.1889340000      1.0000000000
  end;

 # Basis set for element : O 
 NewGTO O 
 S 4 
   1  253789.0000000000      0.0001641076
   2   10151.6000000000      0.0074010921
   3     812.1250000000      0.1277711901
   4     122.6930000000      0.9223372164
 S 1 
   1      27.5608000000      1.0000000000
 S 1 
   1       7.3172600000      1.0000000000
 S 1 
   1       0.5792400000      1.0000000000
 P 2 
   1      53.4157000000      0.0793786106
   2       8.2177900000      0.9670506337
 P 1 
   1       1.6754400000      1.0000000000
 P 1 
   1       0.3506720000      1.0000000000
  end;

---------------------------------
AUXILIARY/J BASIS SET INFORMATION
---------------------------------
There are 3 groups of distinct atoms

 Group   1 Type C   : 12s5p4d2f1g contracted to 6s4p3d1f1g pattern {711111/2111/211/2/1}
 Group   2 Type H   : 5s2p1d contracted to 3s1p1d pattern {311/2/1}
 Group   3 Type O   : 12s5p4d2f1g contracted to 6s4p3d1f1g pattern {711111/2111/211/2/1}

Atom   0C    basis set group =>   1
Atom   1C    basis set group =>   1
Atom   2C    basis set group =>   1
Atom   3H    basis set group =>   2
Atom   4H    basis set group =>   2
Atom   5C    basis set group =>   1
Atom   6H    basis set group =>   2
Atom   7H    basis set group =>   2
Atom   8C    basis set group =>   1
Atom   9C    basis set group =>   1
Atom  10H    basis set group =>   2
Atom  11H    basis set group =>   2
Atom  12H    basis set group =>   2
Atom  13H    basis set group =>   2
Atom  14H    basis set group =>   2
Atom  15H    basis set group =>   2
Atom  16O    basis set group =>   3

-------------------------------------
AUXILIARY/J BASIS SET IN INPUT FORMAT
-------------------------------------

 # Auxiliary/J basis set for element : H 
 NewAuxJGTO H 
 S 3 
   1      15.6752927000      0.1007184237
   2       3.6063578000      0.3404257499
   3       1.2080016000      0.6491996172
 S 1 
   1       0.4726794000      1.0000000000
 S 1 
   1       0.2018100000      1.0000000000
 P 2 
   1       2.0281365000      0.5596620919
   2       0.5358730000      0.5596620919
 D 1 
   1       2.2165124000      1.0000000000
  end;

 # Auxiliary/J basis set for element : C 
 NewAuxJGTO C 
 S 7 
   1    1861.0916331000      0.0134602335
   2     642.9939764000      0.0299160374
   3     235.1105725000      0.1008649584
   4      90.7028894000      0.2370970548
   5      36.7794552000      0.3924037254
   6      15.6046273000      0.3195862154
   7       6.8907294000      0.0530104441
 S 1 
   1       3.1478850000     -1.0000000000
 S 1 
   1       1.4777287000      1.0000000000
 S 1 
   1       0.7076466000      1.0000000000
 S 1 
   1       0.3430122000      1.0000000000
 S 1 
   1       0.1669453000      1.0000000000
 P 2 
   1      13.5472892000     -0.6769313712
   2       5.4669419000     -0.3779500978
 P 1 
   1       2.1751721000      1.0000000000
 P 1 
   1       0.8582194000      1.0000000000
 P 1 
   1       0.3376720000      1.0000000000
 D 2 
   1       5.9287253000     -0.3533329857
   2       1.9809209000     -0.7456525731
 D 1 
   1       0.8055417000     -1.0000000000
 D 1 
   1       0.3531244000     -1.0000000000
 F 2 
   1       1.6755626000      0.6311076882
   2       0.5997536000      0.4968166032
 G 1 
   1       1.0024600000     -1.0000000000
  end;

 # Auxiliary/J basis set for element : O 
 NewAuxJGTO O 
 S 7 
   1    2876.8216605000      0.0168151159
   2    1004.7443032000      0.0340137548
   3     369.7579954000      0.1194951309
   4     142.9442404000      0.2664627624
   5      57.8366425000      0.4202764046
   6      24.3864983000      0.2765077335
   7      10.6622662000      0.0057008815
 S 1 
   1       4.8070437000     -1.0000000000
 S 1 
   1       2.2210770000      1.0000000000
 S 1 
   1       1.0447795000      1.0000000000
 S 1 
   1       0.4968425000      1.0000000000
 S 1 
   1       0.2371384000      1.0000000000
 P 2 
   1      64.2613382000     -0.2731534179
   2      16.3006076000     -0.8168011598
 P 1 
   1       4.3550542000      1.0000000000
 P 1 
   1       1.2019554000      1.0000000000
 P 1 
   1       0.3354196000      1.0000000000
 D 2 
   1       9.2146611000     -0.4661230638
   2       2.8435251000     -0.6600908911
 D 1 
   1       0.9955759000     -1.0000000000
 D 1 
   1       0.3649441000     -1.0000000000
 F 2 
   1       2.6420115000      0.5931563945
   2       0.7345613000      0.5931563945
 G 1 
   1       1.3931000000     -1.0000000000
  end;



           ************************************************************
           *        Program running with 8 parallel MPI-processes     *
           *              working on a common directory               *
           ************************************************************
------------------------------------------------------------------------------
                             ORCA STARTUP CALCULATIONS
                           -- RI-GTO INTEGRALS CHOSEN --
------------------------------------------------------------------------------
------------------------------------------------------------------------------
                   ___                                                        
                  /   \      - P O W E R E D   B Y -                         
                 /     \                                                     
                 |  |  |   _    _      __       _____    __    __             
                 |  |  |  | |  | |    /  \     |  _  \  |  |  /  |          
                  \  \/   | |  | |   /    \    | | | |  |  | /  /          
                 / \  \   | |__| |  /  /\  \   | |_| |  |  |/  /          
                |  |  |   |  __  | /  /__\  \  |    /   |      \           
                |  |  |   | |  | | |   __   |  |    \   |  |\   \          
                \     /   | |  | | |  |  |  |  | |\  \  |  | \   \       
                 \___/    |_|  |_| |__|  |__|  |_| \__\ |__|  \__/        
                                                                              
                      - O R C A' S   B I G   F R I E N D -                    
                                      &                                       
                       - I N T E G R A L  F E E D E R -                       
                                                                              
 v1 FN, 2020, v2 2021, v3 2022-2024                                           
------------------------------------------------------------------------------


----------------------
SHARK INTEGRAL PACKAGE
----------------------

Number of atoms                             ...     17
Number of basis functions                   ...    121
Number of shells                            ...     79
Maximum angular momentum                    ...      1
Integral batch strategy                     ... SHARK/LIBINT Hybrid
RI-J (if used) integral strategy            ... SPLIT-RIJ (Revised 2003 algorithm where possible)
Printlevel                                  ...      1
Contraction scheme used                     ... SEGMENTED contraction
Prescreening option                         ... SCHWARTZ
   Thresh                                   ... 3.000e-11
   Tcut                                     ... 1.000e-12
   Tpresel                                  ... 1.000e-12 
Coulomb Range Separation                    ... NOT USED
Exchange Range Separation                   ... NOT USED
Multipole approximations                    ... NOT USED
Finite Nucleus Model                        ... NOT USED
CABS basis                                  ... NOT available
Auxiliary Coulomb fitting basis             ... AVAILABLE
   # of basis functions in Aux-J            ...    453
   # of shells in Aux-J                     ...    155
   Maximum angular momentum in Aux-J        ...      4
Auxiliary J/K fitting basis                 ... NOT available
Auxiliary Correlation fitting basis         ... NOT available
Auxiliary 'external' fitting basis          ... NOT available

Checking pre-screening integrals            ... done (  0.0 sec) Dimension = 79
Check shell pair data                       ... done (  0.0 sec)
Shell pair information
Shell pair cut-off parameter TPreSel        ...   1.0e-12
Total number of shell pairs                 ...      3160
Shell pairs after pre-screening             ...      2424
Total number of primitive shell pairs       ...      8207
Primitive shell pairs kept                  ...      4547
          la=0 lb=0:   1217 shell pairs
          la=1 lb=0:    997 shell pairs
          la=1 lb=1:    210 shell pairs

Calculating one electron integrals          ... done (  0.0 sec)
Calculating RI/J V-Matrix + Cholesky decomp.... done (  0.0 sec)
Calculating Nuclear repulsion               ... done (  0.0 sec) ENN=    309.821517093651 Eh

Diagonalization of the overlap matrix:
Smallest eigenvalue                        ... 2.146e-02
Time for diagonalization                   ...    0.001 sec
Threshold for overlap eigenvalues          ... 1.000e-07
Number of eigenvalues below threshold      ... 0
Time for construction of square roots      ...    0.001 sec
Total time needed                          ...    0.002 sec

-------------------
DFT GRID GENERATION
-------------------

General Integration Accuracy     IntAcc      ... 4.388
Radial Grid Type                 RadialGrid  ... OptM3 with GC (2021)
Angular Grid (max. ang.)         AngularGrid ... 4 (Lebedev-302)
Angular grid pruning method      GridPruning ... 4 (adaptive)
Weight generation scheme         WeightScheme... mBecke (2022)
Basis function cutoff            BFCut       ... 1.0000e-11
Integration weight cutoff        WCut        ... 1.0000e-14
Partially contracted basis set               ... off
Rotationally invariant grid construction     ... off
Angular grids for H and He will be reduced by one unit

Total number of grid points                  ...    73947
Total number of batches                      ...     1162
Average number of points per batch           ...       63
Average number of grid points per atom       ...     4350

--------------------
COSX GRID GENERATION
--------------------

GRIDX 1
-------
General Integration Accuracy     IntAcc      ... 3.816
Radial Grid Type                 RadialGrid  ... OptM3 with GC (2021)
Angular Grid (max. ang.)         AngularGrid ... 1 (Lebedev-50)
Angular grid pruning method      GridPruning ... 4 (adaptive)
Weight generation scheme         WeightScheme... mBecke (2022)
Basis function cutoff            BFCut       ... 1.0000e-11
Integration weight cutoff        WCut        ... 1.0000e-14
Partially contracted basis set               ... on
Rotationally invariant grid construction     ... off
Angular grids for H and He will be reduced by one unit

Total number of grid points                  ...     9472
Total number of batches                      ...       87
Average number of points per batch           ...      108
Average number of grid points per atom       ...      557
UseSFitting                                  ... on

GRIDX 2
-------
General Integration Accuracy     IntAcc      ... 4.020
Radial Grid Type                 RadialGrid  ... OptM3 with GC (2021)
Angular Grid (max. ang.)         AngularGrid ... 2 (Lebedev-110)
Angular grid pruning method      GridPruning ... 4 (adaptive)
Weight generation scheme         WeightScheme... mBecke (2022)
Basis function cutoff            BFCut       ... 1.0000e-11
Integration weight cutoff        WCut        ... 1.0000e-14
Partially contracted basis set               ... on
Rotationally invariant grid construction     ... off
Angular grids for H and He will be reduced by one unit

Total number of grid points                  ...    20105
Total number of batches                      ...      166
Average number of points per batch           ...      121
Average number of grid points per atom       ...     1183
UseSFitting                                  ... on

GRIDX 3
-------
General Integration Accuracy     IntAcc      ... 4.338
Radial Grid Type                 RadialGrid  ... OptM3 with GC (2021)
Angular Grid (max. ang.)         AngularGrid ... 3 (Lebedev-194)
Angular grid pruning method      GridPruning ... 4 (adaptive)
Weight generation scheme         WeightScheme... mBecke (2022)
Basis function cutoff            BFCut       ... 1.0000e-11
Integration weight cutoff        WCut        ... 1.0000e-14
Partially contracted basis set               ... on
Rotationally invariant grid construction     ... off
Angular grids for H and He will be reduced by one unit

Total number of grid points                  ...    43891
Total number of batches                      ...      353
Average number of points per batch           ...      124
Average number of grid points per atom       ...     2582
UseSFitting                                  ... on
Initializing property integral containers    ... done (  0.0 sec)

SHARK setup successfully completed in   0.4 seconds

Maximum memory used throughout the entire STARTUP-calculation: 20.5 MB


           ************************************************************
           *        Program running with 8 parallel MPI-processes     *
           *              working on a common directory               *
           ************************************************************
-------------------------------------------------------------------------------
                                 ORCA GUESS
                   Start orbitals & Density for SCF / CASSCF
-------------------------------------------------------------------------------

------------
SCF SETTINGS
------------
Hamiltonian:
 Density Functional     Method          .... DFT(GTOs)
 Exchange Functional    Exchange        .... PBE
   PBE kappa parameter   XKappa         ....  0.804000
   PBE mue parameter    XMuePBE         ....  0.219520
 Correlation Functional Correlation     .... PBE
   PBE beta parameter  CBetaPBE         ....  0.066725
 LDA part of GGA corr.  LDAOpt          .... PW91-LDA
 Gradients option       PostSCFGGA      .... off
 Hybrid DFT is turned on
   Fraction HF Exchange ScalHFX         ....  0.250000
   Scaling of DF-GGA-X  ScalDFX         ....  0.750000
   Scaling of DF-GGA-C  ScalDFC         ....  1.000000
   Scaling of DF-LDA-C  ScalLDAC        ....  1.000000
   Perturbative correction              ....  0.000000
   NL short-range parameter             ....  6.900000
 RI-approximation to the Coulomb term is turned on
   Number of AuxJ basis functions       .... 453
   RIJ-COSX (HFX calculated with COS-X)).... on


General Settings:
 Integral files         IntName         .... inpJ
 Hartree-Fock type      HFTyp           .... RHF
 Total Charge           Charge          ....    0
 Multiplicity           Mult            ....    1
 Number of Electrons    NEL             ....   54
 Basis Dimension        Dim             ....  121
 Nuclear Repulsion      ENuc            ....    309.8215170937 Eh

Convergence Acceleration:
 AO-DIIS                CNVDIIS         .... on
   Start iteration      DIISMaxIt       ....    12
   Startup error        DIISStart       ....  0.200000
   # of expansion vecs  DIISMaxEq       ....     5
   Bias factor          DIISBfac        ....   1.050
   Max. coefficient     DIISMaxC        ....  10.000
 MO-DIIS                CNVKDIIS        .... off
 Trust-Rad. Augm. Hess. CNVTRAH         .... auto
   Auto Start mean grad. ratio tolernc. ....  1.125000
   Auto Start start iteration           ....    50
   Auto Start num. interpolation iter.  ....    10
   Max. Number of Micro iterations      ....    24
   Max. Number of Macro iterations      .... Maxiter - #DIIS iter
   Number of Davidson start vectors     ....     2
   Converg. threshold    (grad. norm)   ....   1.000e-04
   Grad. Scal. Fac. for Micro threshold ....   0.100
   Minimum threshold for Micro iter.    ....   1.000e-02
   NR start threshold (gradient norm)   ....   1.000e-04
   Initial trust radius                 ....   0.400
   Minimum AH scaling param. (alpha)    ....   1.000
   Maximum AH scaling param. (alpha)    .... 1000.000
   Quad. conv. algorithm                .... NR
   White noise on init. David. guess    .... on
   Maximum white noise                  ....   0.010
   Pseudo random numbers                .... off
   Inactive MOs                         .... canonical
   Orbital update algorithm             .... Taylor
   Preconditioner                       .... Diag
   Full preconditioner red. dimension   ....   250
 SOSCF                  CNVSOSCF        .... off
 Level Shifting         CNVShift        .... on
   Level shift para.    LevelShift      ....    0.2500
   Turn off err/grad.   ShiftErr        ....    0.0010
 Zerner damping         CNVZerner       .... off
 Static damping         CNVDamp         .... on
   Fraction old density DampFac         ....    0.7000
   Max. Damping (<1)    DampMax         ....    0.9800
   Min. Damping (>=0)   DampMin         ....    0.0000
   Turn off err/grad.   DampErr         ....    0.1000

SCF Procedure:
 Maximum # iterations   MaxIter         ....   125
 SCF integral mode      SCFMode         .... Direct
   Integral package                     .... SHARK and LIBINT hybrid scheme
 Reset frequency        DirectResetFreq ....    20
 Integral Threshold     Thresh          ....  3.000e-11 Eh
 Primitive CutOff       TCut            ....  1.000e-12 Eh

Convergence Tolerance:
 Convergence Check Mode ConvCheckMode   .... Total+1el-Energy
 Convergence forced     ConvForced      .... 0
 Energy Change          TolE            ....  1.000e-07 Eh
 1-El. energy change                    ....  1.000e-04 Eh
 DIIS Error             TolErr          ....  1.000e-07

------------------------------
INITIAL GUESS: MODEL POTENTIAL
------------------------------
Loading Hartree-Fock densities                     ... done
Calculating cut-offs                               ... done
Initializing the effective Hamiltonian             ... done
Setting up the integral package (SHARK)            ... done
Starting the Coulomb interaction                   ... done (   0.0 sec)
Making the grid                                    ... done (   0.0 sec)
Mapping shells                                     ... done
Starting the XC term evaluation                    ... done (   0.0 sec)
  promolecular density results
     # of electrons  =     53.993041597
     EX              =    -41.783021649
     EC              =     -1.783987743
     EX+EC           =    -43.567009393
Transforming the Hamiltonian                       ... done (   0.0 sec)
Diagonalizing the Hamiltonian                      ... done (   0.0 sec)
Back transforming the eigenvectors                 ... done (   0.0 sec)
Now organizing SCF variables                       ... done
                      ------------------
                      INITIAL GUESS DONE (   0.1 sec)
                      ------------------
             **** ENERGY FILE WAS UPDATED (inpJ.en.tmp) ****
Finished Guess after   0.1 sec
Maximum memory used throughout the entire GUESS-calculation: 10.9 MB


           ************************************************************
           *        Program running with 8 parallel MPI-processes     *
           *              working on a common directory               *
           ************************************************************

-------------------------------------------------------------------------------------------
                                      ORCA LEAN-SCF
                              memory conserving SCF solver
-------------------------------------------------------------------------------------------

--------------------
CPCM SOLVATION MODEL
--------------------
CPCM parameters:
  Epsilon                                         ...       4.8030
  Refrac                                          ...       1.4459
  Rsolv                                           ...       1.3000
  Surface type                                    ... GAUSSIAN VDW
  Discretization scheme                           ... Constant charge density
    Threshold for H atoms                         ...       5.0000 (charges/Ang^2)
    Threshold for non-H atoms                     ...       5.0000 (charges/Ang^2)
  Epsilon function type                           ...         CPCM
Solvent:                                          ... CHLOROFORM
Radii:
  Scheme                                          ... Element-dependent radii
  Radius for C  used is    3.8550 Bohr (=   2.0400 Ang.)
  Radius for H  used is    2.4944 Bohr (=   1.3200 Ang.)
  Radius for O  used is    3.4469 Bohr (=   1.8240 Ang.)
Calculating surface                               ...        done! (  0.0s)
Cavity surface points                             ...         1441
Cavity Volume                                     ...     904.2545
Cavity Surface-area                               ...     521.4218
Calculating surface distance matrix               ...        done! (  0.0s)
Performing Cholesky decomposition & store         ...        done! (  0.0s)
Overall time for CPCM initialization              ...                 0.1s

----------------------------------------D-I-I-S--------------------------------------------
Iteration    Energy (Eh)           Delta-E    RMSDP     MaxDP     DIISErr   Damp  Time(sec)
-------------------------------------------------------------------------------------------
               ***  Starting incremental Fock matrix formation  ***
    1    -308.8687788171312718     0.00e+00  3.28e-03  8.05e-02  1.99e-01  0.700   0.2

  HOMO=  26 E= -3.912 eV LUMO=  7.446 eV gap=  11.358 eV
    2    -308.9360327514237383    -6.73e-02  2.25e-03  4.59e-02  8.71e-02  0.700   0.1

  HOMO=  26 E= -5.573 eV LUMO=  7.046 eV gap=  12.619 eV
                               ***Turning on AO-DIIS***
    3    -308.9635446514815271    -2.75e-02  9.16e-04  1.95e-02  3.71e-02  0.700   0.1

  HOMO=  26 E= -6.978 eV LUMO=  6.457 eV gap=  13.435 eV
    4    -308.9798643722697875    -1.63e-02  1.41e-03  2.43e-02  2.65e-02  0.000   0.1

  HOMO=  26 E= -7.027 eV LUMO=  6.361 eV gap=  13.388 eV
    5    -309.0154670870895757    -3.56e-02  2.42e-04  4.64e-03  3.50e-03  0.000   0.1

  HOMO=  26 E= -7.069 eV LUMO=  6.307 eV gap=  13.376 eV
    6    -309.0155610697552788    -9.40e-05  7.18e-05  1.32e-03  1.60e-03  0.000   0.1

  HOMO=  26 E= -7.055 eV LUMO=  6.335 eV gap=  13.389 eV
    7    -309.0155684433565852    -7.37e-06  2.19e-05  4.93e-04  6.02e-04  0.000   0.1

  HOMO=  26 E= -7.043 eV LUMO=  6.341 eV gap=  13.384 eV
               *** Restarting incremental Fock matrix formation ***
                             ****Resetting DIIS****
    8    -309.0155605059032382     7.94e-06  1.37e-05  3.78e-04  1.07e-04  0.000   0.2

  HOMO=  26 E= -7.043 eV LUMO= -0.463 eV gap=   6.580 eV
    9    -309.0155606084327360    -1.03e-07  3.48e-06  1.56e-04  7.48e-05  0.000   0.2

  HOMO=  26 E= -7.042 eV LUMO= -0.461 eV gap=   6.581 eV
   10    -309.0155606178983021    -9.47e-09  1.53e-06  4.68e-05  4.06e-05  0.000   0.1
                 **** Energy Check signals convergence ****

  HOMO=  26 E= -7.042 eV LUMO= -0.461 eV gap=   6.581 eV

               *****************************************************
               *                     SUCCESS                       *
               *           SCF CONVERGED AFTER  10 CYCLES          *
               *****************************************************

Recomputing exchange energy using gridx3       ... done (    0.208 sec)
Old exchange energy                            :    -10.670983899 Eh
New exchange energy                            :    -10.670946638 Eh
Exchange energy change after final integration :      0.000037261 Eh
Total energy after final integration           :   -309.015523357 Eh
             **** ENERGY FILE WAS UPDATED (inpJ.en.tmp) ****

----------------
TOTAL SCF ENERGY
----------------

Total Energy       :       -309.01552335685773 Eh           -8408.73988 eV

Components:
Nuclear Repulsion  :        309.82151709365127 Eh            8430.67209 eV
Electronic Energy  :       -618.82932435900079 Eh          -16839.20200 eV
One Electron Energy:      -1030.70182397468216 Eh          -28046.82250 eV
Two Electron Energy:        411.87249961568136 Eh           11207.62050 eV
CPCM Dielectric    :         -0.00775335254880 Eh              -0.21098 eV

Virial components:
Potential Energy   :       -615.87103268088163 Eh          -16758.70280 eV
Kinetic Energy     :        306.85550932402396 Eh            8349.96291 eV
Virial Ratio       :          2.00703918934873

DFT components:
N(Alpha)           :       27.000043814923 electrons
N(Beta)            :       27.000043814923 electrons
N(Total)           :       54.000087629845 electrons
E(X)               :      -31.931038140177 Eh       
E(C)               :       -1.794507465479 Eh       
E(XC)              :      -33.725545605656 Eh       

CPCM Solvation Model Properties:
Surface-charge          :         -0.01542162072826
Corrected charge        :          0.00000000000000
Outlying charge corr.   :          0.00001508856550 Eh               0.00041 eV
Free-energy (cav+disp)  :  This term is not implemented in the current solvation scheme

---------------
SCF CONVERGENCE
---------------

  Last Energy change         ...    9.4656e-09  Tolerance :   1.0000e-07
  Last MAX-Density change    ...    4.6776e-05  Tolerance :   1.0000e-05
  Last RMS-Density change    ...    1.5309e-06  Tolerance :   1.0000e-06
  Last DIIS Error            ...    4.0623e-05  Tolerance :   1.0000e-07


----------------
ORBITAL ENERGIES
----------------

  NO   OCC          E(Eh)            E(eV) 
   0   2.0000     -19.232575      -523.3450 
   1   2.0000     -10.353393      -281.7301 
   2   2.0000     -10.251009      -278.9441 
   3   2.0000     -10.250839      -278.9395 
   4   2.0000     -10.250368      -278.9267 
   5   2.0000     -10.250270      -278.9240 
   6   2.0000     -10.245153      -278.7848 
   7   2.0000      -1.086800       -29.5733 
   8   2.0000      -0.867103       -23.5951 
   9   2.0000      -0.785707       -21.3802 
  10   2.0000      -0.757226       -20.6052 
  11   2.0000      -0.654862       -17.8197 
  12   2.0000      -0.614684       -16.7264 
  13   2.0000      -0.552932       -15.0460 
  14   2.0000      -0.497993       -13.5511 
  15   2.0000      -0.484264       -13.1775 
  16   2.0000      -0.465637       -12.6706 
  17   2.0000      -0.458747       -12.4831 
  18   2.0000      -0.443135       -12.0583 
  19   2.0000      -0.422796       -11.5049 
  20   2.0000      -0.409874       -11.1532 
  21   2.0000      -0.377569       -10.2742 
  22   2.0000      -0.370038       -10.0692 
  23   2.0000      -0.345745        -9.4082 
  24   2.0000      -0.342515        -9.3203 
  25   2.0000      -0.339159        -9.2290 
  26   2.0000      -0.258780        -7.0418 
  27   0.0000      -0.016958        -0.4615 
  28   0.0000       0.109207         2.9717 
  29   0.0000       0.114675         3.1205 
  30   0.0000       0.140782         3.8309 
  31   0.0000       0.150602         4.0981 
  32   0.0000       0.158823         4.3218 
  33   0.0000       0.164111         4.4657 
  34   0.0000       0.172847         4.7034 
  35   0.0000       0.175268         4.7693 
  36   0.0000       0.186238         5.0678 
  37   0.0000       0.190297         5.1782 
*Only the first 10 virtual orbitals were printed.

                    ********************************
                    * MULLIKEN POPULATION ANALYSIS *
                    ********************************

-----------------------
MULLIKEN ATOMIC CHARGES
-----------------------
   0 C :   -0.415146
   1 C :   -0.418915
   2 C :   -0.492294
   3 H :    0.212118
   4 H :    0.229064
   5 C :    0.254027
   6 H :    0.239329
   7 H :    0.234619
   8 C :   -0.492293
   9 C :   -0.418913
  10 H :    0.239328
  11 H :    0.234622
  12 H :    0.212117
  13 H :    0.229062
  14 H :    0.205579
  15 H :    0.228214
  16 O :   -0.280518
Sum of atomic charges:   -0.0000000

--------------------------------
MULLIKEN REDUCED ORBITAL CHARGES
--------------------------------
  0 C s       :     3.322940  s :     3.322940
      pz      :     1.158235  p :     3.092206
      px      :     1.070830
      py      :     0.863141

  1 C s       :     3.327722  s :     3.327722
      pz      :     1.128677  p :     3.091193
      px      :     0.918058
      py      :     1.044458

  2 C s       :     3.361947  s :     3.361947
      pz      :     1.151239  p :     3.130347
      px      :     0.964875
      py      :     1.014233

  3 H s       :     0.787882  s :     0.787882

  4 H s       :     0.770936  s :     0.770936

  5 C s       :     3.287844  s :     3.287844
      pz      :     0.774598  p :     2.458129
      px      :     0.801965
      py      :     0.881566

  6 H s       :     0.760671  s :     0.760671

  7 H s       :     0.765381  s :     0.765381

  8 C s       :     3.361946  s :     3.361946
      pz      :     1.151272  p :     3.130347
      px      :     0.964857
      py      :     1.014218

  9 C s       :     3.327721  s :     3.327721
      pz      :     1.128697  p :     3.091192
      px      :     0.918050
      py      :     1.044446

 10 H s       :     0.760672  s :     0.760672

 11 H s       :     0.765378  s :     0.765378

 12 H s       :     0.787883  s :     0.787883

 13 H s       :     0.770938  s :     0.770938

 14 H s       :     0.794421  s :     0.794421

 15 H s       :     0.771786  s :     0.771786

 16 O s       :     3.686847  s :     3.686847
      pz      :     1.318402  p :     4.593671
      px      :     1.421521
      py      :     1.853749


------------------------
MULLIKEN OVERLAP CHARGES
------------------------
B(  0-C ,  1-C ) :   0.5666 B(  0-C ,  2-C ) :  -0.1666 B(  0-C ,  3-H ) :  -0.0771 
B(  0-C ,  4-H ) :  -0.0560 B(  0-C ,  8-C ) :  -0.1666 B(  0-C ,  9-C ) :   0.5666 
B(  0-C , 12-H ) :  -0.0771 B(  0-C , 13-H ) :  -0.0560 B(  0-C , 14-H ) :   0.8011 
B(  0-C , 15-H ) :   0.8143 B(  1-C ,  2-C ) :   0.5349 B(  1-C ,  3-H ) :   0.8027 
B(  1-C ,  4-H ) :   0.8131 B(  1-C ,  5-C ) :  -0.1159 B(  1-C ,  7-H ) :  -0.0672 
B(  1-C ,  9-C ) :  -0.1739 B(  1-C , 14-H ) :  -0.0793 B(  1-C , 15-H ) :  -0.0580 
B(  2-C ,  3-H ) :  -0.0820 B(  2-C ,  4-H ) :  -0.0605 B(  2-C ,  5-C ) :   0.4270 
B(  2-C ,  6-H ) :   0.7850 B(  2-C ,  7-H ) :   0.7821 B(  2-C ,  8-C ) :  -0.1827 
B(  2-C , 16-O ) :  -0.1718 B(  5-C ,  6-H ) :  -0.0799 B(  5-C ,  7-H ) :  -0.0678 
B(  5-C ,  8-C ) :   0.4270 B(  5-C ,  9-C ) :  -0.1159 B(  5-C , 10-H ) :  -0.0799 
B(  5-C , 11-H ) :  -0.0678 B(  5-C , 16-O ) :   1.4477 B(  8-C ,  9-C ) :   0.5349 
B(  8-C , 10-H ) :   0.7850 B(  8-C , 11-H ) :   0.7821 B(  8-C , 12-H ) :  -0.0820 
B(  8-C , 13-H ) :  -0.0605 B(  8-C , 16-O ) :  -0.1718 B(  9-C , 11-H ) :  -0.0672 
B(  9-C , 12-H ) :   0.8027 B(  9-C , 13-H ) :   0.8131 B(  9-C , 14-H ) :  -0.0793 
B(  9-C , 15-H ) :  -0.0580 


                      *****************************
                      * MAYER POPULATION ANALYSIS *
                      *****************************

  NA   - Mulliken gross atomic population
  ZA   - Total nuclear charge
  QA   - Mulliken gross atomic charge
  VA   - Mayer's total valence
  BVA  - Mayer's bonded valence
  FA   - Mayer's free valence

  ATOM       NA         ZA         QA         VA         BVA        FA
  0 C      6.4151     6.0000    -0.4151     3.7059     3.7059    -0.0000
  1 C      6.4189     6.0000    -0.4189     3.7073     3.7073    -0.0000
  2 C      6.4923     6.0000    -0.4923     3.6521     3.6521    -0.0000
  3 H      0.7879     1.0000     0.2121     0.9406     0.9406    -0.0000
  4 H      0.7709     1.0000     0.2291     0.9386     0.9386    -0.0000
  5 C      5.7460     6.0000     0.2540     3.7941     3.7941     0.0000
  6 H      0.7607     1.0000     0.2393     0.9485     0.9485    -0.0000
  7 H      0.7654     1.0000     0.2346     0.9363     0.9363    -0.0000
  8 C      6.4923     6.0000    -0.4923     3.6521     3.6521    -0.0000
  9 C      6.4189     6.0000    -0.4189     3.7073     3.7073    -0.0000
 10 H      0.7607     1.0000     0.2393     0.9485     0.9485     0.0000
 11 H      0.7654     1.0000     0.2346     0.9363     0.9363    -0.0000
 12 H      0.7879     1.0000     0.2121     0.9406     0.9406    -0.0000
 13 H      0.7709     1.0000     0.2291     0.9386     0.9386    -0.0000
 14 H      0.7944     1.0000     0.2056     0.9438     0.9438    -0.0000
 15 H      0.7718     1.0000     0.2282     0.9390     0.9390     0.0000
 16 O      8.2805     8.0000    -0.2805     2.3064     2.3064    -0.0000

  Mayer bond orders larger than 0.100000
B(  0-C ,  1-C ) :   0.9341 B(  0-C ,  9-C ) :   0.9341 B(  0-C , 14-H ) :   0.9360 
B(  0-C , 15-H ) :   0.9462 B(  1-C ,  2-C ) :   0.9188 B(  1-C ,  3-H ) :   0.9352 
B(  1-C ,  4-H ) :   0.9454 B(  2-C ,  5-C ) :   0.8479 B(  2-C ,  6-H ) :   0.9358 
B(  2-C ,  7-H ) :   0.9193 B(  5-C ,  8-C ) :   0.8479 B(  5-C , 16-O ) :   2.1280 
B(  8-C ,  9-C ) :   0.9188 B(  8-C , 10-H ) :   0.9358 B(  8-C , 11-H ) :   0.9193 
B(  9-C , 12-H ) :   0.9352 B(  9-C , 13-H ) :   0.9454 

-------
TIMINGS
-------

Total SCF time: 0 days 0 hours 0 min 1 sec 

Total time                  ....       1.923 sec
Sum of individual times     ....       1.909 sec  ( 99.3%)

SCF preparation             ....       0.134 sec  (  7.0%)
Fock matrix formation       ....       1.691 sec  ( 87.9%)
  Startup                   ....       0.004 sec  (  0.2% of F)
  Split-RI-J                ....       0.148 sec  (  8.7% of F)
  Chain of spheres X        ....       0.840 sec  ( 49.7% of F)
  XC integration            ....       0.318 sec  ( 18.8% of F)
    XC Preparation          ....       0.000 sec  (  0.0% of XC)
    Basis function eval.    ....       0.106 sec  ( 33.2% of XC)
    Density eval.           ....       0.057 sec  ( 17.8% of XC)
    XC-Functional eval.     ....       0.027 sec  (  8.4% of XC)
    XC-Potential eval.      ....       0.045 sec  ( 14.2% of XC)
  CPCM terms                ....       0.366 sec  ( 21.6% of F)
Diagonalization             ....       0.000 sec  (  0.0%)
Density matrix formation    ....       0.007 sec  (  0.4%)
Total Energy calculation    ....       0.007 sec  (  0.4%)
Population analysis         ....       0.003 sec  (  0.2%)
Orbital Transformation      ....       0.007 sec  (  0.4%)
Orbital Orthonormalization  ....       0.000 sec  (  0.0%)
DIIS solution               ....       0.060 sec  (  3.1%)
Finished LeanSCF after   1.9 sec

Maximum memory used throughout the entire LEANSCF-calculation: 12.9 MB


           ************************************************************
           *        Program running with 8 parallel MPI-processes     *
           *              working on a common directory               *
           ************************************************************

------------------------------------------------------------------------------
                         ORCA PROPERTY INTEGRAL CALCULATIONS
------------------------------------------------------------------------------

GBWName                                   ... inpJ.gbw
Number of atoms                           ...     17
Number of basis functions                 ...    121
Max core memory                           ...   8000 MB

Dipole integrals                          ... YES
Quadrupole integrals                      ...  NO
Linear momentum integrals                 ...  NO
Angular momentum integrals                ...  NO
Higher moments length integrals           ...  NO
Higher moments velocity integrals         ...  NO
Kinetic energy integrals                  ...  NO
GIAO right hand sides                     ...  NO
GIAO dipole derivative integrals          ...  NO
SOC integrals                             ...  NO
EPR diamagnetic integrals (GIAO)          ...  NO
EPR gauge integrals                       ...  NO
Field gradient integrals                  ...  NO (   0 nuclei)
Spin-dipole/Fermi contact integrals       ... YES (  10 nuclei)
Contact density integrals                 ...  NO (   0 nuclei)
Nucleus-orbit integrals                   ...  NO (   0 nuclei)
Geometric perturbations                   ...  NO (  17 nuclei)

Choice of electric origin   ... Center of mass
Position of electric origin ... (  0.0000,  0.0000, -0.0000) 
Choice of magnetic origin   ... GIAO
Position of magnetic origin ... (  0.0000,  0.0000,  0.0000) 

Calculating integrals                     ... Electric Dipole (Length)     done (  0.0 sec)
Calculating integrals                     ... SD/FC/EFG integrals          done (  0.0 sec)

Property integrals calculated in   0.0 sec

Maximum memory used throughout the entire PROPINT-calculation: 7.5 MB


-------------------------------------------------------------------------------
                          DFT DISPERSION CORRECTION                            
                                                                               
                                DFTD4 V3.4.0                                   
-------------------------------------------------------------------------------
The PBE0 functional is recognized
Active option DFTDOPT                   ...         5   

-------------------------   ----------------
Dispersion correction           -0.012321692
-------------------------   ----------------


-------------------------   --------------------
FINAL SINGLE POINT ENERGY      -309.027845048949
-------------------------   --------------------



           ************************************************************
           *        Program running with 8 parallel MPI-processes     *
           *              working on a common directory               *
           ************************************************************
------------------------------------------------------------------------------
                            ORCA SCF RESPONSE CALCULATION
------------------------------------------------------------------------------

GBWName                                 ... inpJ.gbw
Number of atoms                         ...     17
Number of basis functions               ...    121
Max core memory                         ...   8000 MB

Electric field perturbation             ...  NO
Quadrupolar field perturbation          ...  NO
Magnetic field perturbation (no GIAO)   ...  NO
Magnetic field perturbation (with GIAO) ...  NO
Linear momentum (velocity) perturbation ...  NO
Spin-orbit coupling perturbation        ...  NO
Choice of electric origin               ... Center of mass
Position of electric origin             ...     0.000038     0.000000    -0.000005
Choice of magnetic origin               ... GIAO
Position of magnetic origin             ...     0.000000     0.000000     0.000000
Nuclear geometric perturbations         ...  NO (  51 perturbations)
Nucleus-orbit perturbations             ...  NO (   0 perturbations)
Spin-dipole/Fermi contact perturbations ... YES (   9 perturbations)

Total number of real perturbations      ...      0
Total number of imaginary perturbations ...      0
Total number of triplet perturbations   ...      9
Total number of SOC perturbations       ...      0

Using XC Grid                  ... (inpJ.grid_cpscf.tmp) 
Recalculating density on grid  ... (inpJ.grho_cpscf0.tmp) done
Calculating the xc-kernel      ... (inpJ.fxc_cpscf0.tmp) done

                               *************************
                               * TRIPLET PERTURBATIONS *
                               *************************



-------------------
SHARK CP-SCF DRIVER
-------------------

Dimension of the orbital basis          ...    121
Dimension of the CPSCF-problem          ...   2538
Number of operators                     ...      1
Max. number of iterations               ...    128
Convergence Tolerance                   ... 1.0e-03
Number of perturbations                 ...      9
Perturbation type                       ... TRIPLET

----------------------------
POPLE LINEAR EQUATION SOLVER
----------------------------

  ITERATION   0:   ||err||_max =   5.6709e-01 (   0.1 sec   0/  9 done)
  ITERATION   1:   ||err||_max =   7.8997e-02 (   0.1 sec   0/  9 done)
  ITERATION   2:   ||err||_max =   2.1872e-02 (   0.1 sec   0/  9 done)
  ITERATION   3:   ||err||_max =   5.8798e-03 (   0.1 sec   0/  9 done)
  ITERATION   4:   ||err||_max =   1.4464e-03 (   0.1 sec   7/  9 done)
  ITERATION   5:   ||err||_max =   2.7314e-04 (   0.1 sec   9/  9 done)

CP-SCF equations solved in   0.7 sec
Response densities calculated in   0.0 sec

Maximum memory used throughout the entire SCFRESP-calculation: 16.8 MB


           ************************************************************
           *        Program running with 8 parallel MPI-processes     *
           *              working on a common directory               *
           ************************************************************

------------------------------------------------------------------------------
                              ORCA PROPERTY CALCULATIONS
------------------------------------------------------------------------------

GBWName                                 ... inpJ.gbw
Number of atoms                         ...     17
Number of basis functions               ...    121
Max core memory                         ...   8000 MB

Electric properties:
Dipole moment                           ... YES
Quadrupole moment                       ...  NO
Static polarizability (Dipole/Dipole)   ...  NO
Static polarizability (Dipole/Quad.)    ...  NO
Static polarizability (Quad./Quad.)     ...  NO
Static polarizability (Velocity)        ...  NO

Atomic electric properties:
Dipole moment                           ...  NO
Quadrupole moment                       ...  NO
Static polarizability                   ...  NO

Choice of electric origin               ... Center of mass
Position of electric origin             ...     0.000038     0.000000    -0.000005

General magnetic properties:
Magnetizability                         ...  NO

EPR properties:
g-Tensor (aka g-matrix)                 ...  NO
Zero-Field splitting spin-orbit         ...  NO
Zero-field splitting spin-spin          ...  NO
Hyperfine couplings                     ...  NO (   0 nuclei)
Quadrupole couplings                    ...  NO (   0 nuclei)
Contact density                         ...  NO (   0 nuclei)

NMR properties:
Chemical shifts                         ...  NO (   0 nuclei)
Spin-rotation constants                 ...  NO (   0 nuclei)
Spin-spin couplings                     ... YES (  10 nuclei,   45 pairs)

Choice of magnetic origin               ... GIAO
Position of magnetic origin             ...     0.000000     0.000000     0.000000

Properties with geometric perturbations:
SCF Hessian                             ...  NO
IR spectrum                             ...  NO
VCD spectrum                            ...  NO
X-ray spectroscopy properties:
SCF XES/XAS/RIXS spectra                ...  NO


-------------
DIPOLE MOMENT
-------------

Method             : SCF
Type of density    : Electron Density
Multiplicity       :   1
Irrep              :   0
Energy             :  -309.0155233568577273 Eh
Relativity type    : 
Basis              : AO
                                X                 Y                 Z
Electronic contribution:     -5.811760232      -0.000134171       0.464456772
Nuclear contribution   :      7.321808212       0.000158456      -0.946345800
                        -----------------------------------------
Total Dipole Moment    :      1.510047980       0.000024285      -0.481889028
                        -----------------------------------------
Magnitude (a.u.)       :      1.585074742
Magnitude (Debye)      :      4.028939810



--------------------
Rotational spectrum 
--------------------
 
Rotational constants in cm-1:             0.140981             0.083174             0.058434 
Rotational constants in MHz :          4226.504733          2493.486360          1751.794835 

Dipole components along the rotational axes: 
x,y,z [a.u.] :     1.510046    -0.000024    -0.481895 
x,y,z [Debye]:     3.838232    -0.000062    -1.224879 

 

Dipole moment calculation done in   0.0 sec 


-----------------------------------------------------------------------
                     NMR SPIN-SPIN COUPLING CONSTANTS
                     ================================

    Number of nuclear pairs to calculate something:       45
                                                        ----
    Number of nuclear pairs to calculate DSO   terms:      0
    Number of nuclear pairs to calculate PSO   terms:      0
    Number of nuclear pairs to calculate FC    terms:     45
    Number of nuclear pairs to calculate SD    terms:      0
    Number of nuclear pairs to calculate SD/FC terms:      0
-----------------------------------------------------------------------

Processing SD/FC nuclear pairs ... done (   0.0 sec)

-----------------------------------------------------------
 NUCLEUS A = H    3 NUCLEUS B = H    4 
 (  1H  gnA =  5.586   1H  gnB =  5.586) r(AB) =     1.7640
-----------------------------------------------------------

Fermi-contact contribution to J (Hz):
      -13.3373         0.0000        0.0000
        0.0000       -13.3373        0.0000
        0.0000         0.0000      -13.3373

Total spin-spin coupling tensor J (Hz):
      -13.3373         0.0000        0.0000
        0.0000       -13.3373        0.0000
        0.0000         0.0000      -13.3373

 Diagonalized JT*J matrix:
 
 J[3,4](FC)           -13.337          -13.337          -13.337  iso=    -13.337
              ---------------  ---------------  ---------------  ---------------
 J[3,4](Total)        -13.337          -13.337          -13.337  iso=    -13.337



-----------------------------------------------------------
 NUCLEUS A = H    3 NUCLEUS B = H    6 
 (  1H  gnA =  5.586   1H  gnB =  5.586) r(AB) =     2.4968
-----------------------------------------------------------

Fermi-contact contribution to J (Hz):
        3.8002         0.0000        0.0000
        0.0000         3.8002        0.0000
        0.0000         0.0000        3.8002

Total spin-spin coupling tensor J (Hz):
        3.8002         0.0000        0.0000
        0.0000         3.8002        0.0000
        0.0000         0.0000        3.8002

 Diagonalized JT*J matrix:
 
 J[3,6](FC)             3.800            3.800            3.800  iso=      3.800
              ---------------  ---------------  ---------------  ---------------
 J[3,6](Total)          3.800            3.800            3.800  iso=      3.800



-----------------------------------------------------------
 NUCLEUS A = H    3 NUCLEUS B = H    7 
 (  1H  gnA =  5.586   1H  gnB =  5.586) r(AB) =     3.0632
-----------------------------------------------------------

Fermi-contact contribution to J (Hz):
       13.5531         0.0000        0.0000
        0.0000        13.5531        0.0000
        0.0000         0.0000       13.5531

Total spin-spin coupling tensor J (Hz):
       13.5531         0.0000        0.0000
        0.0000        13.5531        0.0000
        0.0000         0.0000       13.5531

 Diagonalized JT*J matrix:
 
 J[3,7](FC)            13.553           13.553           13.553  iso=     13.553
              ---------------  ---------------  ---------------  ---------------
 J[3,7](Total)         13.553           13.553           13.553  iso=     13.553



-----------------------------------------------------------
 NUCLEUS A = H    3 NUCLEUS B = H   10 
 (  1H  gnA =  5.586   1H  gnB =  5.586) r(AB) =     4.1514
-----------------------------------------------------------

Fermi-contact contribution to J (Hz):
        0.0825         0.0000        0.0000
        0.0000         0.0825        0.0000
        0.0000         0.0000        0.0825

Total spin-spin coupling tensor J (Hz):
        0.0825         0.0000        0.0000
        0.0000         0.0825        0.0000
        0.0000         0.0000        0.0825

 Diagonalized JT*J matrix:
 
 J[3,10](FC)             0.083            0.083            0.083  iso=      0.083
               ---------------  ---------------  ---------------  ---------------
 J[3,10](Total)          0.083            0.083            0.083  iso=      0.083



-----------------------------------------------------------
 NUCLEUS A = H    3 NUCLEUS B = H   11 
 (  1H  gnA =  5.586   1H  gnB =  5.586) r(AB) =     4.0404
-----------------------------------------------------------

Fermi-contact contribution to J (Hz):
       -0.0258         0.0000        0.0000
        0.0000        -0.0258        0.0000
        0.0000         0.0000       -0.0258

Total spin-spin coupling tensor J (Hz):
       -0.0258         0.0000        0.0000
        0.0000        -0.0258        0.0000
        0.0000         0.0000       -0.0258

 Diagonalized JT*J matrix:
 
 J[3,11](FC)            -0.026           -0.026           -0.026  iso=     -0.026
               ---------------  ---------------  ---------------  ---------------
 J[3,11](Total)         -0.026           -0.026           -0.026  iso=     -0.026



-----------------------------------------------------------
 NUCLEUS A = H    3 NUCLEUS B = H   12 
 (  1H  gnA =  5.586   1H  gnB =  5.586) r(AB) =     2.5808
-----------------------------------------------------------

Fermi-contact contribution to J (Hz):
       -0.3745         0.0000        0.0000
        0.0000        -0.3745        0.0000
        0.0000         0.0000       -0.3745

Total spin-spin coupling tensor J (Hz):
       -0.3745         0.0000        0.0000
        0.0000        -0.3745        0.0000
        0.0000         0.0000       -0.3745

 Diagonalized JT*J matrix:
 
 J[3,12](FC)            -0.375           -0.375           -0.375  iso=     -0.375
               ---------------  ---------------  ---------------  ---------------
 J[3,12](Total)         -0.375           -0.375           -0.375  iso=     -0.375



-----------------------------------------------------------
 NUCLEUS A = H    3 NUCLEUS B = H   13 
 (  1H  gnA =  5.586   1H  gnB =  5.586) r(AB) =     3.7769
-----------------------------------------------------------

Fermi-contact contribution to J (Hz):
       -0.3176         0.0000        0.0000
        0.0000        -0.3176        0.0000
        0.0000         0.0000       -0.3176

Total spin-spin coupling tensor J (Hz):
       -0.3176         0.0000        0.0000
        0.0000        -0.3176        0.0000
        0.0000         0.0000       -0.3176

 Diagonalized JT*J matrix:
 
 J[3,13](FC)            -0.318           -0.318           -0.318  iso=     -0.318
               ---------------  ---------------  ---------------  ---------------
 J[3,13](Total)         -0.318           -0.318           -0.318  iso=     -0.318



-----------------------------------------------------------
 NUCLEUS A = H    3 NUCLEUS B = H   14 
 (  1H  gnA =  5.586   1H  gnB =  5.586) r(AB) =     3.0653
-----------------------------------------------------------

Fermi-contact contribution to J (Hz):
       12.8178         0.0000        0.0000
        0.0000        12.8178        0.0000
        0.0000         0.0000       12.8178

Total spin-spin coupling tensor J (Hz):
       12.8178         0.0000        0.0000
        0.0000        12.8178        0.0000
        0.0000         0.0000       12.8178

 Diagonalized JT*J matrix:
 
 J[3,14](FC)            12.818           12.818           12.818  iso=     12.818
               ---------------  ---------------  ---------------  ---------------
 J[3,14](Total)         12.818           12.818           12.818  iso=     12.818



-----------------------------------------------------------
 NUCLEUS A = H    3 NUCLEUS B = H   15 
 (  1H  gnA =  5.586   1H  gnB =  5.586) r(AB) =     2.4829
-----------------------------------------------------------

Fermi-contact contribution to J (Hz):
        3.4433         0.0000        0.0000
        0.0000         3.4433        0.0000
        0.0000         0.0000        3.4433

Total spin-spin coupling tensor J (Hz):
        3.4433         0.0000        0.0000
        0.0000         3.4433        0.0000
        0.0000         0.0000        3.4433

 Diagonalized JT*J matrix:
 
 J[3,15](FC)             3.443            3.443            3.443  iso=      3.443
               ---------------  ---------------  ---------------  ---------------
 J[3,15](Total)          3.443            3.443            3.443  iso=      3.443



-----------------------------------------------------------
 NUCLEUS A = H    4 NUCLEUS B = H    6 
 (  1H  gnA =  5.586   1H  gnB =  5.586) r(AB) =     2.5407
-----------------------------------------------------------

Fermi-contact contribution to J (Hz):
        2.4934         0.0000        0.0000
        0.0000         2.4934        0.0000
        0.0000         0.0000        2.4934

Total spin-spin coupling tensor J (Hz):
        2.4934         0.0000        0.0000
        0.0000         2.4934        0.0000
        0.0000         0.0000        2.4934

 Diagonalized JT*J matrix:
 
 J[4,6](FC)             2.493            2.493            2.493  iso=      2.493
              ---------------  ---------------  ---------------  ---------------
 J[4,6](Total)          2.493            2.493            2.493  iso=      2.493



-----------------------------------------------------------
 NUCLEUS A = H    4 NUCLEUS B = H    7 
 (  1H  gnA =  5.586   1H  gnB =  5.586) r(AB) =     2.4661
-----------------------------------------------------------

Fermi-contact contribution to J (Hz):
        6.0405         0.0000        0.0000
        0.0000         6.0405        0.0000
        0.0000         0.0000        6.0405

Total spin-spin coupling tensor J (Hz):
        6.0405         0.0000        0.0000
        0.0000         6.0405        0.0000
        0.0000         0.0000        6.0405

 Diagonalized JT*J matrix:
 
 J[4,7](FC)             6.040            6.040            6.040  iso=      6.040
              ---------------  ---------------  ---------------  ---------------
 J[4,7](Total)          6.040            6.040            6.040  iso=      6.040



-----------------------------------------------------------
 NUCLEUS A = H    4 NUCLEUS B = H   10 
 (  1H  gnA =  5.586   1H  gnB =  5.586) r(AB) =     4.9877
-----------------------------------------------------------

Fermi-contact contribution to J (Hz):
        0.5489         0.0000        0.0000
        0.0000         0.5489        0.0000
        0.0000         0.0000        0.5489

Total spin-spin coupling tensor J (Hz):
        0.5489         0.0000        0.0000
        0.0000         0.5489        0.0000
        0.0000         0.0000        0.5489

 Diagonalized JT*J matrix:
 
 J[4,10](FC)             0.549            0.549            0.549  iso=      0.549
               ---------------  ---------------  ---------------  ---------------
 J[4,10](Total)          0.549            0.549            0.549  iso=      0.549



-----------------------------------------------------------
 NUCLEUS A = H    4 NUCLEUS B = H   11 
 (  1H  gnA =  5.586   1H  gnB =  5.586) r(AB) =     4.2080
-----------------------------------------------------------

Fermi-contact contribution to J (Hz):
        0.0413         0.0000        0.0000
        0.0000         0.0413        0.0000
        0.0000         0.0000        0.0413

Total spin-spin coupling tensor J (Hz):
        0.0413         0.0000        0.0000
        0.0000         0.0413        0.0000
        0.0000         0.0000        0.0413

 Diagonalized JT*J matrix:
 
 J[4,11](FC)             0.041            0.041            0.041  iso=      0.041
               ---------------  ---------------  ---------------  ---------------
 J[4,11](Total)          0.041            0.041            0.041  iso=      0.041



-----------------------------------------------------------
 NUCLEUS A = H    4 NUCLEUS B = H   12 
 (  1H  gnA =  5.586   1H  gnB =  5.586) r(AB) =     3.7770
-----------------------------------------------------------

Fermi-contact contribution to J (Hz):
       -0.3186         0.0000        0.0000
        0.0000        -0.3186        0.0000
        0.0000         0.0000       -0.3186

Total spin-spin coupling tensor J (Hz):
       -0.3186         0.0000        0.0000
        0.0000        -0.3186        0.0000
        0.0000         0.0000       -0.3186

 Diagonalized JT*J matrix:
 
 J[4,12](FC)            -0.319           -0.319           -0.319  iso=     -0.319
               ---------------  ---------------  ---------------  ---------------
 J[4,12](Total)         -0.319           -0.319           -0.319  iso=     -0.319



-----------------------------------------------------------
 NUCLEUS A = H    4 NUCLEUS B = H   13 
 (  1H  gnA =  5.586   1H  gnB =  5.586) r(AB) =     4.3217
-----------------------------------------------------------

Fermi-contact contribution to J (Hz):
        2.3451         0.0000        0.0000
        0.0000         2.3451        0.0000
        0.0000         0.0000        2.3451

Total spin-spin coupling tensor J (Hz):
        2.3451         0.0000        0.0000
        0.0000         2.3451        0.0000
        0.0000         0.0000        2.3451

 Diagonalized JT*J matrix:
 
 J[4,13](FC)             2.345            2.345            2.345  iso=      2.345
               ---------------  ---------------  ---------------  ---------------
 J[4,13](Total)          2.345            2.345            2.345  iso=      2.345



-----------------------------------------------------------
 NUCLEUS A = H    4 NUCLEUS B = H   14 
 (  1H  gnA =  5.586   1H  gnB =  5.586) r(AB) =     2.4967
-----------------------------------------------------------

Fermi-contact contribution to J (Hz):
        3.4452         0.0000        0.0000
        0.0000         3.4452        0.0000
        0.0000         0.0000        3.4452

Total spin-spin coupling tensor J (Hz):
        3.4452         0.0000        0.0000
        0.0000         3.4452        0.0000
        0.0000         0.0000        3.4452

 Diagonalized JT*J matrix:
 
 J[4,14](FC)             3.445            3.445            3.445  iso=      3.445
               ---------------  ---------------  ---------------  ---------------
 J[4,14](Total)          3.445            3.445            3.445  iso=      3.445



-----------------------------------------------------------
 NUCLEUS A = H    4 NUCLEUS B = H   15 
 (  1H  gnA =  5.586   1H  gnB =  5.586) r(AB) =     2.5076
-----------------------------------------------------------

Fermi-contact contribution to J (Hz):
        2.9993         0.0000        0.0000
        0.0000         2.9993        0.0000
        0.0000         0.0000        2.9993

Total spin-spin coupling tensor J (Hz):
        2.9993         0.0000        0.0000
        0.0000         2.9993        0.0000
        0.0000         0.0000        2.9993

 Diagonalized JT*J matrix:
 
 J[4,15](FC)             2.999            2.999            2.999  iso=      2.999
               ---------------  ---------------  ---------------  ---------------
 J[4,15](Total)          2.999            2.999            2.999  iso=      2.999



-----------------------------------------------------------
 NUCLEUS A = H    6 NUCLEUS B = H    7 
 (  1H  gnA =  5.586   1H  gnB =  5.586) r(AB) =     1.7781
-----------------------------------------------------------

Fermi-contact contribution to J (Hz):
      -13.7610         0.0000        0.0000
        0.0000       -13.7610        0.0000
        0.0000         0.0000      -13.7610

Total spin-spin coupling tensor J (Hz):
      -13.7610         0.0000        0.0000
        0.0000       -13.7610        0.0000
        0.0000         0.0000      -13.7610

 Diagonalized JT*J matrix:
 
 J[6,7](FC)           -13.761          -13.761          -13.761  iso=    -13.761
              ---------------  ---------------  ---------------  ---------------
 J[6,7](Total)        -13.761          -13.761          -13.761  iso=    -13.761



-----------------------------------------------------------
 NUCLEUS A = H    6 NUCLEUS B = H   10 
 (  1H  gnA =  5.586   1H  gnB =  5.586) r(AB) =     4.2625
-----------------------------------------------------------

Fermi-contact contribution to J (Hz):
        1.8830         0.0000        0.0000
        0.0000         1.8830        0.0000
        0.0000         0.0000        1.8830

Total spin-spin coupling tensor J (Hz):
        1.8830         0.0000        0.0000
        0.0000         1.8830        0.0000
        0.0000         0.0000        1.8830

 Diagonalized JT*J matrix:
 
 J[6,10](FC)             1.883            1.883            1.883  iso=      1.883
               ---------------  ---------------  ---------------  ---------------
 J[6,10](Total)          1.883            1.883            1.883  iso=      1.883



[...]

 Diagonalized JT*J matrix:
 
 J[10,11](FC)           -13.806          -13.806          -13.806  iso=    -13.806
                ---------------  ---------------  ---------------  ---------------
 J[10,11](Total)        -13.806          -13.806          -13.806  iso=    -13.806



-----------------------------------------------------------
 NUCLEUS A = H   10 NUCLEUS B = H   12 
 (  1H  gnA =  5.586   1H  gnB =  5.586) r(AB) =     2.4967
-----------------------------------------------------------

Fermi-contact contribution to J (Hz):
        3.8266         0.0000        0.0000
        0.0000         3.8266        0.0000
        0.0000         0.0000        3.8266

Total spin-spin coupling tensor J (Hz):
        3.8266         0.0000        0.0000
        0.0000         3.8266        0.0000
        0.0000         0.0000        3.8266

 Diagonalized JT*J matrix:
 
 J[10,12](FC)             3.827            3.827            3.827  iso=      3.827
                ---------------  ---------------  ---------------  ---------------
 J[10,12](Total)          3.827            3.827            3.827  iso=      3.827



-----------------------------------------------------------
 NUCLEUS A = H   10 NUCLEUS B = H   13 
 (  1H  gnA =  5.586   1H  gnB =  5.586) r(AB) =     2.5407
-----------------------------------------------------------

Fermi-contact contribution to J (Hz):
        2.5180         0.0000        0.0000
        0.0000         2.5180        0.0000
        0.0000         0.0000        2.5180

Total spin-spin coupling tensor J (Hz):
        2.5180         0.0000        0.0000
        0.0000         2.5180        0.0000
        0.0000         0.0000        2.5180

 Diagonalized JT*J matrix:
 
 J[10,13](FC)             2.518            2.518            2.518  iso=      2.518
                ---------------  ---------------  ---------------  ---------------
 J[10,13](Total)          2.518            2.518            2.518  iso=      2.518



-----------------------------------------------------------
 NUCLEUS A = H   10 NUCLEUS B = H   14 
 (  1H  gnA =  5.586   1H  gnB =  5.586) r(AB) =     3.8154
-----------------------------------------------------------

Fermi-contact contribution to J (Hz):
       -0.4440         0.0000        0.0000
        0.0000        -0.4440        0.0000
        0.0000         0.0000       -0.4440

Total spin-spin coupling tensor J (Hz):
       -0.4440         0.0000        0.0000
        0.0000        -0.4440        0.0000
        0.0000         0.0000       -0.4440

 Diagonalized JT*J matrix:
 
 J[10,14](FC)            -0.444           -0.444           -0.444  iso=     -0.444
                ---------------  ---------------  ---------------  ---------------
 J[10,14](Total)         -0.444           -0.444           -0.444  iso=     -0.444



-----------------------------------------------------------
 NUCLEUS A = H   10 NUCLEUS B = H   15 
 (  1H  gnA =  5.586   1H  gnB =  5.586) r(AB) =     4.3351
-----------------------------------------------------------

Fermi-contact contribution to J (Hz):
        1.2054         0.0000        0.0000
        0.0000         1.2054        0.0000
        0.0000         0.0000        1.2054

Total spin-spin coupling tensor J (Hz):
        1.2054         0.0000        0.0000
        0.0000         1.2054        0.0000
        0.0000         0.0000        1.2054

 Diagonalized JT*J matrix:
 
 J[10,15](FC)             1.205            1.205            1.205  iso=      1.205
                ---------------  ---------------  ---------------  ---------------
 J[10,15](Total)          1.205            1.205            1.205  iso=      1.205



-----------------------------------------------------------
 NUCLEUS A = H   11 NUCLEUS B = H   12 
 (  1H  gnA =  5.586   1H  gnB =  5.586) r(AB) =     3.0632
-----------------------------------------------------------

Fermi-contact contribution to J (Hz):
       13.5714         0.0000        0.0000
        0.0000        13.5714        0.0000
        0.0000         0.0000       13.5714

Total spin-spin coupling tensor J (Hz):
       13.5714         0.0000        0.0000
        0.0000        13.5714        0.0000
        0.0000         0.0000       13.5714

 Diagonalized JT*J matrix:
 
 J[11,12](FC)            13.571           13.571           13.571  iso=     13.571
                ---------------  ---------------  ---------------  ---------------
 J[11,12](Total)         13.571           13.571           13.571  iso=     13.571



-----------------------------------------------------------
 NUCLEUS A = H   11 NUCLEUS B = H   13 
 (  1H  gnA =  5.586   1H  gnB =  5.586) r(AB) =     2.4660
-----------------------------------------------------------

Fermi-contact contribution to J (Hz):
        6.0715         0.0000        0.0000
        0.0000         6.0715        0.0000
        0.0000         0.0000        6.0715

Total spin-spin coupling tensor J (Hz):
        6.0715         0.0000        0.0000
        0.0000         6.0715        0.0000
        0.0000         0.0000        6.0715

 Diagonalized JT*J matrix:
 
 J[11,13](FC)             6.072            6.072            6.072  iso=      6.072
                ---------------  ---------------  ---------------  ---------------
 J[11,13](Total)          6.072            6.072            6.072  iso=      6.072



-----------------------------------------------------------
 NUCLEUS A = H   11 NUCLEUS B = H   14 
 (  1H  gnA =  5.586   1H  gnB =  5.586) r(AB) =     2.6142
-----------------------------------------------------------

Fermi-contact contribution to J (Hz):
       -0.4075         0.0000        0.0000
        0.0000        -0.4075        0.0000
        0.0000         0.0000       -0.4075

Total spin-spin coupling tensor J (Hz):
       -0.4075         0.0000        0.0000
        0.0000        -0.4075        0.0000
        0.0000         0.0000       -0.4075

 Diagonalized JT*J matrix:
 
 J[11,14](FC)            -0.408           -0.408           -0.408  iso=     -0.408
                ---------------  ---------------  ---------------  ---------------
 J[11,14](Total)         -0.408           -0.408           -0.408  iso=     -0.408



-----------------------------------------------------------
 NUCLEUS A = H   11 NUCLEUS B = H   15 
 (  1H  gnA =  5.586   1H  gnB =  5.586) r(AB) =     3.7920
-----------------------------------------------------------

Fermi-contact contribution to J (Hz):
       -0.3458         0.0000        0.0000
        0.0000        -0.3458        0.0000
        0.0000         0.0000       -0.3458

Total spin-spin coupling tensor J (Hz):
       -0.3458         0.0000        0.0000
        0.0000        -0.3458        0.0000
        0.0000         0.0000       -0.3458

 Diagonalized JT*J matrix:
 
 J[11,15](FC)            -0.346           -0.346           -0.346  iso=     -0.346
                ---------------  ---------------  ---------------  ---------------
 J[11,15](Total)         -0.346           -0.346           -0.346  iso=     -0.346



-----------------------------------------------------------
 NUCLEUS A = H   12 NUCLEUS B = H   13 
 (  1H  gnA =  5.586   1H  gnB =  5.586) r(AB) =     1.7640
-----------------------------------------------------------

Fermi-contact contribution to J (Hz):
      -13.3391         0.0000        0.0000
        0.0000       -13.3391        0.0000
        0.0000         0.0000      -13.3391

Total spin-spin coupling tensor J (Hz):
      -13.3391         0.0000        0.0000
        0.0000       -13.3391        0.0000
        0.0000         0.0000      -13.3391

 Diagonalized JT*J matrix:
 
 J[12,13](FC)           -13.339          -13.339          -13.339  iso=    -13.339
                ---------------  ---------------  ---------------  ---------------
 J[12,13](Total)        -13.339          -13.339          -13.339  iso=    -13.339



-----------------------------------------------------------
 NUCLEUS A = H   12 NUCLEUS B = H   14 
 (  1H  gnA =  5.586   1H  gnB =  5.586) r(AB) =     3.0653
-----------------------------------------------------------

Fermi-contact contribution to J (Hz):
       12.8185         0.0000        0.0000
        0.0000        12.8185        0.0000
        0.0000         0.0000       12.8185

Total spin-spin coupling tensor J (Hz):
       12.8185         0.0000        0.0000
        0.0000        12.8185        0.0000
        0.0000         0.0000       12.8185

 Diagonalized JT*J matrix:
 
 J[12,14](FC)            12.819           12.819           12.819  iso=     12.819
                ---------------  ---------------  ---------------  ---------------
 J[12,14](Total)         12.819           12.819           12.819  iso=     12.819



-----------------------------------------------------------
 NUCLEUS A = H   12 NUCLEUS B = H   15 
 (  1H  gnA =  5.586   1H  gnB =  5.586) r(AB) =     2.4829
-----------------------------------------------------------

Fermi-contact contribution to J (Hz):
        3.4442         0.0000        0.0000
        0.0000         3.4442        0.0000
        0.0000         0.0000        3.4442

Total spin-spin coupling tensor J (Hz):
        3.4442         0.0000        0.0000
        0.0000         3.4442        0.0000
        0.0000         0.0000        3.4442

 Diagonalized JT*J matrix:
 
 J[12,15](FC)             3.444            3.444            3.444  iso=      3.444
                ---------------  ---------------  ---------------  ---------------
 J[12,15](Total)          3.444            3.444            3.444  iso=      3.444



-----------------------------------------------------------
 NUCLEUS A = H   13 NUCLEUS B = H   14 
 (  1H  gnA =  5.586   1H  gnB =  5.586) r(AB) =     2.4967
-----------------------------------------------------------

Fermi-contact contribution to J (Hz):
        3.4459         0.0000        0.0000
        0.0000         3.4459        0.0000
        0.0000         0.0000        3.4459

Total spin-spin coupling tensor J (Hz):
        3.4459         0.0000        0.0000
        0.0000         3.4459        0.0000
        0.0000         0.0000        3.4459

 Diagonalized JT*J matrix:
 
 J[13,14](FC)             3.446            3.446            3.446  iso=      3.446
                ---------------  ---------------  ---------------  ---------------
 J[13,14](Total)          3.446            3.446            3.446  iso=      3.446



-----------------------------------------------------------
 NUCLEUS A = H   13 NUCLEUS B = H   15 
 (  1H  gnA =  5.586   1H  gnB =  5.586) r(AB) =     2.5076
-----------------------------------------------------------

Fermi-contact contribution to J (Hz):
        2.9988         0.0000        0.0000
        0.0000         2.9988        0.0000
        0.0000         0.0000        2.9988

Total spin-spin coupling tensor J (Hz):
        2.9988         0.0000        0.0000
        0.0000         2.9988        0.0000
        0.0000         0.0000        2.9988

 Diagonalized JT*J matrix:
 
 J[13,15](FC)             2.999            2.999            2.999  iso=      2.999
                ---------------  ---------------  ---------------  ---------------
 J[13,15](Total)          2.999            2.999            2.999  iso=      2.999



-----------------------------------------------------------
 NUCLEUS A = H   14 NUCLEUS B = H   15 
 (  1H  gnA =  5.586   1H  gnB =  5.586) r(AB) =     1.7659
-----------------------------------------------------------

Fermi-contact contribution to J (Hz):
      -13.4487         0.0000        0.0000
        0.0000       -13.4487        0.0000
        0.0000         0.0000      -13.4487

Total spin-spin coupling tensor J (Hz):
      -13.4487         0.0000        0.0000
        0.0000       -13.4487        0.0000
        0.0000         0.0000      -13.4487

 Diagonalized JT*J matrix:
 
 J[14,15](FC)           -13.449          -13.449          -13.449  iso=    -13.449
                ---------------  ---------------  ---------------  ---------------
 J[14,15](Total)        -13.449          -13.449          -13.449  iso=    -13.449



-----------------------------------------------------------------------------
                SUMMARY OF ISOTROPIC COUPLING CONSTANTS J (Hz)                
-----------------------------------------------------------------------------
                  3 H        4 H        6 H        7 H       10 H       11 H  
      3 H        0.000    -13.337      3.800     13.553      0.083     -0.026
      4 H      -13.337      0.000      2.493      6.040      0.549      0.041
      6 H        3.800      2.493      0.000    -13.761      1.883     -0.110
      7 H       13.553      6.040    -13.761      0.000     -0.109      0.526
     10 H        0.083      0.549      1.883     -0.109      0.000    -13.806
     11 H       -0.026      0.041     -0.110      0.526    -13.806      0.000
     12 H       -0.375     -0.319      0.083     -0.013      3.827     13.571
     13 H       -0.318      2.345      0.549      0.046      2.518      6.072
     14 H       12.818      3.445     -0.434     -0.408     -0.444     -0.408
     15 H        3.443      2.999      1.217     -0.345      1.205     -0.346
                 12 H       13 H       14 H       15 H  
      3 H       -0.375     -0.318     12.818      3.443
      4 H       -0.319      2.345      3.445      2.999
      6 H        0.083      0.549     -0.434      1.217
      7 H       -0.013      0.046     -0.408     -0.345
     10 H        3.827      2.518     -0.444      1.205
     11 H       13.571      6.072     -0.408     -0.346
     12 H        0.000    -13.339     12.819      3.444
     13 H      -13.339      0.000      3.446      2.999
     14 H       12.819      3.446      0.000    -13.449
     15 H        3.444      2.999    -13.449      0.000

NMR spin-spin coupling calculation done in   0.0 sec 

Maximum memory used throughout the entire PROP-calculation: 6.3 MB

--------------------------------
SUGGESTED CITATIONS FOR THIS RUN
--------------------------------

Below you find a list of papers that are relevant to this ORCA run
We neither can nor want to force you to cite these papers, but we appreciate if you do
You receive ORCA, which is the product of decades of hard work by many enthusiastic individuals, for free
The only thing we kindly ask in return is that you cite our papers,
We deeply appreciate it, if you show your appreciation for ORCA by not just citing the generic ORCA reference.

Please note that relegating all ORCA citations to the supporting information does *not* help us.
SI sections are not indexed - citations you put there will not count into any citation statistics
But we need these citations in order to attract the funding resources that allow us to do what we are doing

Therefore, if you are a happy ORCA user, please consider citing a few of the papers listed below in the main body of your paper

In addition to the list printed below, the program has created the file inpJ.bibtex that contains the list in bibtex format
You can import this file easily into all common literature databanks and citation aid programs


List of essential papers. We consider these as the minimum necessary citations

  1. Neese,F.
     Software update: the ORCA program system, version 5.0
     WIRES Comput. Molec. Sci., 2022 12(1)e1606
     doi.org/10.1002/wcms.1606

List of papers to cite with high priority. The work reported in these papers was absolutely
necessary for this run to complete.
Our perspective: the developers of density functionals and basis sets usually get cited in chemistry papers
Good! But without the algorithms to do something with them, the functionals or basis sets would not do anything.
Hence, in our opinion, the algorithm design and method developments papers are equally worthy of getting cited

  1. Neese,F.
     An improvement of the resolution of the identity approximation for the formation of the Coulomb matrix
     J. Comp. Chem., 2003 24(14)1740-1747
     doi.org/10.1002/jcc.10318
  2. Neese,F.; Wennmohs,F.; Hansen,A.; Becker,U.
     Efficient, approximate and parallel Hartree-Fock and hybrid DFT calculations. A 'chain-of-spheres' algorithm for the Hartree-Fock exchange
     Chem. Phys., 2009 356(1-3)98-109
     doi.org/10.1016/j.chemphys.2008.10.036
  3. Stoychev,G.L.; Auer,A.A.; Izsak,R.; Neese,F.
     Self-Consistent Field Calculation of Nuclear Magnetic Resonance Chemical Shielding Constants Using Gauge-Including Atomic Orbitals and Approximate Two-Electron Integrals
     J. Chem. Theory Comput., 2018 14(2)619-637
     doi.org/10.1021/acs.jctc.7b01006
  4. Garcia-Rates,M.; Neese,F.
     Effect of the Solute Cavity on the Solvation Energy and its Derivatives within the Framework of the Gaussian Charge Scheme
     J. Comput. Chem., 2020 41 922-939
     doi.org/10.1002/jcc.26139
  5. Helmich-Paris,B.; de Souza,B.; Neese,F.; Izsák,R.
     An improved chain of spheres for exchange algorithm
     J. Chem. Phys., 2021 155 104109
     doi.org/doi: 10.1063/5.0058766.
  6. Neese,F.
     The SHARK Integral Generation and Digestion System
     J. Comp. Chem., 2022  1-16
     doi.org/10.1002/jcc.26942
  7. Grimme,S.; Bannwarth,C.; Dohm,S.; Hansen,A.; Pisarek,J.; Pracht,P.; Seibert,J.; Neese,F.
     Fully Automated Quantum-Chemistry-Based Computation of Spin-Spin-Coupled Nuclear Magnetic Resonance Spectra
     Angew. Chem., Int. Ed., 2017 56 14763-14769
     doi.org/10.1002/anie.201708266
  8. Caldeweyher,E.; Bannwarth,C.; Grimme,S.
     Extension of the D3 dispersion coefficient model
     J. Chem. Phys., 2017 147 034112-XXXX
     doi.org/10.1063/1.4993215
  9. Caldeweyher,E.; Ehlert,S.; Hansen,A.; Neugebauer,H.; Spicher,S.; Bannwarth,C.; Grimme,S.
     A generally applicable atomic-charge dependent London dispersion correction
     J. Chem. Phys., 2019 150 154122-XXXX
     doi.org/10.1063/1.5090222
 10. Caldeweyher,E.; Mewes,J.; Ehlert,S.; Grimme,S.
     Extension and evaluation of the D4 London-dispersion model for periodic systems
     Phys. Chem. Chem. Phys., 2020 22(16)8499-8512
     doi.org/10.1039/D0CP00502A

List of suggested additional citations. These are papers that are important in the 'surrounding' of 
of this run, or papers that preceded the highly important papers. If you like your results we are grateful for a citation.

  1. Izsak,R.; Neese,F.
     An overlap fitted chain of spheres exchange method
     J. Chem. Phys., 2011 135 144105
     doi.org/10.1063/1.3646921
  2. Izsak,R.; Hansen,A.; Neese,F.
     The resolution of identity and chain of spheres approximations for the LPNO-CCSD singles Fock term
     Molec. Phys., 2012 110 2413-2417
     doi.org/10.1080/00268976.2012.687466
  3. Neese,F.
     The ORCA program system
     WIRES Comput. Molec. Sci., 2012 2(1)73-78
     doi.org/10.1002/wcms.81
  4. Izsak,R.; Neese,F.; Klopper,W.
     Robust fitting techniques in the chain of spheres approximation to the Fock exchange: The role of the complementary space
     J. Chem. Phys., 2013 139 
     doi.org/10.1063/1.4819264
  5. Neese,F.
     Software update: the ORCA program system, version 4.0
     WIRES Comput. Molec. Sci., 2018 8(1)1-6
     doi.org/10.1002/wcms.1327
  6. Neese,F.; Wennmohs,F.; Becker,U.; Riplinger,C.
     The ORCA quantum chemistry program package
     J. Chem. Phys., 2020 152 Art. No. L224108
     doi.org/10.1063/5.0004608

Timings for individual modules:

Sum of individual times          ...        4.082 sec (=   0.068 min)
Startup calculation              ...        0.542 sec (=   0.009 min)  13.3 %
SCF iterations                   ...        2.281 sec (=   0.038 min)  55.9 %
Property integrals               ...        0.197 sec (=   0.003 min)   4.8 %
SCF Response                     ...        0.880 sec (=   0.015 min)  21.6 %
Property calculations            ...        0.183 sec (=   0.003 min)   4.5 %
                             ****ORCA TERMINATED NORMALLY****
TOTAL RUN TIME: 0 days 0 hours 0 minutes 4 seconds 288 msec
