
                                 *****************
                                 * O   R   C   A *
                                 *****************

                                            #,                                       
                                            ###                                      
                                            ####                                     
                                            #####                                    
                                            ######                                   
                                           ########,                                 
                                     ,,################,,,,,                         
                               ,,#################################,,                 
                          ,,##########################################,,             
                       ,#########################################, ''#####,          
                    ,#############################################,,   '####,        
                  ,##################################################,,,,####,       
                ,###########''''           ''''###############################       
              ,#####''   ,,,,##########,,,,          '''####'''          '####       
            ,##' ,,,,###########################,,,                        '##       
           ' ,,###''''                  '''############,,,                           
         ,,##''                                '''############,,,,        ,,,,,,###''
      ,#''                                            '''#######################'''  
     '                                                          ''''####''''         
             ,#######,   #######,   ,#######,      ##                                
            ,#'     '#,  ##    ##  ,#'     '#,    #''#        ######   ,####,        
            ##       ##  ##   ,#'  ##            #'  '#       #        #'  '#        
            ##       ##  #######   ##           ,######,      #####,   #    #        
            '#,     ,#'  ##    ##  '#,     ,#' ,#      #,         ##   #,  ,#        
             '#######'   ##     ##  '#######'  #'      '#     #####' # '####'        



                  #######################################################
                  #                        -***-                        #
                  #          Department of theory and spectroscopy      #
                  #    Directorship and core code : Frank Neese         #
                  #        Max Planck Institute fuer Kohlenforschung    #
                  #                Kaiser Wilhelm Platz 1               #
                  #                 D-45470 Muelheim/Ruhr               #
                  #                      Germany                        #
                  #                                                     #
                  #                  All rights reserved                #
                  #                        -***-                        #
                  #######################################################


                         Program Version 5.0.2 -  RELEASE  -


 With contributions from (in alphabetic order):
   Daniel Aravena         : Magnetic Suceptibility
   Michael Atanasov       : Ab Initio Ligand Field Theory (pilot matlab implementation)
   Alexander A. Auer      : GIAO ZORA, VPT2 properties, NMR spectrum
   Ute Becker             : Parallelization
   Giovanni Bistoni       : ED, misc. LED, open-shell LED, HFLD
   Martin Brehm           : Molecular dynamics
   Dmytro Bykov           : SCF Hessian
   Vijay G. Chilkuri      : MRCI spin determinant printing, contributions to CSF-ICE
   Dipayan Datta          : RHF DLPNO-CCSD density
   Achintya Kumar Dutta   : EOM-CC, STEOM-CC
   Dmitry Ganyushin       : Spin-Orbit,Spin-Spin,Magnetic field MRCI
   Miquel Garcia          : C-PCM and meta-GGA Hessian, CC/C-PCM, Gaussian charge scheme
   Yang Guo               : DLPNO-NEVPT2, F12-NEVPT2, CIM, IAO-localization
   Andreas Hansen         : Spin unrestricted coupled pair/coupled cluster methods
   Benjamin Helmich-Paris : MC-RPA, TRAH-SCF, COSX integrals
   Lee Huntington         : MR-EOM, pCC
   Robert Izsak           : Overlap fitted RIJCOSX, COSX-SCS-MP3, EOM
   Marcus Kettner         : VPT2
   Christian Kollmar      : KDIIS, OOCD, Brueckner-CCSD(T), CCSD density, CASPT2, CASPT2-K
   Simone Kossmann        : Meta GGA functionals, TD-DFT gradient, OOMP2, MP2 Hessian
   Martin Krupicka        : Initial AUTO-CI
   Lucas Lang             : DCDCAS
   Marvin Lechner         : AUTO-CI (C++ implementation), FIC-MRCC
   Dagmar Lenk            : GEPOL surface, SMD
   Dimitrios Liakos       : Extrapolation schemes; Compound Job, initial MDCI parallelization
   Dimitrios Manganas     : Further ROCIS development; embedding schemes
   Dimitrios Pantazis     : SARC Basis sets
   Anastasios Papadopoulos: AUTO-CI, single reference methods and gradients
   Taras Petrenko         : DFT Hessian,TD-DFT gradient, ASA, ECA, R-Raman, ABS, FL, XAS/XES, NRVS
   Peter Pinski           : DLPNO-MP2, DLPNO-MP2 Gradient
   Christoph Reimann      : Effective Core Potentials
   Marius Retegan         : Local ZFS, SOC
   Christoph Riplinger    : Optimizer, TS searches, QM/MM, DLPNO-CCSD(T), (RO)-DLPNO pert. Triples
   Tobias Risthaus        : Range-separated hybrids, TD-DFT gradient, RPA, STAB
   Michael Roemelt        : Original ROCIS implementation
   Masaaki Saitow         : Open-shell DLPNO-CCSD energy and density
   Barbara Sandhoefer     : DKH picture change effects
   Avijit Sen             : IP-ROCIS
   Kantharuban Sivalingam : CASSCF convergence, NEVPT2, FIC-MRCI
   Bernardo de Souza      : ESD, SOC TD-DFT
   Georgi Stoychev        : AutoAux, RI-MP2 NMR, DLPNO-MP2 response
   Willem Van den Heuvel  : Paramagnetic NMR
   Boris Wezisla          : Elementary symmetry handling
   Frank Wennmohs         : Technical directorship


 We gratefully acknowledge several colleagues who have allowed us to
 interface, adapt or use parts of their codes:
   Stefan Grimme, W. Hujo, H. Kruse, P. Pracht,  : VdW corrections, initial TS optimization,
                  C. Bannwarth, S. Ehlert          DFT functionals, gCP, sTDA/sTD-DF
   Ed Valeev, F. Pavosevic, A. Kumar             : LibInt (2-el integral package), F12 methods
   Garnet Chan, S. Sharma, J. Yang, R. Olivares  : DMRG
   Ulf Ekstrom                                   : XCFun DFT Library
   Mihaly Kallay                                 : mrcc  (arbitrary order and MRCC methods)
   Jiri Pittner, Ondrej Demel                    : Mk-CCSD
   Frank Weinhold                                : gennbo (NPA and NBO analysis)
   Christopher J. Cramer and Donald G. Truhlar   : smd solvation model
   Lars Goerigk                                  : TD-DFT with DH, B97 family of functionals
   V. Asgeirsson, H. Jonsson                     : NEB implementation
   FAccTs GmbH                                   : IRC, NEB, NEB-TS, DLPNO-Multilevel, CI-OPT
                                                   MM, QMMM, 2- and 3-layer-ONIOM, Crystal-QMMM,
                                                   LR-CPCM, SF, NACMEs, symmetry and pop. for TD-DFT,
                                                   nearIR, NL-DFT gradient (VV10), updates on ESD,
                                                   ML-optimized integration grids
   S Lehtola, MJT Oliveira, MAL Marques          : LibXC Library
   Liviu Ungur et al                             : ANISO software


 Your calculation uses the libint2 library for the computation of 2-el integrals
 For citations please refer to: http://libint.valeyev.net

 Your ORCA version has been built with support for libXC version: 5.1.0
 For citations please refer to: https://tddft.org/programs/libxc/

 This ORCA versions uses:
   CBLAS   interface :  Fast vector & matrix operations
   LAPACKE interface :  Fast linear algebra routines
   SCALAPACK package :  Parallel linear algebra routines
   Shared memory     :  Shared parallel matrices
   BLAS/LAPACK       :  OpenBLAS 0.3.15  USE64BITINT DYNAMIC_ARCH NO_AFFINITY Zen SINGLE_THREADED
        Core in use  :  Zen
   Copyright (c) 2011-2014, The OpenBLAS Project


Your calculation utilizes the atom-pairwise dispersion correction
based on tight binding partial charges (D4)
Cite in your paper:
E.Caldeweyher, C.Bannwarth, S.Grimme, J.Chem.Phys., (2017), 147, 034112.
E.Caldeweyher, S.Ehlert, A.Hansen, H.Neugebauer, S.Grimme, J.Chem.Phys., (2018), in progress.
   

================================================================================

----- Orbital basis set information -----
Your calculation utilizes the basis: pcSseg-1
   F. Jensen, J. Chem. Theory Comput. 11, 132 (2015).

----- AuxJ basis set information -----
Your calculation utilizes the auxiliary basis: def2/J
   F. Weigend, Phys. Chem. Chem. Phys. 8, 1057 (2006).

================================================================================
                                        WARNINGS
                       Please study these warnings very carefully!
================================================================================



WARNING: Found flag for RIJCOSX approximation but no HF exchange needed!
  ===> : RIJCOSX  will be disabled and Split-RI-J is turned on

INFO   : the flag for use of the SHARK integral package has been found!

================================================================================
                                       INPUT FILE
================================================================================
NAME = inpS
|  1> ! revTPSS
|  2> ! D4
|  3> ! pcSseg-1
|  4> ! def2/J RIJCOSX
|  5> ! DEFGRID2
|  6> ! scfconv7
|  7> ! smallprint printgap noloewdin
|  8> ! NOSOSCF
|  9> %MaxCore 4000
| 10> %output
| 11>        print[P_BondOrder_M] 1
| 12>        print[P_Mayer] 1
| 13>        print[P_basis] 2
| 14> end
| 15> %pal
| 16>     nprocs 4
| 17> end
| 18> ! CPCM(chloroform)
| 19> *xyz 0 1
| 20> C   -5.1682158400  -0.0413341800   0.4119159700
| 21> C   -6.5177278800  -0.5814046400   0.0013448200
| 22> C   -7.1675803900   0.2816213800  -1.0871835700
| 23> H   -7.1958951300  -0.5747742100   0.8716511700
| 24> H   -6.4312066400  -1.6169455200  -0.3457287300
| 25> C   -5.1676993900   1.3986068900   0.7460774700
| 26> C   -5.8645774300   2.2773565400  -0.2679739800
| 27> C   -7.2528739000   1.7340850800  -0.6326460000
| 28> H   -5.2509078900   2.3068996100  -1.1813216400
| 29> H   -5.9383588200   3.3032960600   0.1079168800
| 30> H   -7.7028021200   2.3432352900  -1.4254599800
| 31> H   -7.9131787800   1.7906090900   0.2459483100
| 32> O   -8.4514143200  -0.2358735200  -1.4615098100
| 33> H   -6.5605158600   0.2214861200  -2.0012877200
| 34> C   -4.0717397900  -0.8358148300   0.4110175200
| 35> C   -4.6389066100   1.8917043300   1.8718132900
| 36> H   -4.1645529800   1.2453719700   2.6050780400
| 37> H   -4.6793746200   2.9565002200   2.0888809700
| 38> C   -2.7125971800  -0.4246500600   0.6765315100
| 39> H   -4.2339891100  -1.8774347400   0.1372061900
| 40> C   -1.6310186000  -1.2304382500   0.7439563800
| 41> H   -2.5579801100   0.6429888200   0.8160358900
| 42> C   -1.6466147000  -2.7332412900   0.6246958200
| 43> C   -0.6596131900  -3.2322252000  -0.4466698000
| 44> H   -2.6474595500  -3.1234348900   0.4204797700
| 45> H   -1.3369652100  -3.1501546200   1.5964779600
| 46> C    0.7482481000  -2.6491768700  -0.2675760500
| 47> H   -1.0451374400  -2.9710832100  -1.4403612600
| 48> H   -0.6107863400  -4.3274678500  -0.4096239900
| 49> C    0.7274324700  -1.1150931500  -0.2022146900
| 50> H    1.3870958800  -3.0066541100  -1.0817430100
| 51> H    1.1805631600  -3.0297182200   0.6702792300
| 52> C   -0.2422670100  -0.7093053000   0.9533376600
| 53> H    0.1577754100  -1.2285318900   1.8439969000
| 54> C    0.0186731600   0.7801457000   1.1447002100
| 55> H   -9.0183637000  -0.2031020100  -0.6791461600
| 56> C    1.5454517500   0.9082841800   0.9195706900
| 57> H   -0.2938408300   1.1328691700   2.1333921700
| 58> H   -0.5330380000   1.3681789000   0.4027207100
| 59> C    2.0360118400  -0.4376384200   0.2988905400
| 60> H    2.0666019100   1.1208676800   1.8569521000
| 61> H    1.7768232500   1.7388873900   0.2420882400
| 62> H    2.4187190900  -1.0839049800   1.1047330300
| 63> C    3.1680091700  -0.2215715100  -0.7147525100
| 64> C    0.2632547500  -0.5111472300  -1.5352551300
| 65> H   -0.7905554200  -0.7357131300  -1.7263700500
| 66> H    0.8494773700  -0.9090174500  -2.3705129900
| 67> H    0.3706667100   0.5781148500  -1.5440672700
| 68> H    2.7886333600   0.4645205200  -1.4886990200
| 69> C    3.6294502500  -1.5068318700  -1.4271512000
| 70> C    4.4000678200   0.4292699900  -0.1236391000
| 71> C    4.7656668200   0.4478906200   1.1583190100
| 72> H    5.0705347500   0.8583961700  -0.8701664100
| 73> H    4.0993094700   0.0107871000   1.8997741500
| 74> C    6.0522364800   1.0109877900   1.7113869500
| 75> C    6.7701263600   1.9412078600   0.7313463600
| 76> C    6.9824652600  -0.1315717800   2.2088081400
| 77> H    5.7853167900   1.5985917100   2.6071439900
| 78> H    7.2682868300  -0.7172088400   1.3204764000
| 79> C    6.2707553200  -1.0662292800   3.1927464600
| 80> C    8.2569008200   0.4175016500   2.8584910100
| 81> H    6.0757688300   2.6794045400   0.3169952200
| 82> H    7.2038771500   1.3782992200  -0.1039816800
| 83> H    7.5796380700   2.4855284200   1.2238663500
| 84> H    6.9705610800  -1.8123724200   3.5843904900
| 85> H    5.4385296800  -1.6023978600   2.7275865800
| 86> H    5.8761088800  -0.4986522300   4.0457833600
| 87> H    8.0054201700   1.0887935400   3.6901295800
| 88> H    8.8808035900   0.9715525900   2.1519220100
| 89> H    8.8619034000  -0.4017136200   3.2624247300
| 90> H    4.5272622600  -1.3094800000  -2.0236000400
| 91> H    2.8639493200  -1.9014425200  -2.0999881000
| 92> H    3.8799466200  -2.2792692000  -0.6905265000
| 93> *
| 94> %eprnmr
| 95>  Nuclei = all H { shift }
| 96>  origin giao
| 97>  giao_2el giao_2el_same_as_scf
| 98>  giao_1el giao_1el_analytic
| 99> end
|100> 
|101>                          ****END OF INPUT****
================================================================================

                       ****************************
                       * Single Point Calculation *
                       ****************************

---------------------------------
CARTESIAN COORDINATES (ANGSTROEM)
---------------------------------
  C     -5.168216   -0.041334    0.411916
  C     -6.517728   -0.581405    0.001345
  C     -7.167580    0.281621   -1.087184
  H     -7.195895   -0.574774    0.871651
  H     -6.431207   -1.616946   -0.345729
  C     -5.167699    1.398607    0.746077
  C     -5.864577    2.277357   -0.267974
  C     -7.252874    1.734085   -0.632646
  H     -5.250908    2.306900   -1.181322
  H     -5.938359    3.303296    0.107917
  H     -7.702802    2.343235   -1.425460
  H     -7.913179    1.790609    0.245948
  O     -8.451414   -0.235874   -1.461510
  H     -6.560516    0.221486   -2.001288
  C     -4.071740   -0.835815    0.411018
  C     -4.638907    1.891704    1.871813
  H     -4.164553    1.245372    2.605078
  H     -4.679375    2.956500    2.088881
  C     -2.712597   -0.424650    0.676532
  H     -4.233989   -1.877435    0.137206
  C     -1.631019   -1.230438    0.743956
  H     -2.557980    0.642989    0.816036
  C     -1.646615   -2.733241    0.624696
  C     -0.659613   -3.232225   -0.446670
  H     -2.647460   -3.123435    0.420480
  H     -1.336965   -3.150155    1.596478
  C      0.748248   -2.649177   -0.267576
  H     -1.045137   -2.971083   -1.440361
  H     -0.610786   -4.327468   -0.409624
  C      0.727432   -1.115093   -0.202215
  H      1.387096   -3.006654   -1.081743
  H      1.180563   -3.029718    0.670279
  C     -0.242267   -0.709305    0.953338
  H      0.157775   -1.228532    1.843997
  C      0.018673    0.780146    1.144700
  H     -9.018364   -0.203102   -0.679146
  C      1.545452    0.908284    0.919571
  H     -0.293841    1.132869    2.133392
  H     -0.533038    1.368179    0.402721
  C      2.036012   -0.437638    0.298891
  H      2.066602    1.120868    1.856952
  H      1.776823    1.738887    0.242088
  H      2.418719   -1.083905    1.104733
  C      3.168009   -0.221572   -0.714753
  C      0.263255   -0.511147   -1.535255
  H     -0.790555   -0.735713   -1.726370
  H      0.849477   -0.909017   -2.370513
  H      0.370667    0.578115   -1.544067
  H      2.788633    0.464521   -1.488699
  C      3.629450   -1.506832   -1.427151
  C      4.400068    0.429270   -0.123639
  C      4.765667    0.447891    1.158319
  H      5.070535    0.858396   -0.870166
  H      4.099309    0.010787    1.899774
  C      6.052236    1.010988    1.711387
  C      6.770126    1.941208    0.731346
  C      6.982465   -0.131572    2.208808
  H      5.785317    1.598592    2.607144
  H      7.268287   -0.717209    1.320476
  C      6.270755   -1.066229    3.192746
  C      8.256901    0.417502    2.858491
  H      6.075769    2.679405    0.316995
  H      7.203877    1.378299   -0.103982
  H      7.579638    2.485528    1.223866
  H      6.970561   -1.812372    3.584390
  H      5.438530   -1.602398    2.727587
  H      5.876109   -0.498652    4.045783
  H      8.005420    1.088794    3.690130
  H      8.880804    0.971553    2.151922
  H      8.861903   -0.401714    3.262425
  H      4.527262   -1.309480   -2.023600
  H      2.863949   -1.901443   -2.099988
  H      3.879947   -2.279269   -0.690527

----------------------------
CARTESIAN COORDINATES (A.U.)
----------------------------
  NO LB      ZA    FRAG     MASS         X           Y           Z
   0 C     6.0000    0    12.011   -9.766513   -0.078110    0.778408
   1 C     6.0000    0    12.011  -12.316721   -1.098696    0.002541
   2 C     6.0000    0    12.011  -13.544764    0.532187   -2.054479
   3 H     1.0000    0     1.008  -13.598271   -1.086166    1.647182
   4 H     1.0000    0     1.008  -12.153219   -3.055584   -0.653333
   5 C     6.0000    0    12.011   -9.765537    2.642984    1.409882
   6 C     6.0000    0    12.011  -11.082445    4.303580   -0.506397
   7 C     6.0000    0    12.011  -13.705945    3.276946   -1.195528
   8 H     1.0000    0     1.008   -9.922778    4.359408   -2.232374
   9 H     1.0000    0     1.008  -11.221872    6.242325    0.203933
  10 H     1.0000    0     1.008  -14.556186    4.428073   -2.693729
  11 H     1.0000    0     1.008  -14.953741    3.383761    0.464775
  12 O     8.0000    0    15.999  -15.970859   -0.445736   -2.761853
  13 H     1.0000    0     1.008  -12.397578    0.418548   -3.781886
  14 C     6.0000    0    12.011   -7.694473   -1.579461    0.776711
  15 C     6.0000    0    12.011   -8.766263    3.574803    3.537214
  16 H     1.0000    0     1.008   -7.869865    2.353412    4.922884
  17 H     1.0000    0     1.008   -8.842737    5.586976    3.947413
  18 C     6.0000    0    12.011   -5.126066   -0.802472    1.278459
  19 H     1.0000    0     1.008   -8.001080   -3.547837    0.259282
  20 C     6.0000    0    12.011   -3.082178   -2.325191    1.405874
  21 H     1.0000    0     1.008   -4.833882    1.215073    1.542084
  22 C     6.0000    0    12.011   -3.111651   -5.165077    1.180504
  23 C     6.0000    0    12.011   -1.246488   -6.108020   -0.844084
  24 H     1.0000    0     1.008   -5.002974   -5.902437    0.794592
  25 H     1.0000    0     1.008   -2.526498   -5.952930    3.016906
  26 C     6.0000    0    12.011    1.413984   -5.006219   -0.505645
  27 H     1.0000    0     1.008   -1.975024   -5.614534   -2.721888
  28 H     1.0000    0     1.008   -1.154219   -8.177729   -0.774077
  29 C     6.0000    0    12.011    1.374648   -2.107221   -0.382130
  30 H     1.0000    0     1.008    2.621231   -5.681753   -2.044198
  31 H     1.0000    0     1.008    2.230941   -5.725338    1.266644
  32 C     6.0000    0    12.011   -0.457818   -1.340393    1.801547
  33 H     1.0000    0     1.008    0.298152   -2.321589    3.484649
  34 C     6.0000    0    12.011    0.035287    1.474262    2.163170
  35 H     1.0000    0     1.008  -17.042238   -0.383807   -1.283400
  36 C     6.0000    0    12.011    2.920481    1.716408    1.737737
  37 H     1.0000    0     1.008   -0.555279    2.140812    4.031527
  38 H     1.0000    0     1.008   -1.007296    2.585483    0.761032
  39 C     6.0000    0    12.011    3.847505   -0.827017    0.564821
  40 H     1.0000    0     1.008    3.905312    2.118133    3.509131
  41 H     1.0000    0     1.008    3.357709    3.286021    0.457480
  42 H     1.0000    0     1.008    4.570717   -2.048284    2.087643
  43 C     6.0000    0    12.011    5.986670   -0.418709   -1.350686
  44 C     6.0000    0    12.011    0.497479   -0.965928   -2.901212
  45 H     1.0000    0     1.008   -1.493933   -1.390296   -3.262367
  46 H     1.0000    0     1.008    1.605280   -1.717794   -4.479620
  47 H     1.0000    0     1.008    0.700459    1.092479   -2.917864
  48 H     1.0000    0     1.008    5.269753    0.877817   -2.813233
  49 C     6.0000    0    12.011    6.858667   -2.847500   -2.696925
  50 C     6.0000    0    12.011    8.314923    0.811203   -0.233644
  51 C     6.0000    0    12.011    9.005805    0.846391    2.188906
  52 H     1.0000    0     1.008    9.581922    1.622134   -1.644376
  53 H     1.0000    0     1.008    7.746572    0.020385    3.590053
  54 C     6.0000    0    12.011   11.437069    1.910490    3.234053
  55 C     6.0000    0    12.011   12.793685    3.668351    1.382044
  56 C     6.0000    0    12.011   13.194947   -0.248635    4.174042
  57 H     1.0000    0     1.008   10.932664    3.020901    4.926788
  58 H     1.0000    0     1.008   13.735072   -1.355328    2.495339
  59 C     6.0000    0    12.011   11.850010   -2.014881    6.033416
  60 C     6.0000    0    12.011   15.603281    0.788964    5.401765
  61 H     1.0000    0     1.008   11.481539    5.063341    0.599034
  62 H     1.0000    0     1.008   13.613355    2.604608   -0.196497
  63 H     1.0000    0     1.008   14.323440    4.696968    2.312772
  64 H     1.0000    0     1.008   13.172451   -3.424888    6.773516
  65 H     1.0000    0     1.008   10.277332   -3.028093    5.154392
  66 H     1.0000    0     1.008   11.104237   -0.942316    7.645423
  67 H     1.0000    0     1.008   15.128052    2.057522    6.973334
  68 H     1.0000    0     1.008   16.782287    1.835968    4.066543
  69 H     1.0000    0     1.008   16.746570   -0.759129    6.165089
  70 H     1.0000    0     1.008    8.555286   -2.474559   -3.824050
  71 H     1.0000    0     1.008    5.412080   -3.593206   -3.968402
  72 H     1.0000    0     1.008    7.332037   -4.307195   -1.304906

--------------------------------
INTERNAL COORDINATES (ANGSTROEM)
--------------------------------
 C      0   0   0     0.000000000000     0.00000000     0.00000000
 C      1   0   0     1.510439511229     0.00000000     0.00000000
 C      2   1   0     1.533628459499   111.73477863     0.00000000
 H      2   1   3     1.103353037076   109.42656699   241.41123165
 H      2   1   3     1.095577878670   110.70260371   122.85610614
 C      1   2   3     1.478206501094   114.20876381    50.45413806
 C      6   1   2     1.511998774225   114.47949854   312.07233744
 C      3   2   1     1.524313020743   110.38164033   305.10384085
 H      7   6   1     1.100757487068   108.36884113   289.74589813
 H      7   6   1     1.095120783676   110.20132167   172.62403913
 H      8   3   2     1.096381953691   109.67878301   179.02231303
 H      8   3   2     1.100511453744   108.69772651   296.42530575
 O      3   2   1     1.433928403128   111.19727359   180.40214037
 H      3   2   1     1.098967692940   108.99685052    65.19938439
 C      1   2   3     1.354053189007   120.89871781   232.73083587
 C      6   1   2     1.337926764044   123.32294564   129.85032835
 H     16   6   1     1.086477832020   121.41100351     0.70247186
 H     16   6   1     1.087449458547   120.93876065   181.36150599
 C     15   1   2     1.444583947472   126.49515631   174.75313679
 H     15   1   2     1.089160008073   116.14658635   357.75168905
 C     19  15   1     1.350426949136   126.36225979   176.27753441
 H     19  15   1     1.087759480980   115.89147601   355.11068935
 C     21  19  15     1.507608469245   125.63041039   356.60579051
 C     23  21  19     1.539799082640   111.80410127   127.13972985
 H     23  21  19     1.093455830992   112.33056706     2.97910326
 H     23  21  19     1.101843935869   107.72787039   245.78832688
 C     24  23  21     1.534305490535   112.56975100    50.95410148
 H     24  23  21     1.097381794981   109.13131397   288.86838095
 H     24  23  21     1.096956205005   109.18293768   172.84411467
 C     27  24  23     1.535616572521   111.84881928   306.09050669
 H     27  24  23     1.094890086668   108.93687656   182.43844768
 H     27  24  23     1.100581917163   109.17829831    65.96998970
 C     21  19  15     1.498015704430   122.81294782   176.66388656
 H     33  21  19     1.105849931663   106.53486819   124.46006031
 C     33  21  19     1.524196076384   121.07848972     1.83246856
 H     13   3   2     0.966746322564   107.55195184    62.10667353
 C     35  33  21     1.548597957416   103.37910004   195.47333083
 H     35  33  21     1.095258249000   112.28352312    73.72795160
 H     35  33  21     1.095765406823   110.68298205   314.04451888
 C     30  27  24     1.556416181592   115.92144043   166.51534049
 H     37  35  33     1.093376943947   111.18496058   250.98088768
 H     37  35  33     1.096547734270   111.13225731   132.69564334
 H     40  30  27     1.101593130183   105.79873934   321.64741413
 C     40  30  27     1.534788290787   117.95336190    82.59590869
 C     30  27  24     1.535320306876   111.10742799   294.80736713
 H     45  30  27     1.094290012056   111.22682168    67.71455931
 H     45  30  27     1.095268626801   110.94167638   307.57655395
 H     45  30  27     1.094580678565   111.64030540   187.53200794
 H     44  40  30     1.101653974342   107.31745501    62.89842202
 C     44  40  30     1.540238279232   114.13976065   304.10181680
 C     44  40  30     1.513597779677   113.76435900   180.64964596
 C     51  44  40     1.333201392310   127.21076679    22.26685754
 H     51  44  40     1.091319479878   113.70456602   197.71347512
 H     52  51  44     1.088506926817   118.78356897   355.80564243
 C     52  51  44     1.509378699714   126.24886705   174.93568106
 C     55  52  51     1.530083271095   113.08106183    16.71620939
 C     55  52  51     1.555054916844   110.67065540   250.43849835
 H     55  52  51     1.104040380792   106.84435726   135.43935404
 H     57  55  52     1.101725018421   106.72832817    65.31371389
 C     57  55  52     1.532400175726   112.06758592   306.91304319
 C     57  55  52     1.532238708458   111.70860011   183.70353417
 H     56  55  52     1.094876059219   110.77807110    48.77938593
 H     56  55  52     1.096712733227   111.18474364   288.70778696
 H     56  55  52     1.092780866055   111.20499046   168.55273881
 H     60  57  55     1.095373330574   110.38497555   184.38262574
 H     60  57  55     1.093823557990   112.28941656    64.17788287
 H     60  57  55     1.097980634189   110.51743019   303.41504281
 H     61  57  55     1.097951743027   110.47206531    57.05774321
 H     61  57  55     1.093374072443   112.46962420   296.20011430
 H     61  57  55     1.095583967828   110.34574113   176.06819831
 H     50  44  40     1.095794408012   110.29983956   188.13622229
 H     50  44  40     1.092894657744   112.09878152    68.14885612
 H     50  44  40     1.096368463980   110.21835508   307.03325810

---------------------------
INTERNAL COORDINATES (A.U.)
---------------------------
 C      0   0   0     0.000000000000     0.00000000     0.00000000
 C      1   0   0     2.854317018077     0.00000000     0.00000000
 C      2   1   0     2.898137779641   111.73477863     0.00000000
 H      2   1   3     2.085035069104   109.42656699   241.41123165
 H      2   1   3     2.070342149069   110.70260371   122.85610614
 C      1   2   3     2.793405456449   114.20876381    50.45413806
 C      6   1   2     2.857263598109   114.47949854   312.07233744
 C      3   2   1     2.880534151575   110.38164033   305.10384085
 H      7   6   1     2.080130190422   108.36884113   289.74589813
 H      7   6   1     2.069478364713   110.20132167   172.62403913
 H      8   3   2     2.071861630649   109.67878301   179.02231303
 H      8   3   2     2.079665254821   108.69772651   296.42530575
 O      3   2   1     2.709731977563   111.19727359   180.40214037
 H      3   2   1     2.076747969685   108.99685052    65.19938439
 C      1   2   3     2.558789697986   120.89871781   232.73083587
 C      6   1   2     2.528315171287   123.32294564   129.85032835
 H     16   6   1     2.053145553093   121.41100351     0.70247186
 H     16   6   1     2.054981661135   120.93876065   181.36150599
 C     15   1   2     2.729868038180   126.49515631   174.75313679
 H     15   1   2     2.058214131277   116.14658635   357.75168905
 C     19  15   1     2.551937097734   126.36225979   176.27753441
 H     19  15   1     2.055567518629   115.89147601   355.11068935
 C     21  19  15     2.848967124054   125.63041039   356.60579051
 C     23  21  19     2.909798567453   111.80410127   127.13972985
 H     23  21  19     2.066332060114   112.33056706     2.97910326
 H     23  21  19     2.082183281115   107.72787039   245.78832688
 C     24  23  21     2.899417182883   112.56975100    50.95410148
 H     24  23  21     2.073751056865   109.13131397   288.86838095
 H     24  23  21     2.072946808365   109.18293768   172.84411467
 C     27  24  23     2.901894768776   111.84881928   306.09050669
 H     27  24  23     2.069042410548   108.93687656   182.43844768
 H     27  24  23     2.079798411384   109.17829831    65.96998970
 C     21  19  15     2.830839425685   122.81294782   176.66388656
 H     33  21  19     2.089753516059   106.53486819   124.46006031
 C     33  21  19     2.880313158762   121.07848972     1.83246856
 H     13   3   2     1.826885790622   107.55195184    62.10667353
 C     35  33  21     2.926426031067   103.37910004   195.47333083
 H     35  33  21     2.069738136529   112.28352312    73.72795160
 H     35  33  21     2.070696525921   110.68298205   314.04451888
 C     30  27  24     2.941200333613   115.92144043   166.51534049
 H     37  35  33     2.066182985203   111.18496058   250.98088768
 H     37  35  33     2.072174910542   111.13225731   132.69564334
 H     40  30  27     2.081709327055   105.79873934   321.64741413
 C     40  30  27     2.900329543137   117.95336190    82.59590869
 C     30  27  24     2.901334907843   111.10742799   294.80736713
 H     45  30  27     2.067908433871   111.22682168    67.71455931
 H     45  30  27     2.069757747730   110.94167638   307.57655395
 H     45  30  27     2.068457713970   111.64030540   187.53200794
 H     44  40  30     2.081824305853   107.31745501    62.89842202
 C     44  40  30     2.910628528731   114.13976065   304.10181680
 C     44  40  30     2.860285280501   113.76435900   180.64964596
 C     51  44  40     2.519385512828   127.21076679    22.26685754
 H     51  44  40     2.062294941583   113.70456602   197.71347512
 H     52  51  44     2.056979986560   118.78356897   355.80564243
 C     52  51  44     2.852312374834   126.24886705   174.93568106
 C     55  52  51     2.891438344464   113.08106183    16.71620939
 C     55  52  51     2.938627916042   110.67065540   250.43849835
 H     55  52  51     2.086333960486   106.84435726   135.43935404
 H     57  55  52     2.081958559705   106.72832817    65.31371389
 C     57  55  52     2.895816659695   112.06758592   306.91304319
 C     57  55  52     2.895511530778   111.70860011   183.70353417
 H     56  55  52     2.069015902510   110.77807110    48.77938593
 H     56  55  52     2.072486713384   111.18474364   288.70778696
 H     56  55  52     2.065056561233   111.20499046   168.55273881
 H     60  57  55     2.069955609186   110.38497555   184.38262574
 H     60  57  55     2.067026963433   112.28941656    64.17788287
 H     60  57  55     2.074882698965   110.51743019   303.41504281
 H     61  57  55     2.074828102582   110.47206531    57.05774321
 H     61  57  55     2.066177558847   112.46962420   296.20011430
 H     61  57  55     2.070353655909   110.34574113   176.06819831
 H     50  44  40     2.070751330225   110.29983956   188.13622229
 H     50  44  40     2.065271596362   112.09878152    68.14885612
 H     50  44  40     2.071836138791   110.21835508   307.03325810

---------------------
BASIS SET INFORMATION
---------------------
There are 3 groups of distinct atoms

 Group   1 Type C   : 8s5p1d contracted to 3s3p1d pattern {521/311/1}
 Group   2 Type H   : 4s2p contracted to 2s1p pattern {31/2}
 Group   3 Type O   : 8s5p1d contracted to 3s3p1d pattern {521/311/1}

Atom   0C    basis set group =>   1
Atom   1C    basis set group =>   1
Atom   2C    basis set group =>   1
Atom   3H    basis set group =>   2
Atom   4H    basis set group =>   2
Atom   5C    basis set group =>   1
Atom   6C    basis set group =>   1
Atom   7C    basis set group =>   1
Atom   8H    basis set group =>   2
Atom   9H    basis set group =>   2
Atom  10H    basis set group =>   2
Atom  11H    basis set group =>   2
Atom  12O    basis set group =>   3
Atom  13H    basis set group =>   2
Atom  14C    basis set group =>   1
Atom  15C    basis set group =>   1
Atom  16H    basis set group =>   2
Atom  17H    basis set group =>   2
Atom  18C    basis set group =>   1
Atom  19H    basis set group =>   2
Atom  20C    basis set group =>   1
Atom  21H    basis set group =>   2
Atom  22C    basis set group =>   1
Atom  23C    basis set group =>   1
Atom  24H    basis set group =>   2
Atom  25H    basis set group =>   2
Atom  26C    basis set group =>   1
Atom  27H    basis set group =>   2
Atom  28H    basis set group =>   2
Atom  29C    basis set group =>   1
Atom  30H    basis set group =>   2
Atom  31H    basis set group =>   2
Atom  32C    basis set group =>   1
Atom  33H    basis set group =>   2
Atom  34C    basis set group =>   1
Atom  35H    basis set group =>   2
Atom  36C    basis set group =>   1
Atom  37H    basis set group =>   2
Atom  38H    basis set group =>   2
Atom  39C    basis set group =>   1
Atom  40H    basis set group =>   2
Atom  41H    basis set group =>   2
Atom  42H    basis set group =>   2
Atom  43C    basis set group =>   1
Atom  44C    basis set group =>   1
Atom  45H    basis set group =>   2
Atom  46H    basis set group =>   2
Atom  47H    basis set group =>   2
Atom  48H    basis set group =>   2
Atom  49C    basis set group =>   1
Atom  50C    basis set group =>   1
Atom  51C    basis set group =>   1
Atom  52H    basis set group =>   2
Atom  53H    basis set group =>   2
Atom  54C    basis set group =>   1
Atom  55C    basis set group =>   1
Atom  56C    basis set group =>   1
Atom  57H    basis set group =>   2
Atom  58H    basis set group =>   2
Atom  59C    basis set group =>   1
Atom  60C    basis set group =>   1
Atom  61H    basis set group =>   2
Atom  62H    basis set group =>   2
Atom  63H    basis set group =>   2
Atom  64H    basis set group =>   2
Atom  65H    basis set group =>   2
Atom  66H    basis set group =>   2
Atom  67H    basis set group =>   2
Atom  68H    basis set group =>   2
Atom  69H    basis set group =>   2
Atom  70H    basis set group =>   2
Atom  71H    basis set group =>   2
Atom  72H    basis set group =>   2

-------------------------
BASIS SET IN INPUT FORMAT
-------------------------

 # Basis set for element : H 
 NewGTO H 
 S 3 
   1      12.2518000000      0.0372173893
   2       1.8687100000      0.2538082070
   3       0.4182080000      0.7973867639
 S 1 
   1       0.1061000000      1.0000000000
 P 2 
   1       9.0000000000      0.0402678705
   2       1.0000000000      0.9880231245
  end;

 # Basis set for element : C 
 NewGTO C 
 S 5 
   1    1243.2000000000      0.0056300977
   2     187.1450000000      0.0419506039
   3      42.5126000000      0.1846643605
   4      11.7393000000      0.4665574214
   5       3.5054800000      0.4482347783
 S 2 
   1       5.3908900000     -0.1481148174
   2       0.4933410000      1.0519817143
 S 1 
   1       0.1497410000      1.0000000000
 P 3 
   1      59.6736000000      0.0113906672
   2       9.1805600000      0.1672414929
   3       1.9365800000      0.9041087436
 P 1 
   1       0.5262960000      1.0000000000
 P 1 
   1       0.1363190000      1.0000000000
 D 1 
   1       0.8000000000      1.0000000000
  end;

 # Basis set for element : O 
 NewGTO O 
 S 5 
   1    2288.6400000000      0.0054511382
   2     344.4160000000      0.0407189228
   3      78.2538000000      0.1813694209
   4      21.7195000000      0.4655368202
   5       6.5590700000      0.4512113212
 S 2 
   1      10.4656000000     -0.1502112012
   2       0.9643510000      1.0528679834
 S 1 
   1       0.2851270000      1.0000000000
 P 3 
   1     110.8840000000      0.0113058003
   2      17.0590000000      0.1699226452
   3       3.6899900000      0.9008060328
 P 1 
   1       0.9929960000      1.0000000000
 P 1 
   1       0.2449240000      1.0000000000
 D 1 
   1       1.0000000000      1.0000000000
  end;

---------------------------------
AUXILIARY/J BASIS SET INFORMATION
---------------------------------
There are 3 groups of distinct atoms

 Group   1 Type C   : 12s5p4d2f1g contracted to 6s4p3d1f1g pattern {711111/2111/211/2/1}
 Group   2 Type H   : 5s2p1d contracted to 3s1p1d pattern {311/2/1}
 Group   3 Type O   : 12s5p4d2f1g contracted to 6s4p3d1f1g pattern {711111/2111/211/2/1}

Atom   0C    basis set group =>   1
Atom   1C    basis set group =>   1
Atom   2C    basis set group =>   1
Atom   3H    basis set group =>   2
Atom   4H    basis set group =>   2
Atom   5C    basis set group =>   1
Atom   6C    basis set group =>   1
Atom   7C    basis set group =>   1
Atom   8H    basis set group =>   2
Atom   9H    basis set group =>   2
Atom  10H    basis set group =>   2
Atom  11H    basis set group =>   2
Atom  12O    basis set group =>   3
Atom  13H    basis set group =>   2
Atom  14C    basis set group =>   1
Atom  15C    basis set group =>   1
Atom  16H    basis set group =>   2
Atom  17H    basis set group =>   2
Atom  18C    basis set group =>   1
Atom  19H    basis set group =>   2
Atom  20C    basis set group =>   1
Atom  21H    basis set group =>   2
Atom  22C    basis set group =>   1
Atom  23C    basis set group =>   1
Atom  24H    basis set group =>   2
Atom  25H    basis set group =>   2
Atom  26C    basis set group =>   1
Atom  27H    basis set group =>   2
Atom  28H    basis set group =>   2
Atom  29C    basis set group =>   1
Atom  30H    basis set group =>   2
Atom  31H    basis set group =>   2
Atom  32C    basis set group =>   1
Atom  33H    basis set group =>   2
Atom  34C    basis set group =>   1
Atom  35H    basis set group =>   2
Atom  36C    basis set group =>   1
Atom  37H    basis set group =>   2
Atom  38H    basis set group =>   2
Atom  39C    basis set group =>   1
Atom  40H    basis set group =>   2
Atom  41H    basis set group =>   2
Atom  42H    basis set group =>   2
Atom  43C    basis set group =>   1
Atom  44C    basis set group =>   1
Atom  45H    basis set group =>   2
Atom  46H    basis set group =>   2
Atom  47H    basis set group =>   2
Atom  48H    basis set group =>   2
Atom  49C    basis set group =>   1
Atom  50C    basis set group =>   1
Atom  51C    basis set group =>   1
Atom  52H    basis set group =>   2
Atom  53H    basis set group =>   2
Atom  54C    basis set group =>   1
Atom  55C    basis set group =>   1
Atom  56C    basis set group =>   1
Atom  57H    basis set group =>   2
Atom  58H    basis set group =>   2
Atom  59C    basis set group =>   1
Atom  60C    basis set group =>   1
Atom  61H    basis set group =>   2
Atom  62H    basis set group =>   2
Atom  63H    basis set group =>   2
Atom  64H    basis set group =>   2
Atom  65H    basis set group =>   2
Atom  66H    basis set group =>   2
Atom  67H    basis set group =>   2
Atom  68H    basis set group =>   2
Atom  69H    basis set group =>   2
Atom  70H    basis set group =>   2
Atom  71H    basis set group =>   2
Atom  72H    basis set group =>   2

-------------------------------------
AUXILIARY/J BASIS SET IN INPUT FORMAT
-------------------------------------

 # Auxiliary/J basis set for element : H 
 NewAuxJGTO H 
 S 3 
   1      15.6752927000      0.1007184237
   2       3.6063578000      0.3404257499
   3       1.2080016000      0.6491996172
 S 1 
   1       0.4726794000      1.0000000000
 S 1 
   1       0.2018100000      1.0000000000
 P 2 
   1       2.0281365000      0.5596620919
   2       0.5358730000      0.5596620919
 D 1 
   1       2.2165124000      1.0000000000
  end;

 # Auxiliary/J basis set for element : C 
 NewAuxJGTO C 
 S 7 
   1    1861.0916331000      0.0134602335
   2     642.9939764000      0.0299160374
   3     235.1105725000      0.1008649584
   4      90.7028894000      0.2370970548
   5      36.7794552000      0.3924037254
   6      15.6046273000      0.3195862154
   7       6.8907294000      0.0530104441
 S 1 
   1       3.1478850000     -1.0000000000
 S 1 
   1       1.4777287000      1.0000000000
 S 1 
   1       0.7076466000      1.0000000000
 S 1 
   1       0.3430122000      1.0000000000
 S 1 
   1       0.1669453000      1.0000000000
 P 2 
   1      13.5472892000     -0.6769313712
   2       5.4669419000     -0.3779500978
 P 1 
   1       2.1751721000      1.0000000000
 P 1 
   1       0.8582194000      1.0000000000
 P 1 
   1       0.3376720000      1.0000000000
 D 2 
   1       5.9287253000     -0.3533329857
   2       1.9809209000     -0.7456525731
 D 1 
   1       0.8055417000     -1.0000000000
 D 1 
   1       0.3531244000     -1.0000000000
 F 2 
   1       1.6755626000      0.6311076882
   2       0.5997536000      0.4968166032
 G 1 
   1       1.0024600000     -1.0000000000
  end;

 # Auxiliary/J basis set for element : O 
 NewAuxJGTO O 
 S 7 
   1    2876.8216605000      0.0168151159
   2    1004.7443032000      0.0340137548
   3     369.7579954000      0.1194951309
   4     142.9442404000      0.2664627624
   5      57.8366425000      0.4202764046
   6      24.3864983000      0.2765077335
   7      10.6622662000      0.0057008815
 S 1 
   1       4.8070437000     -1.0000000000
 S 1 
   1       2.2210770000      1.0000000000
 S 1 
   1       1.0447795000      1.0000000000
 S 1 
   1       0.4968425000      1.0000000000
 S 1 
   1       0.2371384000      1.0000000000
 P 2 
   1      64.2613382000     -0.2731534179
   2      16.3006076000     -0.8168011598
 P 1 
   1       4.3550542000      1.0000000000
 P 1 
   1       1.2019554000      1.0000000000
 P 1 
   1       0.3354196000      1.0000000000
 D 2 
   1       9.2146611000     -0.4661230638
   2       2.8435251000     -0.6600908911
 D 1 
   1       0.9955759000     -1.0000000000
 D 1 
   1       0.3649441000     -1.0000000000
 F 2 
   1       2.6420115000      0.5931563945
   2       0.7345613000      0.5931563945
 G 1 
   1       1.3931000000     -1.0000000000
  end;



           ************************************************************
           *        Program running with 4 parallel MPI-processes     *
           *              working on a common directory               *
           ************************************************************
------------------------------------------------------------------------------
                           ORCA GTO INTEGRAL CALCULATION
                           -- RI-GTO INTEGRALS CHOSEN --
------------------------------------------------------------------------------
------------------------------------------------------------------------------
                   ___                                                        
                  /   \      - P O W E R E D   B Y -                         
                 /     \                                                     
                 |  |  |   _    _      __       _____    __    __             
                 |  |  |  | |  | |    /  \     |  _  \  |  |  /  |          
                  \  \/   | |  | |   /    \    | | | |  |  | /  /          
                 / \  \   | |__| |  /  /\  \   | |_| |  |  |/  /          
                |  |  |   |  __  | /  /__\  \  |    /   |      \           
                |  |  |   | |  | | |   __   |  |    \   |  |\   \          
                \     /   | |  | | |  |  |  |  | |\  \  |  | \   \       
                 \___/    |_|  |_| |__|  |__|  |_| \__\ |__|  \__/        
                                                                              
                      - O R C A' S   B I G   F R I E N D -                    
                                      &                                       
                       - I N T E G R A L  F E E D E R -                       
                                                                              
 v1 FN, 2020, v2 2021                                                         
------------------------------------------------------------------------------


Reading SHARK input file inpS.SHARKINP.tmp ... ok
----------------------
SHARK INTEGRAL PACKAGE
----------------------

Number of atoms                             ...     73
Number of basis functions                   ...    713
Number of shells                            ...    335
Maximum angular momentum                    ...      2
Integral batch strategy                     ... SHARK/LIBINT Hybrid
RI-J (if used) integral strategy            ... SPLIT-RIJ (Revised 2003 algorithm where possible)
Printlevel                                  ...      1
Contraction scheme used                     ... SEGMENTED contraction
Coulomb Range Separation                    ... NOT USED
Exchange Range Separation                   ... NOT USED
Finite Nucleus Model                        ... NOT USED
Auxiliary Coulomb fitting basis             ... AVAILABLE
   # of basis functions in Aux-J            ...   1905
   # of shells in Aux-J                     ...    655
   Maximum angular momentum in Aux-J        ...      4
Auxiliary J/K fitting basis                 ... NOT available
Auxiliary Correlation fitting basis         ... NOT available
Auxiliary 'external' fitting basis          ... NOT available
Integral threshold                          ...     3.000000e-11
Primitive cut-off                           ...     1.000000e-12
Primitive pair pre-selection threshold      ...     1.000000e-12

Calculating pre-screening integrals         ... done (  0.0 sec) Dimension = 335
Organizing shell pair data                  ... done (  0.2 sec)
Shell pair information
Total number of shell pairs                 ...     56280
Shell pairs after pre-screening             ...     31553
Total number of primitive shell pairs       ...    225367
Primitive shell pairs kept                  ...     74306
          la=0 lb=0:   9642 shell pairs
          la=1 lb=0:  12972 shell pairs
          la=1 lb=1:   4238 shell pairs
          la=2 lb=0:   2760 shell pairs
          la=2 lb=1:   1747 shell pairs
          la=2 lb=2:    194 shell pairs

Calculating one electron integrals          ... done (  0.1 sec)
Calculating RI/J V-Matrix + Cholesky decomp.... done (  0.1 sec)
Calculating Nuclear repulsion               ... done (  0.0 sec) ENN=   2770.493765773488 Eh

SHARK setup successfully completed in   0.6 seconds

Maximum memory used throughout the entire GTOINT-calculation: 61.1 MB


           ************************************************************
           *        Program running with 4 parallel MPI-processes     *
           *              working on a common directory               *
           ************************************************************
-------------------------------------------------------------------------------
                                 ORCA SCF
-------------------------------------------------------------------------------

------------
SCF SETTINGS
------------
Hamiltonian:
 Density Functional     Method          .... DFT(GTOs)
 Exchange Functional    Exchange        .... revTPSS
 Correlation Functional Correlation     .... revTPSS
 LDA part of GGA corr.  LDAOpt          .... PW91-LDA
 Gradients option       PostSCFGGA      .... off
   Density functional embedding theory  .... OFF
 RI-approximation to the Coulomb term is turned on
   Number of AuxJ basis functions       .... 1905


General Settings:
 Integral files         IntName         .... inpS
 Hartree-Fock type      HFTyp           .... RHF
 Total Charge           Charge          ....    0
 Multiplicity           Mult            ....    1
 Number of Electrons    NEL             ....  220
 Basis Dimension        Dim             ....  713
 Nuclear Repulsion      ENuc            ....   2770.4937657735 Eh

Convergence Acceleration:
 DIIS                   CNVDIIS         .... on
   Start iteration      DIISMaxIt       ....    12
   Startup error        DIISStart       ....  0.200000
   # of expansion vecs  DIISMaxEq       ....     5
   Bias factor          DIISBfac        ....   1.050
   Max. coefficient     DIISMaxC        ....  10.000
 Trust-Rad. Augm. Hess. CNVTRAH         .... auto
   Auto Start mean grad. ratio tolernc. ....  1.125000
   Auto Start start iteration           ....    20
   Auto Start num. interpolation iter.  ....    10
   Max. Number of Micro iterations      ....    16
   Max. Number of Macro iterations      .... Maxiter - #DIIS iter
   Number of Davidson start vectors     ....     2
   Converg. threshold I  (grad. norm)   ....   1.000e-04
   Converg. threshold II (energy diff.) ....   1.000e-07
   Grad. Scal. Fac. for Micro threshold ....   0.100
   Minimum threshold for Micro iter.    ....   0.010
   NR start threshold (gradient norm)   ....   0.001
   Initial trust radius                 ....   0.400
   Minimum AH scaling param. (alpha)    ....   1.000
   Maximum AH scaling param. (alpha)    .... 1000.000
   Orbital update algorithm             .... Taylor
   White noise on init. David. guess    .... on
   Maximum white noise                  ....   0.010
   Quad. conv. algorithm                .... NR
 SOSCF                  CNVSOSCF        .... off
 Level Shifting         CNVShift        .... on
   Level shift para.    LevelShift      ....    0.2500
   Turn off err/grad.   ShiftErr        ....    0.0010
 Zerner damping         CNVZerner       .... off
 Static damping         CNVDamp         .... on
   Fraction old density DampFac         ....    0.7000
   Max. Damping (<1)    DampMax         ....    0.9800
   Min. Damping (>=0)   DampMin         ....    0.0000
   Turn off err/grad.   DampErr         ....    0.1000
 Fernandez-Rico         CNVRico         .... off

SCF Procedure:
 Maximum # iterations   MaxIter         ....   125
 SCF integral mode      SCFMode         .... Direct
   Integral package                     .... SHARK and LIBINT hybrid scheme
 Reset frequency        DirectResetFreq ....    20
 Integral Threshold     Thresh          ....  3.000e-11 Eh
 Primitive CutOff       TCut            ....  1.000e-12 Eh

Convergence Tolerance:
 Convergence Check Mode ConvCheckMode   .... Total+1el-Energy
 Convergence forced     ConvForced      .... 0
 Energy Change          TolE            ....  1.000e-07 Eh
 1-El. energy change                    ....  1.000e-04 Eh
 DIIS Error             TolErr          ....  1.000e-07


Diagonalization of the overlap matrix:
Smallest eigenvalue                        ... 4.977e-04
Time for diagonalization                   ...    0.077 sec
Threshold for overlap eigenvalues          ... 1.000e-08
Number of eigenvalues below threshold      ... 0
Time for construction of square roots      ...    0.073 sec
Total time needed                          ...    0.153 sec

Time for model grid setup =    1.126 sec

------------------------------
INITIAL GUESS: MODEL POTENTIAL
------------------------------
Loading Hartree-Fock densities                     ... done
Calculating cut-offs                               ... done
Initializing the effective Hamiltonian             ... done
Setting up the integral package (SHARK)            ... done
Starting the Coulomb interaction                   ... done (   1.3 sec)
Reading the grid                                   ... done
Mapping shells                                     ... done
Starting the XC term evaluation                    ... done (   0.5 sec)
  promolecular density results
     # of electrons  =    219.969642314
     EX              =   -164.431778023
     EC              =     -7.327014355
     EX+EC           =   -171.758792379
Transforming the Hamiltonian                       ... done (   0.1 sec)
Diagonalizing the Hamiltonian                      ... done (   0.1 sec)
Back transforming the eigenvectors                 ... done (   0.0 sec)
Now organizing SCF variables                       ... done
                      ------------------
                      INITIAL GUESS DONE (   3.0 sec)
                      ------------------
-------------------
DFT GRID GENERATION
-------------------

General Integration Accuracy     IntAcc      ... 4.388
Radial Grid Type                 RadialGrid  ... OptM3 with GC (2021)
Angular Grid (max. ang.)         AngularGrid ... 4 (Lebedev-302)
Angular grid pruning method      GridPruning ... 4 (adaptive)
Weight generation scheme         WeightScheme... Becke
Basis function cutoff            BFCut       ... 1.0000e-11
Integration weight cutoff        WCut        ... 1.0000e-14
Angular grids for H and He will be reduced by one unit
Partially contracted basis set               ... off
Rotationally invariant grid construction     ... off

Total number of grid points                  ...   310032
Total number of batches                      ...     4886
Average number of points per batch           ...       63
Average number of grid points per atom       ...     4247
Time for grid setup =    3.483 sec


--------------------
CPCM SOLVATION MODEL
--------------------
CPCM parameters:
  Epsilon                                         ...       4.9000
  Refrac                                          ...       1.4500
  Rsolv                                           ...       1.3000
  Surface type                                    ... GAUSSIAN VDW
  Epsilon function type                           ...         CPCM
Radii:
 Radius for C  used is    3.8550 Bohr (=   2.0400 Ang.)
 Radius for H  used is    2.4944 Bohr (=   1.3200 Ang.)
 Radius for O  used is    3.4469 Bohr (=   1.8240 Ang.)
Calculating surface                               ...        done! (  0.0s)
GEPOL surface points                              ...         3638
GEPOL Volume                                      ...    3586.7360
GEPOL Surface-area                                ...    1783.0671
Calculating surface distance matrix               ...        done! (  0.1s)
Performing Cholesky decomposition & store         ...        done! (  0.5s)
Overall time for CPCM initialization              ...                 0.6s
--------------
SCF ITERATIONS
--------------
ITER       Energy         Delta-E        Max-DP      RMS-DP      [F,P]     Damp
               ***  Starting incremental Fock matrix formation  ***

  HOMO= 109 E= -1.876 eV LUMO=  7.831 eV gap=   9.707 eV
  0  -1167.5223176670   0.000000000000 0.05376448  0.00083228  0.2605381 0.7000

  HOMO= 109 E= -3.348 eV LUMO=  6.719 eV gap=  10.068 eV
  1  -1167.8946982261  -0.372380559134 0.02895229  0.00061514  0.1016621 0.7000
                               ***Turning on DIIS***

  HOMO= 109 E= -4.323 eV LUMO=  5.828 eV gap=  10.151 eV
  2  -1168.0409887103  -0.146290484193 0.05071289  0.00101482  0.0314153 0.0000

  HOMO= 109 E= -4.950 eV LUMO=  5.237 eV gap=  10.187 eV
  3  -1168.2375860136  -0.196597303251 0.02313853  0.00047385  0.0525397 0.0000

  HOMO= 109 E= -4.988 eV LUMO=  5.200 eV gap=  10.187 eV
  4  -1168.3047200422  -0.067134028631 0.00747661  0.00015263  0.0106006 0.0000

  HOMO= 109 E= -4.939 eV LUMO=  5.256 eV gap=  10.194 eV
  5  -1168.3077913784  -0.003071336187 0.00312366  0.00005699  0.0093326 0.0000

  HOMO= 109 E= -4.919 eV LUMO=  5.273 eV gap=  10.192 eV
  6  -1168.3080650604  -0.000273682014 0.00121882  0.00001932  0.0027754 0.0000

  HOMO= 109 E= -4.921 eV LUMO= -1.532 eV gap=   3.389 eV
  7  -1168.3080845102  -0.000019449802 0.00072214  0.00001174  0.0005761 0.0000

  HOMO= 109 E= -4.919 eV LUMO= -1.530 eV gap=   3.389 eV
  8  -1168.3080875772  -0.000003067054 0.00026449  0.00000287  0.0003796 0.0000

  HOMO= 109 E= -4.917 eV LUMO= -1.528 eV gap=   3.389 eV
  9  -1168.3080881549  -0.000000577610 0.00016925  0.00000158  0.0002799 0.0000

  HOMO= 109 E= -4.917 eV LUMO= -1.529 eV gap=   3.389 eV
 10  -1168.3080884315  -0.000000276634 0.00006438  0.00000071  0.0001062 0.0000

  HOMO= 109 E= -4.918 eV LUMO= -1.529 eV gap=   3.389 eV
 11  -1168.3080884720  -0.000000040486 0.00002692  0.00000028  0.0000335 0.0000

  HOMO= 109 E= -4.918 eV LUMO= -1.529 eV gap=   3.389 eV
 12  -1168.3080884598   0.000000012180 0.00001242  0.00000012  0.0000176 0.0000

  HOMO= 109 E= -4.918 eV LUMO= -1.529 eV gap=   3.389 eV
 13  -1168.3080884808  -0.000000021009 0.00000649  0.00000006  0.0000082 0.0000
                 **** Energy Check signals convergence ****

               *****************************************************
               *                     SUCCESS                       *
               *           SCF CONVERGED AFTER  14 CYCLES          *
               *****************************************************


----------------
TOTAL SCF ENERGY
----------------

Total Energy       :        -1168.30808848 Eh          -31791.27932 eV

Components:
Nuclear Repulsion  :         2770.49376577 Eh           75388.96807 eV
Electronic Energy  :        -3938.80185425 Eh         -107180.24739 eV
One Electron Energy:        -7087.38442081 Eh         -192857.53478 eV
Two Electron Energy:         3148.58256655 Eh           85677.28739 eV
CPCM Dielectric    :           -0.01046071 Eh              -0.28465 eV

Virial components:
Potential Energy   :        -2330.40866456 Eh          -63413.64365 eV
Kinetic Energy     :         1162.10057608 Eh           31622.36433 eV
Virial Ratio       :            2.00534163


DFT components:
N(Alpha)           :      110.000160849198 electrons
N(Beta)            :      110.000160849198 electrons
N(Total)           :      220.000321698396 electrons
E(X)               :     -169.583445180633 Eh       
E(C)               :       -7.443104135736 Eh       
E(XC)              :     -177.026549316368 Eh       
DFET-embed. en.    :        0.000000000000 Eh       
CPCM Solvation Model Properties:
Surface-charge          :           -0.04530835
Charge-correction       :           -0.00003421 Eh              -0.00093 eV
Free-energy (cav+disp)  :  This term is not implemented in the current solvation scheme

---------------
SCF CONVERGENCE
---------------

  Last Energy change         ...    6.6620e-10  Tolerance :   1.0000e-07
  Last MAX-Density change    ...    2.8094e-06  Tolerance :   1.0000e-05
  Last RMS-Density change    ...    2.6730e-08  Tolerance :   1.0000e-06
  Last DIIS Error            ...    3.6170e-06  Tolerance :   1.0000e-07

             **** THE GBW FILE WAS UPDATED (inpS.gbw) ****
             **** DENSITY inpS.scfp WAS UPDATED ****
             **** ENERGY FILE WAS UPDATED (inpS.en.tmp) ****
             **** THE GBW FILE WAS UPDATED (inpS.gbw) ****
             **** DENSITY inpS.scfp WAS UPDATED ****
----------------
ORBITAL ENERGIES
----------------

  NO   OCC          E(Eh)            E(eV) 
   0   2.0000     -18.905655      -514.4490 
   1   2.0000     -10.057080      -273.6670 
   2   2.0000     -10.015789      -272.5435 
   3   2.0000     -10.013379      -272.4779 
   4   2.0000     -10.013298      -272.4757 
   5   2.0000     -10.011507      -272.4270 
   6   2.0000     -10.011293      -272.4211 
   7   2.0000     -10.010836      -272.4087 
   8   2.0000     -10.010265      -272.3932 
   9   2.0000     -10.009259      -272.3658 
  10   2.0000     -10.008205      -272.3371 
  11   2.0000     -10.007714      -272.3237 
  12   2.0000     -10.006596      -272.2933 
  13   2.0000     -10.006521      -272.2913 
  14   2.0000     -10.005344      -272.2592 
  15   2.0000     -10.004772      -272.2437 
  16   2.0000     -10.003995      -272.2225 
  17   2.0000     -10.000943      -272.1395 
  18   2.0000      -9.999935      -272.1121 
  19   2.0000      -9.998666      -272.0775 
  20   2.0000      -9.998407      -272.0705 
  21   2.0000      -9.998322      -272.0682 
  22   2.0000      -9.998265      -272.0666 
  23   2.0000      -9.997625      -272.0492 
  24   2.0000      -9.996076      -272.0071 
  25   2.0000      -9.995949      -272.0036 
  26   2.0000      -9.995825      -272.0002 
  27   2.0000      -9.995680      -271.9963 
  28   2.0000      -9.994521      -271.9647 
  29   2.0000      -0.955799       -26.0086 
  30   2.0000      -0.807011       -21.9599 
  31   2.0000      -0.790960       -21.5231 
  32   2.0000      -0.770506       -20.9665 
  33   2.0000      -0.756341       -20.5811 
  34   2.0000      -0.734089       -19.9756 
  35   2.0000      -0.727463       -19.7953 
  36   2.0000      -0.708435       -19.2775 
  37   2.0000      -0.707975       -19.2650 
  38   2.0000      -0.694214       -18.8905 
  39   2.0000      -0.675225       -18.3738 
  40   2.0000      -0.656586       -17.8666 
  41   2.0000      -0.653886       -17.7932 
  42   2.0000      -0.634758       -17.2727 
  43   2.0000      -0.627834       -17.0842 
  44   2.0000      -0.623215       -16.9585 
  45   2.0000      -0.616028       -16.7630 
  46   2.0000      -0.590561       -16.0700 
  47   2.0000      -0.589413       -16.0387 
  48   2.0000      -0.557842       -15.1796 
  49   2.0000      -0.548843       -14.9348 
  50   2.0000      -0.547425       -14.8962 
  51   2.0000      -0.537394       -14.6232 
  52   2.0000      -0.526172       -14.3179 
  53   2.0000      -0.516690       -14.0598 
  54   2.0000      -0.497431       -13.5358 
  55   2.0000      -0.473376       -12.8812 
  56   2.0000      -0.466294       -12.6885 
  57   2.0000      -0.463005       -12.5990 
  58   2.0000      -0.451164       -12.2768 
  59   2.0000      -0.447409       -12.1746 
  60   2.0000      -0.432042       -11.7565 
  61   2.0000      -0.430105       -11.7038 
  62   2.0000      -0.416019       -11.3204 
  63   2.0000      -0.414897       -11.2899 
  64   2.0000      -0.413454       -11.2507 
  65   2.0000      -0.408160       -11.1066 
  66   2.0000      -0.400559       -10.8998 
  67   2.0000      -0.399900       -10.8818 
  68   2.0000      -0.395515       -10.7625 
  69   2.0000      -0.388886       -10.5821 
  70   2.0000      -0.388554       -10.5731 
  71   2.0000      -0.381234       -10.3739 
  72   2.0000      -0.380315       -10.3489 
  73   2.0000      -0.375424       -10.2158 
  74   2.0000      -0.371607       -10.1119 
  75   2.0000      -0.363517        -9.8918 
  76   2.0000      -0.359297        -9.7770 
  77   2.0000      -0.356709        -9.7066 
  78   2.0000      -0.352705        -9.5976 
  79   2.0000      -0.348499        -9.4831 
  80   2.0000      -0.346126        -9.4186 
  81   2.0000      -0.344258        -9.3677 
  82   2.0000      -0.341357        -9.2888 
  83   2.0000      -0.336666        -9.1611 
  84   2.0000      -0.335099        -9.1185 
  85   2.0000      -0.330445        -8.9919 
  86   2.0000      -0.323057        -8.7908 
  87   2.0000      -0.319903        -8.7050 
  88   2.0000      -0.315183        -8.5766 
  89   2.0000      -0.314362        -8.5542 
  90   2.0000      -0.309933        -8.4337 
  91   2.0000      -0.307487        -8.3671 
  92   2.0000      -0.303897        -8.2695 
  93   2.0000      -0.294899        -8.0246 
  94   2.0000      -0.289536        -7.8787 
  95   2.0000      -0.285686        -7.7739 
  96   2.0000      -0.285074        -7.7573 
  97   2.0000      -0.282763        -7.6944 
  98   2.0000      -0.281075        -7.6484 
  99   2.0000      -0.278788        -7.5862 
 100   2.0000      -0.275896        -7.5075 
 101   2.0000      -0.273200        -7.4341 
 102   2.0000      -0.269832        -7.3425 
 103   2.0000      -0.266297        -7.2463 
 104   2.0000      -0.260521        -7.0891 
 105   2.0000      -0.248725        -6.7682 
 106   2.0000      -0.233248        -6.3470 
 107   2.0000      -0.227287        -6.1848 
 108   2.0000      -0.212839        -5.7916 
 109   2.0000      -0.180718        -4.9176 
 110   0.0000      -0.056186        -1.5289 
 111   0.0000      -0.012917        -0.3515 
 112   0.0000      -0.005588        -0.1521 
 113   0.0000       0.030622         0.8333 
 114   0.0000       0.041827         1.1382 
 115   0.0000       0.042469         1.1556 
 116   0.0000       0.047942         1.3046 
 117   0.0000       0.049082         1.3356 
 118   0.0000       0.051801         1.4096 
 119   0.0000       0.054003         1.4695 
 120   0.0000       0.059624         1.6224 
 121   0.0000       0.066643         1.8135 
 122   0.0000       0.071289         1.9399 
 123   0.0000       0.072968         1.9856 
 124   0.0000       0.075113         2.0439 
 125   0.0000       0.077448         2.1075 
 126   0.0000       0.082369         2.2414 
 127   0.0000       0.086145         2.3441 
 128   0.0000       0.090411         2.4602 
 129   0.0000       0.091423         2.4878 
 130   0.0000       0.102055         2.7771 
 131   0.0000       0.103398         2.8136 
 132   0.0000       0.104944         2.8557 
 133   0.0000       0.107950         2.9375 
 134   0.0000       0.108114         2.9419 
 135   0.0000       0.112260         3.0547 
 136   0.0000       0.116391         3.1672 
 137   0.0000       0.119198         3.2435 
 138   0.0000       0.122268         3.3271 
 139   0.0000       0.123689         3.3658 
 140   0.0000       0.127258         3.4629 
 141   0.0000       0.129875         3.5341 
 142   0.0000       0.130442         3.5495 
 143   0.0000       0.131467         3.5774 
 144   0.0000       0.138381         3.7655 
 145   0.0000       0.139820         3.8047 
 146   0.0000       0.143421         3.9027 
 147   0.0000       0.145749         3.9660 
 148   0.0000       0.147357         4.0098 
 149   0.0000       0.148500         4.0409 
 150   0.0000       0.154335         4.1997 
 151   0.0000       0.155206         4.2234 
 152   0.0000       0.158903         4.3240 
 153   0.0000       0.162782         4.4295 
 154   0.0000       0.166498         4.5306 
 155   0.0000       0.169140         4.6025 
 156   0.0000       0.174725         4.7545 
 157   0.0000       0.177598         4.8327 
 158   0.0000       0.179257         4.8778 
 159   0.0000       0.183953         5.0056 
 160   0.0000       0.191020         5.1979 
 161   0.0000       0.194075         5.2811 
 162   0.0000       0.197284         5.3684 
 163   0.0000       0.201250         5.4763 
 164   0.0000       0.202677         5.5151 
 165   0.0000       0.205007         5.5785 
 166   0.0000       0.205628         5.5954 
 167   0.0000       0.207816         5.6550 
 168   0.0000       0.214164         5.8277 
 169   0.0000       0.216536         5.8922 
 170   0.0000       0.219631         5.9765 
 171   0.0000       0.226372         6.1599 
 172   0.0000       0.229244         6.2380 
 173   0.0000       0.230183         6.2636 
 174   0.0000       0.237294         6.4571 
 175   0.0000       0.243717         6.6319 
 176   0.0000       0.247018         6.7217 
 177   0.0000       0.256022         6.9667 
 178   0.0000       0.262333         7.1384 
 179   0.0000       0.266610         7.2548 
 180   0.0000       0.271001         7.3743 
 181   0.0000       0.284963         7.7542 
 182   0.0000       0.291677         7.9369 
 183   0.0000       0.295504         8.0411 
 184   0.0000       0.303990         8.2720 
 185   0.0000       0.333024         9.0620 
 186   0.0000       0.338968         9.2238 
 187   0.0000       0.340468         9.2646 
 188   0.0000       0.346397         9.4259 
 189   0.0000       0.353018         9.6061 
 190   0.0000       0.354809         9.6549 
 191   0.0000       0.355213         9.6658 
 192   0.0000       0.362161         9.8549 
 193   0.0000       0.369563        10.0563 
 194   0.0000       0.373075        10.1519 
 195   0.0000       0.379521        10.3273 
 196   0.0000       0.384187        10.4543 
 197   0.0000       0.390295        10.6205 
 198   0.0000       0.393235        10.7005 
 199   0.0000       0.398386        10.8406 
 200   0.0000       0.406113        11.0509 
 201   0.0000       0.408156        11.1065 
 202   0.0000       0.413374        11.2485 
 203   0.0000       0.416405        11.3309 
 204   0.0000       0.422429        11.4949 
 205   0.0000       0.429525        11.6880 
 206   0.0000       0.434659        11.8277 
 207   0.0000       0.439600        11.9621 
 208   0.0000       0.449264        12.2251 
 209   0.0000       0.451053        12.2738 
 210   0.0000       0.456864        12.4319 
 211   0.0000       0.467182        12.7127 
 212   0.0000       0.472449        12.8560 
 213   0.0000       0.478806        13.0290 
 214   0.0000       0.480617        13.0783 
 215   0.0000       0.483644        13.1606 
 216   0.0000       0.491451        13.3731 
 217   0.0000       0.493341        13.4245 
 218   0.0000       0.496172        13.5015 
 219   0.0000       0.505833        13.7644 
 220   0.0000       0.510058        13.8794 
 221   0.0000       0.515992        14.0408 
 222   0.0000       0.518902        14.1200 
 223   0.0000       0.527639        14.3578 
 224   0.0000       0.532081        14.4787 
 225   0.0000       0.535892        14.5824 
 226   0.0000       0.539485        14.6801 
 227   0.0000       0.540695        14.7130 
 228   0.0000       0.546818        14.8797 
 229   0.0000       0.549045        14.9403 
 230   0.0000       0.553857        15.0712 
 231   0.0000       0.556245        15.1362 
 232   0.0000       0.558304        15.1922 
 233   0.0000       0.561657        15.2835 
 234   0.0000       0.565907        15.3991 
 235   0.0000       0.570264        15.5177 
 236   0.0000       0.575131        15.6501 
 237   0.0000       0.576245        15.6804 
 238   0.0000       0.577777        15.7221 
 239   0.0000       0.579332        15.7644 
 240   0.0000       0.582081        15.8392 
 241   0.0000       0.583532        15.8787 
 242   0.0000       0.588828        16.0228 
 243   0.0000       0.589753        16.0480 
 244   0.0000       0.591336        16.0911 
 245   0.0000       0.593944        16.1621 
 246   0.0000       0.595125        16.1942 
 247   0.0000       0.598966        16.2987 
 248   0.0000       0.601038        16.3551 
 249   0.0000       0.606396        16.5009 
 250   0.0000       0.607620        16.5342 
 251   0.0000       0.609930        16.5970 
 252   0.0000       0.612184        16.6584 
 253   0.0000       0.613623        16.6975 
 254   0.0000       0.616500        16.7758 
 255   0.0000       0.619504        16.8576 
 256   0.0000       0.622934        16.9509 
 257   0.0000       0.628182        17.0937 
 258   0.0000       0.629467        17.1287 
 259   0.0000       0.631524        17.1846 
 260   0.0000       0.633507        17.2386 
 261   0.0000       0.634181        17.2569 
 262   0.0000       0.639781        17.4093 
 263   0.0000       0.641299        17.4506 
 264   0.0000       0.643761        17.5176 
 265   0.0000       0.648016        17.6334 
 266   0.0000       0.648724        17.6527 
 267   0.0000       0.652031        17.7427 
 268   0.0000       0.656030        17.8515 
 269   0.0000       0.657491        17.8912 
 270   0.0000       0.660854        17.9828 
 271   0.0000       0.661617        18.0035 
 272   0.0000       0.667265        18.1572 
 273   0.0000       0.668871        18.2009 
 274   0.0000       0.672710        18.3054 
 275   0.0000       0.675046        18.3689 
 276   0.0000       0.678058        18.4509 
 277   0.0000       0.682123        18.5615 
 278   0.0000       0.685328        18.6487 
 279   0.0000       0.690245        18.7825 
 280   0.0000       0.691943        18.8287 
 281   0.0000       0.694415        18.8960 
 282   0.0000       0.700291        19.0559 
 283   0.0000       0.704891        19.1811 
 284   0.0000       0.709701        19.3119 
 285   0.0000       0.713113        19.4048 
 286   0.0000       0.714983        19.4557 
 287   0.0000       0.722722        19.6663 
 288   0.0000       0.728707        19.8291 
 289   0.0000       0.734775        19.9942 
 290   0.0000       0.737674        20.0731 
 291   0.0000       0.745649        20.2901 
 292   0.0000       0.751403        20.4467 
 293   0.0000       0.759101        20.6562 
 294   0.0000       0.766284        20.8516 
 295   0.0000       0.767557        20.8863 
 296   0.0000       0.770457        20.9652 
 297   0.0000       0.779322        21.2064 
 298   0.0000       0.784053        21.3352 
 299   0.0000       0.791917        21.5492 
 300   0.0000       0.796591        21.6763 
 301   0.0000       0.810012        22.0415 
 302   0.0000       0.817474        22.2446 
 303   0.0000       0.835261        22.7286 
 304   0.0000       0.838060        22.8048 
 305   0.0000       0.851002        23.1569 
 306   0.0000       0.861056        23.4305 
 307   0.0000       0.887803        24.1584 
 308   0.0000       0.900924        24.5154 
 309   0.0000       0.915472        24.9113 
 310   0.0000       0.922116        25.0921 
 311   0.0000       0.939001        25.5515 
 312   0.0000       0.942365        25.6430 
 313   0.0000       0.953820        25.9548 
 314   0.0000       0.971917        26.4472 
 315   0.0000       0.985032        26.8041 
 316   0.0000       0.997268        27.1370 
 317   0.0000       1.015984        27.6463 
 318   0.0000       1.031941        28.0805 
 319   0.0000       1.033641        28.1268 
 320   0.0000       1.044553        28.4237 
 321   0.0000       1.058466        28.8023 
 322   0.0000       1.065115        28.9833 
 323   0.0000       1.076652        29.2972 
 324   0.0000       1.126581        30.6558 
 325   0.0000       1.130609        30.7654 
 326   0.0000       1.139792        31.0153 
 327   0.0000       1.152408        31.3586 
 328   0.0000       1.170025        31.8380 
 329   0.0000       1.183483        32.2042 
 330   0.0000       1.193287        32.4710 
 331   0.0000       1.224292        33.3147 
 332   0.0000       1.229530        33.4572 
 333   0.0000       1.239536        33.7295 
 334   0.0000       1.261449        34.3258 
 335   0.0000       1.263034        34.3689 
 336   0.0000       1.279471        34.8162 
 337   0.0000       1.282669        34.9032 
 338   0.0000       1.289600        35.0918 
 339   0.0000       1.319182        35.8968 
 340   0.0000       1.327000        36.1095 
 341   0.0000       1.335380        36.3375 
 342   0.0000       1.348140        36.6848 
 343   0.0000       1.360346        37.0169 
 344   0.0000       1.370583        37.2955 
 345   0.0000       1.376123        37.4462 
 346   0.0000       1.381641        37.5964 
 347   0.0000       1.397653        38.0321 
 348   0.0000       1.407836        38.3092 
 349   0.0000       1.414456        38.4893 
 350   0.0000       1.425845        38.7992 
 351   0.0000       1.427738        38.8507 
 352   0.0000       1.435638        39.0657 
 353   0.0000       1.452482        39.5241 
 354   0.0000       1.457806        39.6689 
 355   0.0000       1.464126        39.8409 
 356   0.0000       1.480706        40.2920 
 357   0.0000       1.497713        40.7548 
 358   0.0000       1.506779        41.0015 
 359   0.0000       1.514260        41.2051 
 360   0.0000       1.518457        41.3193 
 361   0.0000       1.522985        41.4425 
 362   0.0000       1.531178        41.6655 
 363   0.0000       1.546473        42.0817 
 364   0.0000       1.550381        42.1880 
 365   0.0000       1.559208        42.4282 
 366   0.0000       1.572320        42.7850 
 367   0.0000       1.578214        42.9454 
 368   0.0000       1.601665        43.5835 
 369   0.0000       1.604786        43.6684 
 370   0.0000       1.614715        43.9386 
 371   0.0000       1.618496        44.0415 
 372   0.0000       1.628865        44.3237 
 373   0.0000       1.636895        44.5422 
 374   0.0000       1.650965        44.9250 
 375   0.0000       1.652224        44.9593 
 376   0.0000       1.661082        45.2003 
 377   0.0000       1.674423        45.5634 
 378   0.0000       1.678762        45.6814 
 379   0.0000       1.683097        45.7994 
 380   0.0000       1.690279        45.9948 
 381   0.0000       1.691792        46.0360 
 382   0.0000       1.701220        46.2926 
 383   0.0000       1.702691        46.3326 
 384   0.0000       1.715976        46.6941 
 385   0.0000       1.720263        46.8107 
 386   0.0000       1.725434        46.9514 
 387   0.0000       1.728973        47.0477 
 388   0.0000       1.732947        47.1559 
 389   0.0000       1.737803        47.2880 
 390   0.0000       1.741917        47.4000 
 391   0.0000       1.748978        47.5921 
 392   0.0000       1.755254        47.7629 
 393   0.0000       1.765935        48.0535 
 394   0.0000       1.769789        48.1584 
 395   0.0000       1.771923        48.2165 
 396   0.0000       1.778690        48.4006 
 397   0.0000       1.782942        48.5163 
 398   0.0000       1.786090        48.6020 
 399   0.0000       1.792461        48.7754 
 400   0.0000       1.796625        48.8887 
 401   0.0000       1.800220        48.9865 
 402   0.0000       1.803313        49.0706 
 403   0.0000       1.805792        49.1381 
 404   0.0000       1.811457        49.2923 
 405   0.0000       1.819278        49.5051 
 406   0.0000       1.823794        49.6280 
 407   0.0000       1.832136        49.8550 
 408   0.0000       1.836665        49.9782 
 409   0.0000       1.851341        50.3775 
 410   0.0000       1.857723        50.5512 
 411   0.0000       1.862255        50.6745 
 412   0.0000       1.875195        51.0266 
 413   0.0000       1.881869        51.2083 
 414   0.0000       1.893808        51.5331 
 415   0.0000       1.898015        51.6476 
 416   0.0000       1.900828        51.7242 
 417   0.0000       1.902888        51.7802 
 418   0.0000       1.907704        51.9113 
 419   0.0000       1.916376        52.1472 
 420   0.0000       1.929651        52.5085 
 421   0.0000       1.936336        52.6904 
 422   0.0000       1.941870        52.8410 
 423   0.0000       1.947738        53.0006 
 424   0.0000       1.951020        53.0899 
 425   0.0000       1.951839        53.1122 
 426   0.0000       1.964501        53.4568 
 427   0.0000       1.968970        53.5784 
 428   0.0000       1.970294        53.6144 
 429   0.0000       1.979408        53.8624 
 430   0.0000       1.982285        53.9407 
 431   0.0000       1.987212        54.0748 
 432   0.0000       1.992774        54.2261 
 433   0.0000       1.995787        54.3081 
 434   0.0000       1.998783        54.3897 
 435   0.0000       2.004203        54.5371 
 436   0.0000       2.007838        54.6360 
 437   0.0000       2.013087        54.7789 
 438   0.0000       2.015543        54.8457 
 439   0.0000       2.018822        54.9349 
 440   0.0000       2.021366        55.0042 
 441   0.0000       2.032680        55.3120 
 442   0.0000       2.039667        55.5021 
 443   0.0000       2.043374        55.6030 
[...]

 --------------
 Nucleus  47H :
 --------------

Diamagnetic contribution to the shielding tensor (ppm) : 
            31.297          1.911         0.513
            -0.341         51.782        -4.055
             1.409         -3.114        39.693

Paramagnetic contribution to the shielding tensor (ppm): 
            -2.612         -2.478         0.618
            -0.071        -17.558         0.950
            -0.813         -0.021        -8.751

Total shielding tensor (ppm): 
            28.685         -0.567         1.131
            -0.412         34.223        -3.104
             0.597         -3.135        30.942


 Diagonalized sT*s matrix:
 
 sDSO            32.393           39.007           51.372  iso=      40.924
 sPSO            -4.109           -9.647          -15.164  iso=      -9.640
        ---------------  ---------------  ---------------
 Total           28.284           29.359           36.208  iso=      31.284

 --------------
 Nucleus  48H :
 --------------

Diamagnetic contribution to the shielding tensor (ppm) : 
            35.963          0.189        -0.493
            -2.543         43.369        -8.293
            -0.511         -5.067        40.958

Paramagnetic contribution to the shielding tensor (ppm): 
            -4.396          0.718         1.248
             2.814        -14.848         4.684
             0.567          2.162       -11.668

Total shielding tensor (ppm): 
            31.566          0.907         0.755
             0.270         28.521        -3.610
             0.056         -2.904        29.291


 Diagonalized sT*s matrix:
 
 sDSO            36.009           36.003           48.278  iso=      40.097
 sPSO           -10.466           -4.368          -16.078  iso=     -10.304
        ---------------  ---------------  ---------------
 Total           25.543           31.635           32.199  iso=      29.793

 --------------
 Nucleus  52H :
 --------------

Diamagnetic contribution to the shielding tensor (ppm) : 
            39.842          5.998        -4.785
            12.630         32.420       -12.917
            -7.788        -15.335        47.169

Paramagnetic contribution to the shielding tensor (ppm): 
           -11.421         -3.355         9.182
            -9.593         -8.051        14.028
            10.654         15.988       -21.073

Total shielding tensor (ppm): 
            28.421          2.643         4.397
             3.036         24.368         1.110
             2.866          0.653        26.096


 Diagonalized sT*s matrix:
 
 sDSO            24.929           58.853           35.649  iso=      39.810
 sPSO            -2.444          -34.559           -3.542  iso=     -13.515
        ---------------  ---------------  ---------------
 Total           22.485           24.294           32.107  iso=      26.295

 --------------
 Nucleus  53H :
 --------------

Diamagnetic contribution to the shielding tensor (ppm) : 
            44.387          8.789        -6.103
             5.872         48.437       -14.658
            -1.062        -15.820        47.566

Paramagnetic contribution to the shielding tensor (ppm): 
           -13.423         -8.562        12.704
            -5.512        -26.987        16.027
             6.693         16.269       -22.652

Total shielding tensor (ppm): 
            30.964          0.227         6.601
             0.360         21.450         1.369
             5.631          0.448        24.914


 Diagonalized sT*s matrix:
 
 sDSO            65.767           32.748           41.875  iso=      46.797
 sPSO           -45.137          -10.851           -7.075  iso=     -21.021
        ---------------  ---------------  ---------------
 Total           20.631           21.896           34.801  iso=      25.776

 --------------
 Nucleus  57H :
 --------------

Diamagnetic contribution to the shielding tensor (ppm) : 
            33.526          1.582        -2.791
            15.188         37.359         4.135
            -3.814         -4.211        44.119

Paramagnetic contribution to the shielding tensor (ppm): 
            -3.524         -1.825         1.666
           -15.154         -7.926        -0.763
             2.929          6.314       -12.959

Total shielding tensor (ppm): 
            30.002         -0.243        -1.125
             0.034         29.433         3.373
            -0.885          2.103        31.160


 Diagonalized sT*s matrix:
 
 sDSO            36.319           38.247           40.438  iso=      38.335
 sPSO            -8.995           -8.370           -7.045  iso=      -8.137
        ---------------  ---------------  ---------------
 Total           27.324           29.877           33.393  iso=      30.198

 --------------
 Nucleus  58H :
 --------------

Diamagnetic contribution to the shielding tensor (ppm) : 
            35.466         -5.049        -0.964
           -13.276         27.150        -1.184
            -0.850          7.143        32.700

Paramagnetic contribution to the shielding tensor (ppm): 
            -4.862          4.209         0.468
            11.965          3.074         3.482
             0.324         -4.851        -0.749

Total shielding tensor (ppm): 
            30.604         -0.839        -0.496
            -1.310         30.224         2.298
            -0.526          2.292        31.951


 Diagonalized sT*s matrix:
 
 sDSO            22.709           35.208           37.399  iso=      31.772
 sPSO             5.746           -4.755           -3.527  iso=      -0.845
        ---------------  ---------------  ---------------
 Total           28.454           30.453           33.873  iso=      30.926

 --------------
 Nucleus  61H :
 --------------

Diamagnetic contribution to the shielding tensor (ppm) : 
            30.385         -2.440         1.889
            24.523         39.351        -5.881
            -6.853        -10.612        33.161

Paramagnetic contribution to the shielding tensor (ppm): 
            -0.203          1.232        -0.089
           -25.675         -5.204         1.626
             9.144          7.082        -5.035

Total shielding tensor (ppm): 
            30.182         -1.208         1.800
            -1.151         34.148        -4.256
             2.292         -3.530        28.126


 Diagonalized sT*s matrix:
 
 sDSO            27.222           38.262           37.414  iso=      34.299
 sPSO            -1.437           -8.257           -0.748  iso=      -3.481
        ---------------  ---------------  ---------------
 Total           25.785           30.005           36.666  iso=      30.819

 --------------
 Nucleus  62H :
 --------------

Diamagnetic contribution to the shielding tensor (ppm) : 
            34.638          0.006        -6.500
            12.627         23.991         4.504
           -17.155         -0.142        34.362

Paramagnetic contribution to the shielding tensor (ppm): 
            -3.565          0.465         3.441
           -12.237          3.604        -3.898
            14.377          0.942        -0.294

Total shielding tensor (ppm): 
            31.072          0.471        -3.059
             0.391         27.595         0.606
            -2.779          0.800        34.068


 Diagonalized sT*s matrix:
 
 sDSO            19.724           28.563           44.704  iso=      30.997
 sPSO             7.583            0.998           -8.836  iso=      -0.085
        ---------------  ---------------  ---------------
 Total           27.307           29.561           35.868  iso=      30.912

 --------------
 Nucleus  63H :
 --------------

Diamagnetic contribution to the shielding tensor (ppm) : 
            35.506          7.279         1.392
            31.167         27.665        14.392
            -5.059          7.109        22.903

Paramagnetic contribution to the shielding tensor (ppm): 
            -3.543         -2.640         1.502
           -26.241          3.816       -15.544
             7.311         -8.265         4.886

Total shielding tensor (ppm): 
            31.962          4.639         2.894
             4.925         31.480        -1.153
             2.252         -1.156        27.789


 Diagonalized sT*s matrix:
 
 sDSO            25.563            8.349           52.161  iso=      28.691
 sPSO            -0.887           21.557          -15.511  iso=       1.720
        ---------------  ---------------  ---------------
 Total           24.676           29.906           36.650  iso=      30.411

 --------------
 Nucleus  64H :
 --------------

Diamagnetic contribution to the shielding tensor (ppm) : 
            25.931         -6.765         1.385
           -25.098         28.488       -10.494
            15.846         -4.463        34.195

Paramagnetic contribution to the shielding tensor (ppm): 
             4.150          4.670         0.384
            22.325          5.183         5.776
           -13.521          0.049        -5.257

Total shielding tensor (ppm): 
            30.081         -2.095         1.769
            -2.774         33.670        -4.718
             2.326         -4.414        28.938


 Diagonalized sT*s matrix:
 
 sDSO            26.602           13.874           48.138  iso=      29.538
 sPSO            -0.517           14.991          -10.398  iso=       1.359
        ---------------  ---------------  ---------------
 Total           26.084           28.865           37.740  iso=      30.896

 --------------
 Nucleus  65H :
 --------------

Diamagnetic contribution to the shielding tensor (ppm) : 
            34.842          8.969        -0.304
            -8.985         37.396       -16.523
            11.053         -9.961        38.421

Paramagnetic contribution to the shielding tensor (ppm): 
            -1.998         -5.230         4.664
            13.446         -6.882        14.813
            -8.375          8.306       -10.964

Total shielding tensor (ppm): 
            32.844          3.738         4.359
             4.461         30.515        -1.710
             2.678         -1.655        27.458


 Diagonalized sT*s matrix:
 
 sDSO            24.177           51.881           34.601  iso=      36.886
 sPSO            -0.337          -21.271            1.764  iso=      -6.614
        ---------------  ---------------  ---------------
 Total           23.840           30.611           36.365  iso=      30.272

 --------------
 Nucleus  66H :
 --------------

Diamagnetic contribution to the shielding tensor (ppm) : 
            26.494         -0.030        -7.522
           -12.112         29.450        -6.669
             7.806         -2.232        46.445

Paramagnetic contribution to the shielding tensor (ppm): 
             3.843         -0.227         5.227
            11.942         -1.447         6.245
           -10.267          2.777       -11.662

Total shielding tensor (ppm): 
            30.337         -0.256        -2.294
            -0.170         28.002        -0.424
            -2.461          0.545        34.783


 Diagonalized sT*s matrix:
 
 sDSO            27.662           31.663           43.063  iso=      34.129
 sPSO             0.316           -2.336           -7.246  iso=      -3.089
        ---------------  ---------------  ---------------
 Total           27.978           29.327           35.817  iso=      31.041

 --------------
 Nucleus  67H :
 --------------

Diamagnetic contribution to the shielding tensor (ppm) : 
            27.565         -0.314         3.829
             6.036         15.096        17.190
            11.240         10.938        28.787

Paramagnetic contribution to the shielding tensor (ppm): 
             2.182          1.727        -1.085
            -4.987         15.318       -13.476
            -9.219         -7.174         4.420

Total shielding tensor (ppm): 
            29.747          1.413         2.744
             1.049         30.414         3.714
             2.021          3.763        33.206


 Diagonalized sT*s matrix:
 
 sDSO             7.167           22.824           41.457  iso=      23.816
 sPSO            20.548            6.023           -4.652  iso=       7.306
        ---------------  ---------------  ---------------
 Total           27.715           28.848           36.804  iso=      31.122

 --------------
 Nucleus  68H :
 --------------

Diamagnetic contribution to the shielding tensor (ppm) : 
            39.417          4.421        -0.015
            10.549         10.645        11.100
            -7.206          4.985        15.858

Paramagnetic contribution to the shielding tensor (ppm): 
            -4.623         -0.808        -1.045
            -7.622         17.271       -14.801
             7.097         -7.575        12.460

Total shielding tensor (ppm): 
            34.794          3.613        -1.061
             2.926         27.915        -3.702
            -0.109         -2.589        28.318


 Diagonalized sT*s matrix:
 
 sDSO            19.720            7.737           38.462  iso=      21.973
 sPSO             4.817           22.260           -1.969  iso=       8.369
        ---------------  ---------------  ---------------
 Total           24.537           29.998           36.493  iso=      30.342

 --------------
 Nucleus  69H :
 --------------

Diamagnetic contribution to the shielding tensor (ppm) : 
            34.253         -6.130        10.100
           -17.090          6.562        -0.353
            12.385          0.720        16.501

Paramagnetic contribution to the shielding tensor (ppm): 
             0.382          2.746        -6.190
            14.363         23.308        -1.681
            -8.818         -3.273        11.628

Total shielding tensor (ppm): 
            34.636         -3.384         3.910
            -2.727         29.870        -2.034
             3.568         -2.553        28.128


 Diagonalized sT*s matrix:
 
 sDSO            13.370            2.269           41.677  iso=      19.105
 sPSO            12.770           26.174           -3.626  iso=      11.773
        ---------------  ---------------  ---------------
 Total           26.141           28.442           38.052  iso=      30.878

 --------------
 Nucleus  70H :
 --------------

Diamagnetic contribution to the shielding tensor (ppm) : 
            36.246         -3.296        -9.623
            -9.267         27.786        -3.197
           -13.111         -0.068        34.107

Paramagnetic contribution to the shielding tensor (ppm): 
            -2.736          3.505         4.593
             9.028         -0.268         5.901
             8.382          1.730        -2.783

Total shielding tensor (ppm): 
            33.510          0.209        -5.030
            -0.239         27.518         2.703
            -4.729          1.662        31.324


 Diagonalized sT*s matrix:
 
 sDSO            30.890           20.036           47.213  iso=      32.713
 sPSO            -5.197            9.013           -9.604  iso=      -1.929
        ---------------  ---------------  ---------------
 Total           25.693           29.049           37.609  iso=      30.784

 --------------
 Nucleus  71H :
 --------------

Diamagnetic contribution to the shielding tensor (ppm) : 
            33.510          1.995         3.835
            -5.631         37.922         7.304
            -1.403          6.365        39.291

Paramagnetic contribution to the shielding tensor (ppm): 
            -1.395         -0.952        -4.054
             7.791         -9.932        -2.034
             2.435         -1.709        -8.535

Total shielding tensor (ppm): 
            32.115          1.043        -0.219
             2.161         27.991         5.271
             1.032          4.656        30.756


 Diagonalized sT*s matrix:
 
 sDSO            32.480           35.058           43.185  iso=      36.908
 sPSO            -8.394           -3.385           -8.082  iso=      -6.620
        ---------------  ---------------  ---------------
 Total           24.086           31.673           35.103  iso=      30.287

 --------------
 Nucleus  72H :
 --------------

Diamagnetic contribution to the shielding tensor (ppm) : 
            30.827         -6.939        -0.302
           -13.427         43.806        -5.730
            -2.418         -6.086        32.987

Paramagnetic contribution to the shielding tensor (ppm): 
             0.595          4.107         0.772
            11.308        -10.118         4.418
             2.265          5.168        -4.319

Total shielding tensor (ppm): 
            31.422         -2.832         0.470
            -2.119         33.688        -1.312
            -0.153         -0.918        28.667


 Diagonalized sT*s matrix:
 
 sDSO            29.173           28.186           50.261  iso=      35.873
 sPSO            -0.807            1.792          -14.828  iso=      -4.614
        ---------------  ---------------  ---------------
 Total           28.366           29.978           35.433  iso=      31.259



--------------------------------
CHEMICAL SHIELDING SUMMARY (ppm)
--------------------------------


  Nucleus  Element    Isotropic     Anisotropy
  -------  -------  ------------   ------------
      3       H           29.636          5.438 
      4       H           29.129          5.298 
      8       H           29.566          6.431 
      9       H           29.430          7.762 
     10       H           29.632          8.807 
     11       H           30.529          6.260 
     13       H           28.186          2.755 
     16       H           26.856          5.192 
     17       H           26.525          5.017 
     19       H           25.445         10.802 
     21       H           25.705         15.039 
     24       H           28.875          9.969 
     25       H           29.978          9.343 
     27       H           30.230          7.245 
     28       H           30.153         11.746 
     30       H           29.720          7.998 
     31       H           30.395          6.809 
     33       H           29.773          3.985 
     35       H           31.124         14.847 
     37       H           30.377         10.873 
     38       H           30.302          9.567 
     40       H           29.699          9.650 
     41       H           30.744          7.668 
     42       H           30.167          7.609 
     45       H           31.052          8.338 
     46       H           31.280          9.478 
     47       H           31.284          7.386 
     48       H           29.793          3.610 
     52       H           26.295          8.717 
     53       H           25.776         13.537 
     57       H           30.198          4.793 
     58       H           30.926          4.419 
     61       H           30.819          8.771 
     62       H           30.912          7.435 
     63       H           30.411          9.359 
     64       H           30.896         10.266 
     65       H           30.272          9.140 
     66       H           31.041          7.165 
     67       H           31.122          8.523 
     68       H           30.342          9.225 
     69       H           30.878         10.760 
     70       H           30.784         10.238 
     71       H           30.287          7.223 
     72       H           31.259          6.261 



Maximum memory used throughout the entire EPRNMR-calculation: 140.7 MB

Timings for individual modules:

Sum of individual times         ...      142.478 sec (=   2.375 min)
GTO integral calculation        ...        0.825 sec (=   0.014 min)   0.6 %
SCF iterations                  ...       95.043 sec (=   1.584 min)  66.7 %
EPR/NMR calculation             ...       46.610 sec (=   0.777 min)  32.7 %
                             ****ORCA TERMINATED NORMALLY****
TOTAL RUN TIME: 0 days 0 hours 2 minutes 22 seconds 960 msec
