
                                 *****************
                                 * O   R   C   A *
                                 *****************

                                            #,                                       
                                            ###                                      
                                            ####                                     
                                            #####                                    
                                            ######                                   
                                           ########,                                 
                                     ,,################,,,,,                         
                               ,,#################################,,                 
                          ,,##########################################,,             
                       ,#########################################, ''#####,          
                    ,#############################################,,   '####,        
                  ,##################################################,,,,####,       
                ,###########''''           ''''###############################       
              ,#####''   ,,,,##########,,,,          '''####'''          '####       
            ,##' ,,,,###########################,,,                        '##       
           ' ,,###''''                  '''############,,,                           
         ,,##''                                '''############,,,,        ,,,,,,###''
      ,#''                                            '''#######################'''  
     '                                                          ''''####''''         
             ,#######,   #######,   ,#######,      ##                                
            ,#'     '#,  ##    ##  ,#'     '#,    #''#        ######   ,####,        
            ##       ##  ##   ,#'  ##            #'  '#       #        #'  '#        
            ##       ##  #######   ##           ,######,      #####,   #    #        
            '#,     ,#'  ##    ##  '#,     ,#' ,#      #,         ##   #,  ,#        
             '#######'   ##     ##  '#######'  #'      '#     #####' # '####'        



                  #######################################################
                  #                        -***-                        #
                  #          Department of theory and spectroscopy      #
                  #    Directorship and core code : Frank Neese         #
                  #        Max Planck Institute fuer Kohlenforschung    #
                  #                Kaiser Wilhelm Platz 1               #
                  #                 D-45470 Muelheim/Ruhr               #
                  #                      Germany                        #
                  #                                                     #
                  #                  All rights reserved                #
                  #                        -***-                        #
                  #######################################################


                         Program Version 5.0.2 -  RELEASE  -


 With contributions from (in alphabetic order):
   Daniel Aravena         : Magnetic Suceptibility
   Michael Atanasov       : Ab Initio Ligand Field Theory (pilot matlab implementation)
   Alexander A. Auer      : GIAO ZORA, VPT2 properties, NMR spectrum
   Ute Becker             : Parallelization
   Giovanni Bistoni       : ED, misc. LED, open-shell LED, HFLD
   Martin Brehm           : Molecular dynamics
   Dmytro Bykov           : SCF Hessian
   Vijay G. Chilkuri      : MRCI spin determinant printing, contributions to CSF-ICE
   Dipayan Datta          : RHF DLPNO-CCSD density
   Achintya Kumar Dutta   : EOM-CC, STEOM-CC
   Dmitry Ganyushin       : Spin-Orbit,Spin-Spin,Magnetic field MRCI
   Miquel Garcia          : C-PCM and meta-GGA Hessian, CC/C-PCM, Gaussian charge scheme
   Yang Guo               : DLPNO-NEVPT2, F12-NEVPT2, CIM, IAO-localization
   Andreas Hansen         : Spin unrestricted coupled pair/coupled cluster methods
   Benjamin Helmich-Paris : MC-RPA, TRAH-SCF, COSX integrals
   Lee Huntington         : MR-EOM, pCC
   Robert Izsak           : Overlap fitted RIJCOSX, COSX-SCS-MP3, EOM
   Marcus Kettner         : VPT2
   Christian Kollmar      : KDIIS, OOCD, Brueckner-CCSD(T), CCSD density, CASPT2, CASPT2-K
   Simone Kossmann        : Meta GGA functionals, TD-DFT gradient, OOMP2, MP2 Hessian
   Martin Krupicka        : Initial AUTO-CI
   Lucas Lang             : DCDCAS
   Marvin Lechner         : AUTO-CI (C++ implementation), FIC-MRCC
   Dagmar Lenk            : GEPOL surface, SMD
   Dimitrios Liakos       : Extrapolation schemes; Compound Job, initial MDCI parallelization
   Dimitrios Manganas     : Further ROCIS development; embedding schemes
   Dimitrios Pantazis     : SARC Basis sets
   Anastasios Papadopoulos: AUTO-CI, single reference methods and gradients
   Taras Petrenko         : DFT Hessian,TD-DFT gradient, ASA, ECA, R-Raman, ABS, FL, XAS/XES, NRVS
   Peter Pinski           : DLPNO-MP2, DLPNO-MP2 Gradient
   Christoph Reimann      : Effective Core Potentials
   Marius Retegan         : Local ZFS, SOC
   Christoph Riplinger    : Optimizer, TS searches, QM/MM, DLPNO-CCSD(T), (RO)-DLPNO pert. Triples
   Tobias Risthaus        : Range-separated hybrids, TD-DFT gradient, RPA, STAB
   Michael Roemelt        : Original ROCIS implementation
   Masaaki Saitow         : Open-shell DLPNO-CCSD energy and density
   Barbara Sandhoefer     : DKH picture change effects
   Avijit Sen             : IP-ROCIS
   Kantharuban Sivalingam : CASSCF convergence, NEVPT2, FIC-MRCI
   Bernardo de Souza      : ESD, SOC TD-DFT
   Georgi Stoychev        : AutoAux, RI-MP2 NMR, DLPNO-MP2 response
   Willem Van den Heuvel  : Paramagnetic NMR
   Boris Wezisla          : Elementary symmetry handling
   Frank Wennmohs         : Technical directorship


 We gratefully acknowledge several colleagues who have allowed us to
 interface, adapt or use parts of their codes:
   Stefan Grimme, W. Hujo, H. Kruse, P. Pracht,  : VdW corrections, initial TS optimization,
                  C. Bannwarth, S. Ehlert          DFT functionals, gCP, sTDA/sTD-DF
   Ed Valeev, F. Pavosevic, A. Kumar             : LibInt (2-el integral package), F12 methods
   Garnet Chan, S. Sharma, J. Yang, R. Olivares  : DMRG
   Ulf Ekstrom                                   : XCFun DFT Library
   Mihaly Kallay                                 : mrcc  (arbitrary order and MRCC methods)
   Jiri Pittner, Ondrej Demel                    : Mk-CCSD
   Frank Weinhold                                : gennbo (NPA and NBO analysis)
   Christopher J. Cramer and Donald G. Truhlar   : smd solvation model
   Lars Goerigk                                  : TD-DFT with DH, B97 family of functionals
   V. Asgeirsson, H. Jonsson                     : NEB implementation
   FAccTs GmbH                                   : IRC, NEB, NEB-TS, DLPNO-Multilevel, CI-OPT
                                                   MM, QMMM, 2- and 3-layer-ONIOM, Crystal-QMMM,
                                                   LR-CPCM, SF, NACMEs, symmetry and pop. for TD-DFT,
                                                   nearIR, NL-DFT gradient (VV10), updates on ESD,
                                                   ML-optimized integration grids
   S Lehtola, MJT Oliveira, MAL Marques          : LibXC Library
   Liviu Ungur et al                             : ANISO software


 Your calculation uses the libint2 library for the computation of 2-el integrals
 For citations please refer to: http://libint.valeyev.net

 Your ORCA version has been built with support for libXC version: 5.1.0
 For citations please refer to: https://tddft.org/programs/libxc/

 This ORCA versions uses:
   CBLAS   interface :  Fast vector & matrix operations
   LAPACKE interface :  Fast linear algebra routines
   SCALAPACK package :  Parallel linear algebra routines
   Shared memory     :  Shared parallel matrices
   BLAS/LAPACK       :  OpenBLAS 0.3.15  USE64BITINT DYNAMIC_ARCH NO_AFFINITY Zen SINGLE_THREADED
        Core in use  :  Zen
   Copyright (c) 2011-2014, The OpenBLAS Project


Your calculation utilizes the atom-pairwise dispersion correction
based on tight binding partial charges (D4)
Cite in your paper:
E.Caldeweyher, C.Bannwarth, S.Grimme, J.Chem.Phys., (2017), 147, 034112.
E.Caldeweyher, S.Ehlert, A.Hansen, H.Neugebauer, S.Grimme, J.Chem.Phys., (2018), in progress.
   

================================================================================

----- Orbital basis set information -----
Your calculation utilizes the basis: pcSseg-1
   F. Jensen, J. Chem. Theory Comput. 11, 132 (2015).

----- AuxJ basis set information -----
Your calculation utilizes the auxiliary basis: def2/J
   F. Weigend, Phys. Chem. Chem. Phys. 8, 1057 (2006).

================================================================================
                                        WARNINGS
                       Please study these warnings very carefully!
================================================================================



WARNING: Found flag for RIJCOSX approximation but no HF exchange needed!
  ===> : RIJCOSX  will be disabled and Split-RI-J is turned on

INFO   : the flag for use of the SHARK integral package has been found!

================================================================================
                                       INPUT FILE
================================================================================
NAME = inpS
|  1> ! revTPSS
|  2> ! D4
|  3> ! pcSseg-1
|  4> ! def2/J RIJCOSX
|  5> ! DEFGRID2
|  6> ! scfconv7
|  7> ! smallprint printgap noloewdin
|  8> ! NOSOSCF
|  9> %MaxCore 4000
| 10> %output
| 11>        print[P_BondOrder_M] 1
| 12>        print[P_Mayer] 1
| 13>        print[P_basis] 2
| 14> end
| 15> %pal
| 16>     nprocs 4
| 17> end
| 18> ! CPCM(chloroform)
| 19> *xyz 0 1
| 20> C   -5.1081181600   0.2110846100  -0.6241322000
| 21> C   -6.5499186900  -0.2014836700  -0.8029376400
| 22> C   -7.4783272600   0.7536818000  -0.0416588000
| 23> H   -6.7051531300  -1.2298639300  -0.4573882600
| 24> H   -6.8216288600  -0.1568978600  -1.8680334800
| 25> C   -4.8391060300   1.6204286000  -0.9866842100
| 26> C   -5.7859175400   2.6181592700  -0.3569923800
| 27> C   -7.2532051600   2.1925983800  -0.5090548400
| 28> H   -5.6273862400   3.6134379600  -0.7857312000
| 29> H   -5.5489916000   2.6896902400   0.7155223300
| 30> H   -7.5486957000   2.2627028200  -1.5647873500
| 31> H   -7.9019193600   2.8681673400   0.0605273100
| 32> O   -7.2901436900   0.6198266600   1.3769593200
| 33> H   -8.5227013500   0.4697788700  -0.2209136900
| 34> C   -4.1919473900  -0.6420943900  -0.1075332800
| 35> C   -3.8688681200   1.9863615900  -1.8312713000
| 36> H   -3.2098726200   1.2522937300  -2.2872489100
| 37> H   -3.7195529500   3.0314371900  -2.0923902700
| 38> C   -2.8169373700  -0.3270592000   0.2038915500
| 39> H   -4.5436398800  -1.6479471200   0.1191962200
| 40> C   -1.8714804300  -1.1903548700   0.6321352200
| 41> H   -2.5324641600   0.7162510100   0.0865438000
| 42> C   -2.0583154200  -2.6723374800   0.8354186200
| 43> C   -1.0101429900  -3.4908973200   0.0564178100
| 44> H   -3.0631137000  -3.0058950000   0.5620729800
| 45> H   -1.9293968000  -2.8848164600   1.9087561200
| 46> C    0.4253504300  -3.0122179500   0.3129950300
| 47> H   -1.2350338700  -3.4322741600  -1.0160727100
| 48> H   -1.1003687900  -4.5478362000   0.3356577800
| 49> C    0.5824581300  -1.5079106000   0.0497896500
| 50> H    1.1121812800  -3.5996469500  -0.3053520600
| 51> H    0.6913721900  -3.2089823200   1.3625320400
| 52> C   -0.4677314100  -0.7667833400   0.9373838300
| 53> H   -0.2534084800  -1.1103299500   1.9663521700
| 54> C   -0.0504324900   0.6970562000   0.8539800300
| 55> H   -6.3382271300   0.5594736800   1.5411819600
| 56> C    1.4956137100   0.6273348100   0.8503971200
| 57> H   -0.4461462200   1.2891953700   1.6859124200
| 58> H   -0.4193791800   1.1532249300  -0.0715078000
| 59> C    1.8915209000  -0.8600413500   0.5869941600
| 60> H    1.9085184800   0.9765899800   1.8007084100
| 61> H    1.9208634900   1.2733758900   0.0731321600
| 62> H    2.0942205800  -1.3504038800   1.5521260400
| 63> C    3.1563089000  -0.9689586200  -0.2757760200
| 64> C    0.3662324700  -1.1810610500  -1.4342741000
| 65> H    0.5945256200  -0.1336119300  -1.6555166600
| 66> H   -0.6714025300  -1.3584768400  -1.7339023600
| 67> H    1.0091036000  -1.8015045100  -2.0676222300
| 68> H    2.9539738300  -0.4384127600  -1.2196936300
| 69> C    3.5538466700  -2.4120257300  -0.6361770300
| 70> C    4.3703195100  -0.3053268300   0.3408205300
| 71> C    4.5762141200  -0.0541204300   1.6331973300
| 72> H    5.1605815800  -0.0843340100  -0.3781307700
| 73> H    3.7831440100  -0.2900198800   2.3451316400
| 74> C    5.8040105900   0.5383568100   2.2834705200
| 75> C    5.3640069800   1.6370685000   3.2669188200
| 76> C    6.9039773600   1.0026431800   1.3061346000
| 77> H    6.2473904900  -0.2690616600   2.8917938000
| 78> H    7.0273913300   0.2032962200   0.5612014300
| 79> C    8.2531365600   1.1578388800   2.0152946800
| 80> C    6.5444361800   2.2949983500   0.5652448300
| 81> H    4.8295839900   2.4392520400   2.7468557600
| 82> H    6.2181698100   2.0768229300   3.7915106900
| 83> H    4.6867428800   1.2218330600   4.0210914100
| 84> H    8.5485363800   0.2289723200   2.5163718000
| 85> H    8.2202097800   1.9541164800   2.7677700800
| 86> H    9.0376768800   1.4188747900   1.2961530700
| 87> H    5.5424561200   2.2514506000   0.1266050200
| 88> H    7.2617642200   2.4842439500  -0.2410211700
| 89> H    6.5777391100   3.1550560600   1.2440122300
| 90> H    2.8316801400  -2.8829110900  -1.3081014700
| 91> H    3.6363772300  -3.0226496700   0.2707503200
| 92> H    4.5291335700  -2.4233861100  -1.1358782600
| 93> *
| 94> %eprnmr
| 95>  Nuclei = all H { shift }
| 96>  origin giao
| 97>  giao_2el giao_2el_same_as_scf
| 98>  giao_1el giao_1el_analytic
| 99> end
|100> 
|101>                          ****END OF INPUT****
================================================================================

                       ****************************
                       * Single Point Calculation *
                       ****************************

---------------------------------
CARTESIAN COORDINATES (ANGSTROEM)
---------------------------------
  C     -5.108118    0.211085   -0.624132
  C     -6.549919   -0.201484   -0.802938
  C     -7.478327    0.753682   -0.041659
  H     -6.705153   -1.229864   -0.457388
  H     -6.821629   -0.156898   -1.868033
  C     -4.839106    1.620429   -0.986684
  C     -5.785918    2.618159   -0.356992
  C     -7.253205    2.192598   -0.509055
  H     -5.627386    3.613438   -0.785731
  H     -5.548992    2.689690    0.715522
  H     -7.548696    2.262703   -1.564787
  H     -7.901919    2.868167    0.060527
  O     -7.290144    0.619827    1.376959
  H     -8.522701    0.469779   -0.220914
  C     -4.191947   -0.642094   -0.107533
  C     -3.868868    1.986362   -1.831271
  H     -3.209873    1.252294   -2.287249
  H     -3.719553    3.031437   -2.092390
  C     -2.816937   -0.327059    0.203892
  H     -4.543640   -1.647947    0.119196
  C     -1.871480   -1.190355    0.632135
  H     -2.532464    0.716251    0.086544
  C     -2.058315   -2.672337    0.835419
  C     -1.010143   -3.490897    0.056418
  H     -3.063114   -3.005895    0.562073
  H     -1.929397   -2.884816    1.908756
  C      0.425350   -3.012218    0.312995
  H     -1.235034   -3.432274   -1.016073
  H     -1.100369   -4.547836    0.335658
  C      0.582458   -1.507911    0.049790
  H      1.112181   -3.599647   -0.305352
  H      0.691372   -3.208982    1.362532
  C     -0.467731   -0.766783    0.937384
  H     -0.253408   -1.110330    1.966352
  C     -0.050432    0.697056    0.853980
  H     -6.338227    0.559474    1.541182
  C      1.495614    0.627335    0.850397
  H     -0.446146    1.289195    1.685912
  H     -0.419379    1.153225   -0.071508
  C      1.891521   -0.860041    0.586994
  H      1.908518    0.976590    1.800708
  H      1.920863    1.273376    0.073132
  H      2.094221   -1.350404    1.552126
  C      3.156309   -0.968959   -0.275776
  C      0.366232   -1.181061   -1.434274
  H      0.594526   -0.133612   -1.655517
  H     -0.671403   -1.358477   -1.733902
  H      1.009104   -1.801505   -2.067622
  H      2.953974   -0.438413   -1.219694
  C      3.553847   -2.412026   -0.636177
  C      4.370320   -0.305327    0.340821
  C      4.576214   -0.054120    1.633197
  H      5.160582   -0.084334   -0.378131
  H      3.783144   -0.290020    2.345132
  C      5.804011    0.538357    2.283471
  C      5.364007    1.637069    3.266919
  C      6.903977    1.002643    1.306135
  H      6.247390   -0.269062    2.891794
  H      7.027391    0.203296    0.561201
  C      8.253137    1.157839    2.015295
  C      6.544436    2.294998    0.565245
  H      4.829584    2.439252    2.746856
  H      6.218170    2.076823    3.791511
  H      4.686743    1.221833    4.021091
  H      8.548536    0.228972    2.516372
  H      8.220210    1.954116    2.767770
  H      9.037677    1.418875    1.296153
  H      5.542456    2.251451    0.126605
  H      7.261764    2.484244   -0.241021
  H      6.577739    3.155056    1.244012
  H      2.831680   -2.882911   -1.308101
  H      3.636377   -3.022650    0.270750
  H      4.529134   -2.423386   -1.135878

----------------------------
CARTESIAN COORDINATES (A.U.)
----------------------------
  NO LB      ZA    FRAG     MASS         X           Y           Z
   0 C     6.0000    0    12.011   -9.652944    0.398892   -1.179439
   1 C     6.0000    0    12.011  -12.377553   -0.380749   -1.517332
   2 C     6.0000    0    12.011  -14.131990    1.424252   -0.078724
   3 H     1.0000    0     1.008  -12.670903   -2.324106   -0.864339
   4 H     1.0000    0     1.008  -12.891010   -0.296494   -3.530072
   5 C     6.0000    0    12.011   -9.144585    3.062166   -1.864563
   6 C     6.0000    0    12.011  -10.933800    4.947604   -0.674618
   7 C     6.0000    0    12.011  -13.706571    4.143410   -0.961974
   8 H     1.0000    0     1.008  -10.634219    6.828408   -1.484817
   9 H     1.0000    0     1.008  -10.486074    5.082778    1.352141
  10 H     1.0000    0     1.008  -14.264968    4.275889   -2.957020
  11 H     1.0000    0     1.008  -14.932464    5.420051    0.114380
  12 O     8.0000    0    15.999  -13.776375    1.171303    2.602076
  13 H     1.0000    0     1.008  -16.105571    0.887753   -0.417466
  14 C     6.0000    0    12.011   -7.921633   -1.213383   -0.203208
  15 C     6.0000    0    12.011   -7.311101    3.753679   -3.460601
  16 H     1.0000    0     1.008   -6.065780    2.366492   -4.322274
  17 H     1.0000    0     1.008   -7.028936    5.728586   -3.954045
  18 C     6.0000    0    12.011   -5.323240   -0.618052    0.385299
  19 H     1.0000    0     1.008   -8.586235   -3.114169    0.225248
  20 C     6.0000    0    12.011   -3.536585   -2.249445    1.194562
  21 H     1.0000    0     1.008   -4.785664    1.353518    0.163544
  22 C     6.0000    0    12.011   -3.889652   -5.049986    1.578712
  23 C     6.0000    0    12.011   -1.908894   -6.596840    0.106614
  24 H     1.0000    0     1.008   -5.788446   -5.680318    1.062164
  25 H     1.0000    0     1.008   -3.646032   -5.451513    3.607026
  26 C     6.0000    0    12.011    0.803796   -5.692267    0.591475
  27 H     1.0000    0     1.008   -2.333876   -6.486058   -1.920099
  28 H     1.0000    0     1.008   -2.079396   -8.594165    0.634301
  29 C     6.0000    0    12.011    1.100686   -2.849538    0.094089
  30 H     1.0000    0     1.008    2.101718   -6.802347   -0.577032
  31 H     1.0000    0     1.008    1.306504   -6.064098    2.574812
  32 C     6.0000    0    12.011   -0.883884   -1.449011    1.771399
  33 H     1.0000    0     1.008   -0.478873   -2.098220    3.715867
  34 C     6.0000    0    12.011   -0.095304    1.317245    1.613788
  35 H     1.0000    0     1.008  -11.977513    1.057252    2.912412
  36 C     6.0000    0    12.011    2.826300    1.185491    1.607018
  37 H     1.0000    0     1.008   -0.843094    2.436226    3.185913
  38 H     1.0000    0     1.008   -0.792512    2.179279   -0.135130
  39 C     6.0000    0    12.011    3.574456   -1.625243    1.109258
  40 H     1.0000    0     1.008    3.606577    1.845488    3.402846
  41 H     1.0000    0     1.008    3.629906    2.406332    0.138200
  42 H     1.0000    0     1.008    3.957503   -2.551894    2.933093
  43 C     6.0000    0    12.011    5.964559   -1.831066   -0.521141
  44 C     6.0000    0    12.011    0.692079   -2.231882   -2.710385
  45 H     1.0000    0     1.008    1.123491   -0.252490   -3.128473
  46 H     1.0000    0     1.008   -1.268767   -2.567149   -3.276601
  47 H     1.0000    0     1.008    1.906929   -3.404350   -3.907240
  48 H     1.0000    0     1.008    5.582202   -0.828480   -2.304887
  49 C     6.0000    0    12.011    6.715797   -4.558068   -1.202200
  50 C     6.0000    0    12.011    8.258707   -0.576984    0.644057
  51 C     6.0000    0    12.011    8.647791   -0.102273    3.086296
  52 H     1.0000    0     1.008    9.752086   -0.159368   -0.714564
  53 H     1.0000    0     1.008    7.149106   -0.548058    4.431657
  54 C     6.0000    0    12.011   10.967990    1.017347    4.315134
  55 C     6.0000    0    12.011   10.136504    3.093611    6.173582
  56 C     6.0000    0    12.011   13.046626    1.894721    2.468237
  57 H     1.0000    0     1.008   11.805857   -0.508453    5.464698
  58 H     1.0000    0     1.008   13.279845    0.384174    1.060517
  59 C     6.0000    0    12.011   15.596168    2.187998    3.808355
  60 C     6.0000    0    12.011   12.367192    4.336918    1.068158
  61 H     1.0000    0     1.008    9.126591    4.609518    5.190805
  62 H     1.0000    0     1.008   11.750638    3.924627    7.164917
  63 H     1.0000    0     1.008    8.856661    2.308930    7.598762
  64 H     1.0000    0     1.008   16.154393    0.432695    4.755254
  65 H     1.0000    0     1.008   15.533945    3.692745    5.230327
  66 H     1.0000    0     1.008   17.078734    2.681285    2.449374
  67 H     1.0000    0     1.008   10.473724    4.254625    0.239249
  68 H     1.0000    0     1.008   13.722746    4.694541   -0.455464
  69 H     1.0000    0     1.008   12.430125    5.962192    2.350842
  70 H     1.0000    0     1.008    5.351100   -5.447912   -2.471954
  71 H     1.0000    0     1.008    6.871757   -5.711980    0.511644
  72 H     1.0000    0     1.008    8.558822   -4.579536   -2.146499

--------------------------------
INTERNAL COORDINATES (ANGSTROEM)
--------------------------------
 C      0   0   0     0.000000000000     0.00000000     0.00000000
 C      1   0   0     1.510288958890     0.00000000     0.00000000
 C      2   1   0     1.534219352036   110.41864869     0.00000000
 H      2   1   3     1.095932509116   110.74609389   237.90809756
 H      2   1   3     1.100110657761   109.83644088   118.75599676
 C      1   2   3     1.479885795658   113.87118957   305.89981573
 C      6   1   2     1.512755871281   114.35297972    50.05159582
 C      3   2   1     1.529581623293   110.18083834    56.79930001
 H      7   6   1     1.095230030461   110.23139863   188.67395574
 H      7   6   1     1.100699043281   108.28451841    72.01671530
 H      8   3   2     1.098544684757   108.30690794    64.56462073
 H      8   3   2     1.096196770017   109.50455253   181.52400453
 O      3   2   1     1.437291767497   110.64290748   292.76798959
 H      3   2   1     1.097018882752   109.50538525   177.28339199
 C      1   2   3     1.354310795198   121.25696144   122.56952905
 C      6   1   2     1.337383979180   123.17281906   232.01100789
 H     16   6   1     1.086759528565   121.33686153   358.99644562
 H     16   6   1     1.087502251125   120.94307591   178.39587973
 C     15   1   2     1.444605534663   126.06789777   185.08652949
 H     15   1   2     1.089418922243   116.27305065     3.06083989
 C     19  15   1     1.350022548008   126.54960294   184.88328945
 H     19  15   1     1.087746154178   115.77495008     5.55691959
 C     21  19  15     1.507482640214   125.77679520     1.76464888
 C     23  21  19     1.541281258127   111.69491421   125.65768568
 H     23  21  19     1.093434059076   112.33837264     1.93979686
 H     23  21  19     1.101735320497   107.84646506   244.28001535
 C     24  23  21     1.534798738581   112.70158833    50.72350443
 H     24  23  21     1.097382566968   109.03948990   288.55510915
 H     24  23  21     1.096920895911   109.09469096   172.65948740
 C     27  24  23     1.535220018344   111.87960134   306.39646853
 H     27  24  23     1.095062815670   108.96086767   182.79208454
 H     27  24  23     1.100459780935   109.25468604    66.30852279
 C     21  19  15     1.497698523096   122.69700980   180.32435049
 H     33  21  19     1.105773230047   106.46637925   126.18568734
 C     33  21  19     1.524441137386   121.13048660     3.54745692
 H     13   3   2     0.967861919328   107.58081924    42.63632289
 C     35  33  21     1.547621646916   103.31633607   195.14997412
 H     35  33  21     1.095139102712   112.25500810    73.37025127
 H     35  33  21     1.095782502949   110.71913466   313.67438120
 C     30  27  24     1.556267517640   115.77345678   166.40361321
 H     37  35  33     1.093417153131   111.15187904   252.06777804
 H     37  35  33     1.096515969095   111.25519485   133.75469355
 H     40  30  27     1.101372832828   105.78027829   322.32747141
 C     40  30  27     1.534901964343   118.00552827    83.28228936
 C     30  27  24     1.534936278300   111.10013512   294.65354644
 H     45  30  27     1.094630390443   111.70328386   186.92315889
 H     45  30  27     1.094504385536   111.32864328    66.97934727
 H     45  30  27     1.095154432315   110.84376087   306.94087711
 H     44  40  30     1.101543845965   107.22538383    62.54201116
 C     44  40  30     1.539599899503   114.25891176   303.70953491
 C     44  40  30     1.514734372543   113.61089146   180.00574517
 C     51  44  40     1.332567086118   126.95690520    23.39361692
 H     51  44  40     1.090982556022   113.64333663   199.27844445
 H     52  51  44     1.091539835114   118.65644654   356.38773118
 C     52  51  44     1.510420032076   128.10355969   176.47219473
 C     55  52  51     1.538811591238   108.83151762   133.32873932
 C     55  52  51     1.542943365453   115.14033581     5.03632709
 H     55  52  51     1.103887464559   106.07151228   247.62845619
 H     57  55  52     1.099596288744   106.88114178   314.66505489
 C     57  55  52     1.532065361304   111.41221777   198.38785685
 C     57  55  52     1.532439035274   113.12554846    73.61032470
 H     56  55  52     1.095249720595   111.03911805   299.10281047
 H     56  55  52     1.094611679514   111.71595285   178.07770228
 H     56  55  52     1.095391905798   110.25176978    58.29940312
 H     60  57  55     1.095961869834   111.29265349    56.00048443
 H     60  57  55     1.096066337731   111.40231945   295.33406580
 H     60  57  55     1.095813814135   110.53812762   176.00857777
 H     61  57  55     1.094653063799   112.02060171   310.87787653
 H     61  57  55     1.095645141844   110.35493514   190.33495331
 H     61  57  55     1.096144850364   110.80491042    71.41604107
 H     50  44  40     1.093041615120   112.15385048    67.49166266
 H     50  44  40     1.096444302103   110.35305316   306.32155199
 H     50  44  40     1.095908260216   110.25761732   187.44096892

---------------------------
INTERNAL COORDINATES (A.U.)
---------------------------
 C      0   0   0     0.000000000000     0.00000000     0.00000000
 C      1   0   0     2.854032515387     0.00000000     0.00000000
 C      2   1   0     2.899254404710   110.41864869     0.00000000
 H      2   1   3     2.071012303491   110.74609389   237.90809756
 H      2   1   3     2.078907860177   109.83644088   118.75599676
 C      1   2   3     2.796578863274   113.87118957   305.89981573
 C      6   1   2     2.858694304203   114.35297972    50.05159582
 C      3   2   1     2.890490367502   110.18083834    56.79930001
 H      7   6   1     2.069684811217   110.23139863   188.67395574
 H      7   6   1     2.080019747671   108.28451841    72.01671530
 H      8   3   2     2.075948600066   108.30690794    64.56462073
 H      8   3   2     2.071511684221   109.50455253   181.52400453
 O      3   2   1     2.716087815109   110.64290748   292.76798959
 H      3   2   1     2.073065252142   109.50538525   177.28339199
 C      1   2   3     2.559276503136   121.25696144   122.56952905
 C      6   1   2     2.527289456543   123.17281906   232.01100789
 H     16   6   1     2.053677882417   121.33686153   358.99644562
 H     16   6   1     2.055081424649   120.94307591   178.39587973
 C     15   1   2     2.729908832060   126.06789777   185.08652949
 H     15   1   2     2.058703408151   116.27305065     3.06083989
 C     19  15   1     2.551172890354   126.54960294   184.88328945
 H     19  15   1     2.055542334622   115.77495008     5.55691959
 C     21  19  15     2.848729341645   125.77679520     1.76464888
 C     23  21  19     2.912599473206   111.69491421   125.65768568
 H     23  21  19     2.066290917155   112.33837264     1.93979686
 H     23  21  19     2.081978027807   107.84646506   244.28001535
 C     24  23  21     2.900349286606   112.70158833    50.72350443
 H     24  23  21     2.073752515709   109.03948990   288.55510915
 H     24  23  21     2.072880083848   109.09469096   172.65948740
 C     27  24  23     2.901145389984   111.87960134   306.39646853
 H     27  24  23     2.069368821058   108.96086767   182.79208454
 H     27  24  23     2.079567607361   109.25468604    66.30852279
 C     21  19  15     2.830240039830   122.69700980   180.32435049
 H     33  21  19     2.089608571010   106.46637925   126.18568734
 C     33  21  19     2.880776256943   121.13048660     3.54745692
 H     13   3   2     1.828993962982   107.58081924    42.63632289
 C     35  33  21     2.924581071599   103.31633607   195.14997412
 H     35  33  21     2.069512982675   112.25500810    73.37025127
 H     35  33  21     2.070728832917   110.71913466   313.67438120
 C     30  27  24     2.940919399456   115.77345678   166.40361321
 H     37  35  33     2.066258969550   111.15187904   252.06777804
 H     37  35  33     2.072114883062   111.25519485   133.75469355
 H     40  30  27     2.081293025387   105.78027829   322.32747141
 C     40  30  27     2.900544355027   118.00552827    83.28228936
 C     30  27  24     2.900609199007   111.10013512   294.65354644
 H     45  30  27     2.068551655804   111.70328386   186.92315889
 H     45  30  27     2.068313541038   111.32864328    66.97934727
 H     45  30  27     2.069541951425   110.84376087   306.94087711
 H     44  40  30     2.081616193380   107.22538383    62.54201116
 C     44  40  30     2.909422165873   114.25891176   303.70953491
 C     44  40  30     2.862433129743   113.61089146   180.00574517
 C     51  44  40     2.518186847841   126.95690520    23.39361692
 H     51  44  40     2.061658247767   113.64333663   199.27844445
 H     52  51  44     2.062711352631   118.65644654   356.38773118
 C     52  51  44     2.854280207811   128.10355969   176.47219473
 C     55  52  51     2.907932479143   108.83151762   133.32873932
 C     55  52  51     2.915740400856   115.14033581     5.03632709
 H     55  52  51     2.086044990686   106.07151228   247.62845619
 H     57  55  52     2.077935843602   106.88114178   314.66505489
 C     57  55  52     2.895183952132   111.41221777   198.38785685
 C     57  55  52     2.895890093599   113.12554846    73.61032470
 H     56  55  52     2.069722020179   111.03911805   299.10281047
 H     56  55  52     2.068516297273   111.71595285   178.07770228
 H     56  55  52     2.069990711273   110.25176978    58.29940312
 H     60  57  55     2.071067787206   111.29265349    56.00048443
 H     60  57  55     2.071265202923   111.40231945   295.33406580
 H     60  57  55     2.070788002482   110.53812762   176.00857777
 H     61  57  55     2.068594502238   112.02060171   310.87787653
 H     61  57  55     2.070469258046   110.35493514   190.33495331
 H     61  57  55     2.071413570296   110.80491042    71.41604107
 H     50  44  40     2.065549305556   112.15385048    67.49166266
 H     50  44  40     2.071979452072   110.35305316   306.32155199
 H     50  44  40     2.070966479710   110.25761732   187.44096892

---------------------
BASIS SET INFORMATION
---------------------
There are 3 groups of distinct atoms

 Group   1 Type C   : 8s5p1d contracted to 3s3p1d pattern {521/311/1}
 Group   2 Type H   : 4s2p contracted to 2s1p pattern {31/2}
 Group   3 Type O   : 8s5p1d contracted to 3s3p1d pattern {521/311/1}

Atom   0C    basis set group =>   1
Atom   1C    basis set group =>   1
Atom   2C    basis set group =>   1
Atom   3H    basis set group =>   2
Atom   4H    basis set group =>   2
Atom   5C    basis set group =>   1
Atom   6C    basis set group =>   1
Atom   7C    basis set group =>   1
Atom   8H    basis set group =>   2
Atom   9H    basis set group =>   2
Atom  10H    basis set group =>   2
Atom  11H    basis set group =>   2
Atom  12O    basis set group =>   3
Atom  13H    basis set group =>   2
Atom  14C    basis set group =>   1
Atom  15C    basis set group =>   1
Atom  16H    basis set group =>   2
Atom  17H    basis set group =>   2
Atom  18C    basis set group =>   1
Atom  19H    basis set group =>   2
Atom  20C    basis set group =>   1
Atom  21H    basis set group =>   2
Atom  22C    basis set group =>   1
Atom  23C    basis set group =>   1
Atom  24H    basis set group =>   2
Atom  25H    basis set group =>   2
Atom  26C    basis set group =>   1
Atom  27H    basis set group =>   2
Atom  28H    basis set group =>   2
Atom  29C    basis set group =>   1
Atom  30H    basis set group =>   2
Atom  31H    basis set group =>   2
Atom  32C    basis set group =>   1
Atom  33H    basis set group =>   2
Atom  34C    basis set group =>   1
Atom  35H    basis set group =>   2
Atom  36C    basis set group =>   1
Atom  37H    basis set group =>   2
Atom  38H    basis set group =>   2
Atom  39C    basis set group =>   1
Atom  40H    basis set group =>   2
Atom  41H    basis set group =>   2
Atom  42H    basis set group =>   2
Atom  43C    basis set group =>   1
Atom  44C    basis set group =>   1
Atom  45H    basis set group =>   2
Atom  46H    basis set group =>   2
Atom  47H    basis set group =>   2
Atom  48H    basis set group =>   2
Atom  49C    basis set group =>   1
Atom  50C    basis set group =>   1
Atom  51C    basis set group =>   1
Atom  52H    basis set group =>   2
Atom  53H    basis set group =>   2
Atom  54C    basis set group =>   1
Atom  55C    basis set group =>   1
Atom  56C    basis set group =>   1
Atom  57H    basis set group =>   2
Atom  58H    basis set group =>   2
Atom  59C    basis set group =>   1
Atom  60C    basis set group =>   1
Atom  61H    basis set group =>   2
Atom  62H    basis set group =>   2
Atom  63H    basis set group =>   2
Atom  64H    basis set group =>   2
Atom  65H    basis set group =>   2
Atom  66H    basis set group =>   2
Atom  67H    basis set group =>   2
Atom  68H    basis set group =>   2
Atom  69H    basis set group =>   2
Atom  70H    basis set group =>   2
Atom  71H    basis set group =>   2
Atom  72H    basis set group =>   2

-------------------------
BASIS SET IN INPUT FORMAT
-------------------------

 # Basis set for element : H 
 NewGTO H 
 S 3 
   1      12.2518000000      0.0372173893
   2       1.8687100000      0.2538082070
   3       0.4182080000      0.7973867639
 S 1 
   1       0.1061000000      1.0000000000
 P 2 
   1       9.0000000000      0.0402678705
   2       1.0000000000      0.9880231245
  end;

 # Basis set for element : C 
 NewGTO C 
 S 5 
   1    1243.2000000000      0.0056300977
   2     187.1450000000      0.0419506039
   3      42.5126000000      0.1846643605
   4      11.7393000000      0.4665574214
   5       3.5054800000      0.4482347783
 S 2 
   1       5.3908900000     -0.1481148174
   2       0.4933410000      1.0519817143
 S 1 
   1       0.1497410000      1.0000000000
 P 3 
   1      59.6736000000      0.0113906672
   2       9.1805600000      0.1672414929
   3       1.9365800000      0.9041087436
 P 1 
   1       0.5262960000      1.0000000000
 P 1 
   1       0.1363190000      1.0000000000
 D 1 
   1       0.8000000000      1.0000000000
  end;

 # Basis set for element : O 
 NewGTO O 
 S 5 
   1    2288.6400000000      0.0054511382
   2     344.4160000000      0.0407189228
   3      78.2538000000      0.1813694209
   4      21.7195000000      0.4655368202
   5       6.5590700000      0.4512113212
 S 2 
   1      10.4656000000     -0.1502112012
   2       0.9643510000      1.0528679834
 S 1 
   1       0.2851270000      1.0000000000
 P 3 
   1     110.8840000000      0.0113058003
   2      17.0590000000      0.1699226452
   3       3.6899900000      0.9008060328
 P 1 
   1       0.9929960000      1.0000000000
 P 1 
   1       0.2449240000      1.0000000000
 D 1 
   1       1.0000000000      1.0000000000
  end;

---------------------------------
AUXILIARY/J BASIS SET INFORMATION
---------------------------------
There are 3 groups of distinct atoms

 Group   1 Type C   : 12s5p4d2f1g contracted to 6s4p3d1f1g pattern {711111/2111/211/2/1}
 Group   2 Type H   : 5s2p1d contracted to 3s1p1d pattern {311/2/1}
 Group   3 Type O   : 12s5p4d2f1g contracted to 6s4p3d1f1g pattern {711111/2111/211/2/1}

Atom   0C    basis set group =>   1
Atom   1C    basis set group =>   1
Atom   2C    basis set group =>   1
Atom   3H    basis set group =>   2
Atom   4H    basis set group =>   2
Atom   5C    basis set group =>   1
Atom   6C    basis set group =>   1
Atom   7C    basis set group =>   1
Atom   8H    basis set group =>   2
Atom   9H    basis set group =>   2
Atom  10H    basis set group =>   2
Atom  11H    basis set group =>   2
Atom  12O    basis set group =>   3
Atom  13H    basis set group =>   2
Atom  14C    basis set group =>   1
Atom  15C    basis set group =>   1
Atom  16H    basis set group =>   2
Atom  17H    basis set group =>   2
Atom  18C    basis set group =>   1
Atom  19H    basis set group =>   2
Atom  20C    basis set group =>   1
Atom  21H    basis set group =>   2
Atom  22C    basis set group =>   1
Atom  23C    basis set group =>   1
Atom  24H    basis set group =>   2
Atom  25H    basis set group =>   2
Atom  26C    basis set group =>   1
Atom  27H    basis set group =>   2
Atom  28H    basis set group =>   2
Atom  29C    basis set group =>   1
Atom  30H    basis set group =>   2
Atom  31H    basis set group =>   2
Atom  32C    basis set group =>   1
Atom  33H    basis set group =>   2
Atom  34C    basis set group =>   1
Atom  35H    basis set group =>   2
Atom  36C    basis set group =>   1
Atom  37H    basis set group =>   2
Atom  38H    basis set group =>   2
Atom  39C    basis set group =>   1
Atom  40H    basis set group =>   2
Atom  41H    basis set group =>   2
Atom  42H    basis set group =>   2
Atom  43C    basis set group =>   1
Atom  44C    basis set group =>   1
Atom  45H    basis set group =>   2
Atom  46H    basis set group =>   2
Atom  47H    basis set group =>   2
Atom  48H    basis set group =>   2
Atom  49C    basis set group =>   1
Atom  50C    basis set group =>   1
Atom  51C    basis set group =>   1
Atom  52H    basis set group =>   2
Atom  53H    basis set group =>   2
Atom  54C    basis set group =>   1
Atom  55C    basis set group =>   1
Atom  56C    basis set group =>   1
Atom  57H    basis set group =>   2
Atom  58H    basis set group =>   2
Atom  59C    basis set group =>   1
Atom  60C    basis set group =>   1
Atom  61H    basis set group =>   2
Atom  62H    basis set group =>   2
Atom  63H    basis set group =>   2
Atom  64H    basis set group =>   2
Atom  65H    basis set group =>   2
Atom  66H    basis set group =>   2
Atom  67H    basis set group =>   2
Atom  68H    basis set group =>   2
Atom  69H    basis set group =>   2
Atom  70H    basis set group =>   2
Atom  71H    basis set group =>   2
Atom  72H    basis set group =>   2

-------------------------------------
AUXILIARY/J BASIS SET IN INPUT FORMAT
-------------------------------------

 # Auxiliary/J basis set for element : H 
 NewAuxJGTO H 
 S 3 
   1      15.6752927000      0.1007184237
   2       3.6063578000      0.3404257499
   3       1.2080016000      0.6491996172
 S 1 
   1       0.4726794000      1.0000000000
 S 1 
   1       0.2018100000      1.0000000000
 P 2 
   1       2.0281365000      0.5596620919
   2       0.5358730000      0.5596620919
 D 1 
   1       2.2165124000      1.0000000000
  end;

 # Auxiliary/J basis set for element : C 
 NewAuxJGTO C 
 S 7 
   1    1861.0916331000      0.0134602335
   2     642.9939764000      0.0299160374
   3     235.1105725000      0.1008649584
   4      90.7028894000      0.2370970548
   5      36.7794552000      0.3924037254
   6      15.6046273000      0.3195862154
   7       6.8907294000      0.0530104441
 S 1 
   1       3.1478850000     -1.0000000000
 S 1 
   1       1.4777287000      1.0000000000
 S 1 
   1       0.7076466000      1.0000000000
 S 1 
   1       0.3430122000      1.0000000000
 S 1 
   1       0.1669453000      1.0000000000
 P 2 
   1      13.5472892000     -0.6769313712
   2       5.4669419000     -0.3779500978
 P 1 
   1       2.1751721000      1.0000000000
 P 1 
   1       0.8582194000      1.0000000000
 P 1 
   1       0.3376720000      1.0000000000
 D 2 
   1       5.9287253000     -0.3533329857
   2       1.9809209000     -0.7456525731
 D 1 
   1       0.8055417000     -1.0000000000
 D 1 
   1       0.3531244000     -1.0000000000
 F 2 
   1       1.6755626000      0.6311076882
   2       0.5997536000      0.4968166032
 G 1 
   1       1.0024600000     -1.0000000000
  end;

 # Auxiliary/J basis set for element : O 
 NewAuxJGTO O 
 S 7 
   1    2876.8216605000      0.0168151159
   2    1004.7443032000      0.0340137548
   3     369.7579954000      0.1194951309
   4     142.9442404000      0.2664627624
   5      57.8366425000      0.4202764046
   6      24.3864983000      0.2765077335
   7      10.6622662000      0.0057008815
 S 1 
   1       4.8070437000     -1.0000000000
 S 1 
   1       2.2210770000      1.0000000000
 S 1 
   1       1.0447795000      1.0000000000
 S 1 
   1       0.4968425000      1.0000000000
 S 1 
   1       0.2371384000      1.0000000000
 P 2 
   1      64.2613382000     -0.2731534179
   2      16.3006076000     -0.8168011598
 P 1 
   1       4.3550542000      1.0000000000
 P 1 
   1       1.2019554000      1.0000000000
 P 1 
   1       0.3354196000      1.0000000000
 D 2 
   1       9.2146611000     -0.4661230638
   2       2.8435251000     -0.6600908911
 D 1 
   1       0.9955759000     -1.0000000000
 D 1 
   1       0.3649441000     -1.0000000000
 F 2 
   1       2.6420115000      0.5931563945
   2       0.7345613000      0.5931563945
 G 1 
   1       1.3931000000     -1.0000000000
  end;



           ************************************************************
           *        Program running with 4 parallel MPI-processes     *
           *              working on a common directory               *
           ************************************************************
------------------------------------------------------------------------------
                           ORCA GTO INTEGRAL CALCULATION
                           -- RI-GTO INTEGRALS CHOSEN --
------------------------------------------------------------------------------
------------------------------------------------------------------------------
                   ___                                                        
                  /   \      - P O W E R E D   B Y -                         
                 /     \                                                     
                 |  |  |   _    _      __       _____    __    __             
                 |  |  |  | |  | |    /  \     |  _  \  |  |  /  |          
                  \  \/   | |  | |   /    \    | | | |  |  | /  /          
                 / \  \   | |__| |  /  /\  \   | |_| |  |  |/  /          
                |  |  |   |  __  | /  /__\  \  |    /   |      \           
                |  |  |   | |  | | |   __   |  |    \   |  |\   \          
                \     /   | |  | | |  |  |  |  | |\  \  |  | \   \       
                 \___/    |_|  |_| |__|  |__|  |_| \__\ |__|  \__/        
                                                                              
                      - O R C A' S   B I G   F R I E N D -                    
                                      &                                       
                       - I N T E G R A L  F E E D E R -                       
                                                                              
 v1 FN, 2020, v2 2021                                                         
------------------------------------------------------------------------------


Reading SHARK input file inpS.SHARKINP.tmp ... ok
----------------------
SHARK INTEGRAL PACKAGE
----------------------

Number of atoms                             ...     73
Number of basis functions                   ...    713
Number of shells                            ...    335
Maximum angular momentum                    ...      2
Integral batch strategy                     ... SHARK/LIBINT Hybrid
RI-J (if used) integral strategy            ... SPLIT-RIJ (Revised 2003 algorithm where possible)
Printlevel                                  ...      1
Contraction scheme used                     ... SEGMENTED contraction
Coulomb Range Separation                    ... NOT USED
Exchange Range Separation                   ... NOT USED
Finite Nucleus Model                        ... NOT USED
Auxiliary Coulomb fitting basis             ... AVAILABLE
   # of basis functions in Aux-J            ...   1905
   # of shells in Aux-J                     ...    655
   Maximum angular momentum in Aux-J        ...      4
Auxiliary J/K fitting basis                 ... NOT available
Auxiliary Correlation fitting basis         ... NOT available
Auxiliary 'external' fitting basis          ... NOT available
Integral threshold                          ...     3.000000e-11
Primitive cut-off                           ...     1.000000e-12
Primitive pair pre-selection threshold      ...     1.000000e-12

Calculating pre-screening integrals         ... done (  0.0 sec) Dimension = 335
Organizing shell pair data                  ... done (  0.2 sec)
Shell pair information
Total number of shell pairs                 ...     56280
Shell pairs after pre-screening             ...     31755
Total number of primitive shell pairs       ...    225367
Primitive shell pairs kept                  ...     74847
          la=0 lb=0:   9701 shell pairs
          la=1 lb=0:  13047 shell pairs
          la=1 lb=1:   4269 shell pairs
          la=2 lb=0:   2773 shell pairs
          la=2 lb=1:   1768 shell pairs
          la=2 lb=2:    197 shell pairs

Calculating one electron integrals          ... done (  0.1 sec)
Calculating RI/J V-Matrix + Cholesky decomp.... done (  0.1 sec)
Calculating Nuclear repulsion               ... done (  0.0 sec) ENN=   2795.014838453426 Eh

SHARK setup successfully completed in   0.6 seconds

Maximum memory used throughout the entire GTOINT-calculation: 61.3 MB


           ************************************************************
           *        Program running with 4 parallel MPI-processes     *
           *              working on a common directory               *
           ************************************************************
-------------------------------------------------------------------------------
                                 ORCA SCF
-------------------------------------------------------------------------------

------------
SCF SETTINGS
------------
Hamiltonian:
 Density Functional     Method          .... DFT(GTOs)
 Exchange Functional    Exchange        .... revTPSS
 Correlation Functional Correlation     .... revTPSS
 LDA part of GGA corr.  LDAOpt          .... PW91-LDA
 Gradients option       PostSCFGGA      .... off
   Density functional embedding theory  .... OFF
 RI-approximation to the Coulomb term is turned on
   Number of AuxJ basis functions       .... 1905


General Settings:
 Integral files         IntName         .... inpS
 Hartree-Fock type      HFTyp           .... RHF
 Total Charge           Charge          ....    0
 Multiplicity           Mult            ....    1
 Number of Electrons    NEL             ....  220
 Basis Dimension        Dim             ....  713
 Nuclear Repulsion      ENuc            ....   2795.0148384534 Eh

Convergence Acceleration:
 DIIS                   CNVDIIS         .... on
   Start iteration      DIISMaxIt       ....    12
   Startup error        DIISStart       ....  0.200000
   # of expansion vecs  DIISMaxEq       ....     5
   Bias factor          DIISBfac        ....   1.050
   Max. coefficient     DIISMaxC        ....  10.000
 Trust-Rad. Augm. Hess. CNVTRAH         .... auto
   Auto Start mean grad. ratio tolernc. ....  1.125000
   Auto Start start iteration           ....    20
   Auto Start num. interpolation iter.  ....    10
   Max. Number of Micro iterations      ....    16
   Max. Number of Macro iterations      .... Maxiter - #DIIS iter
   Number of Davidson start vectors     ....     2
   Converg. threshold I  (grad. norm)   ....   1.000e-04
   Converg. threshold II (energy diff.) ....   1.000e-07
   Grad. Scal. Fac. for Micro threshold ....   0.100
   Minimum threshold for Micro iter.    ....   0.010
   NR start threshold (gradient norm)   ....   0.001
   Initial trust radius                 ....   0.400
   Minimum AH scaling param. (alpha)    ....   1.000
   Maximum AH scaling param. (alpha)    .... 1000.000
   Orbital update algorithm             .... Taylor
   White noise on init. David. guess    .... on
   Maximum white noise                  ....   0.010
   Quad. conv. algorithm                .... NR
 SOSCF                  CNVSOSCF        .... off
 Level Shifting         CNVShift        .... on
   Level shift para.    LevelShift      ....    0.2500
   Turn off err/grad.   ShiftErr        ....    0.0010
 Zerner damping         CNVZerner       .... off
 Static damping         CNVDamp         .... on
   Fraction old density DampFac         ....    0.7000
   Max. Damping (<1)    DampMax         ....    0.9800
   Min. Damping (>=0)   DampMin         ....    0.0000
   Turn off err/grad.   DampErr         ....    0.1000
 Fernandez-Rico         CNVRico         .... off

SCF Procedure:
 Maximum # iterations   MaxIter         ....   125
 SCF integral mode      SCFMode         .... Direct
   Integral package                     .... SHARK and LIBINT hybrid scheme
 Reset frequency        DirectResetFreq ....    20
 Integral Threshold     Thresh          ....  3.000e-11 Eh
 Primitive CutOff       TCut            ....  1.000e-12 Eh

Convergence Tolerance:
 Convergence Check Mode ConvCheckMode   .... Total+1el-Energy
 Convergence forced     ConvForced      .... 0
 Energy Change          TolE            ....  1.000e-07 Eh
 1-El. energy change                    ....  1.000e-04 Eh
 DIIS Error             TolErr          ....  1.000e-07


Diagonalization of the overlap matrix:
Smallest eigenvalue                        ... 5.024e-04
Time for diagonalization                   ...    0.071 sec
Threshold for overlap eigenvalues          ... 1.000e-08
Number of eigenvalues below threshold      ... 0
Time for construction of square roots      ...    0.052 sec
Total time needed                          ...    0.126 sec

Time for model grid setup =    0.773 sec

------------------------------
INITIAL GUESS: MODEL POTENTIAL
------------------------------
Loading Hartree-Fock densities                     ... done
Calculating cut-offs                               ... done
Initializing the effective Hamiltonian             ... done
Setting up the integral package (SHARK)            ... done
Starting the Coulomb interaction                   ... done (   0.7 sec)
Reading the grid                                   ... done
Mapping shells                                     ... done
Starting the XC term evaluation                    ... done (   0.3 sec)
  promolecular density results
     # of electrons  =    219.974633718
     EX              =   -164.432104614
     EC              =     -7.329875780
     EX+EC           =   -171.761980394
Transforming the Hamiltonian                       ... done (   0.0 sec)
Diagonalizing the Hamiltonian                      ... done (   0.1 sec)
Back transforming the eigenvectors                 ... done (   0.0 sec)
Now organizing SCF variables                       ... done
                      ------------------
                      INITIAL GUESS DONE (   2.0 sec)
                      ------------------
-------------------
DFT GRID GENERATION
-------------------

General Integration Accuracy     IntAcc      ... 4.388
Radial Grid Type                 RadialGrid  ... OptM3 with GC (2021)
Angular Grid (max. ang.)         AngularGrid ... 4 (Lebedev-302)
Angular grid pruning method      GridPruning ... 4 (adaptive)
Weight generation scheme         WeightScheme... Becke
Basis function cutoff            BFCut       ... 1.0000e-11
Integration weight cutoff        WCut        ... 1.0000e-14
Angular grids for H and He will be reduced by one unit
Partially contracted basis set               ... off
Rotationally invariant grid construction     ... off

Total number of grid points                  ...   309743
Total number of batches                      ...     4876
Average number of points per batch           ...       63
Average number of grid points per atom       ...     4243
Time for grid setup =    3.006 sec


--------------------
CPCM SOLVATION MODEL
--------------------
CPCM parameters:
  Epsilon                                         ...       4.9000
  Refrac                                          ...       1.4500
  Rsolv                                           ...       1.3000
  Surface type                                    ... GAUSSIAN VDW
  Epsilon function type                           ...         CPCM
Radii:
 Radius for C  used is    3.8550 Bohr (=   2.0400 Ang.)
 Radius for H  used is    2.4944 Bohr (=   1.3200 Ang.)
 Radius for O  used is    3.4469 Bohr (=   1.8240 Ang.)
Calculating surface                               ...        done! (  0.0s)
GEPOL surface points                              ...         3609
GEPOL Volume                                      ...    3597.3586
GEPOL Surface-area                                ...    1774.6813
Calculating surface distance matrix               ...        done! (  0.1s)
Performing Cholesky decomposition & store         ...        done! (  0.5s)
Overall time for CPCM initialization              ...                 0.6s
--------------
SCF ITERATIONS
--------------
ITER       Energy         Delta-E        Max-DP      RMS-DP      [F,P]     Damp
               ***  Starting incremental Fock matrix formation  ***

  HOMO= 109 E= -1.939 eV LUMO=  7.771 eV gap=   9.711 eV
  0  -1167.5209622920   0.000000000000 0.05569093  0.00083499  0.2635822 0.7000

  HOMO= 109 E= -3.444 eV LUMO=  6.672 eV gap=  10.116 eV
  1  -1167.8943675992  -0.373405307167 0.02896376  0.00061697  0.1017593 0.7000
                               ***Turning on DIIS***

  HOMO= 109 E= -4.414 eV LUMO=  5.790 eV gap=  10.204 eV
  2  -1168.0402944373  -0.145926838118 0.04809396  0.00101512  0.0320391 0.0000

  HOMO= 109 E= -5.034 eV LUMO=  5.207 eV gap=  10.241 eV
  3  -1168.2378503878  -0.197555950448 0.02330442  0.00047746  0.0547370 0.0000

  HOMO= 109 E= -5.060 eV LUMO=  5.182 eV gap=  10.242 eV
  4  -1168.3045819977  -0.066731609947 0.00755887  0.00015220  0.0104338 0.0000

  HOMO= 109 E= -5.014 eV LUMO=  5.235 eV gap=  10.249 eV
  5  -1168.3076222392  -0.003040241451 0.00342401  0.00005697  0.0101804 0.0000

  HOMO= 109 E= -4.995 eV LUMO=  5.251 eV gap=  10.246 eV
  6  -1168.3078868696  -0.000264630409 0.00128562  0.00001917  0.0031181 0.0000

  HOMO= 109 E= -4.996 eV LUMO= -1.553 eV gap=   3.443 eV
  7  -1168.3079072049  -0.000020335294 0.00070967  0.00001161  0.0004944 0.0000

  HOMO= 109 E= -4.994 eV LUMO= -1.551 eV gap=   3.443 eV
  8  -1168.3079101688  -0.000002963950 0.00026372  0.00000292  0.0003696 0.0000

  HOMO= 109 E= -4.992 eV LUMO= -1.549 eV gap=   3.443 eV
  9  -1168.3079108121  -0.000000643248 0.00015848  0.00000152  0.0002411 0.0000

  HOMO= 109 E= -4.993 eV LUMO= -1.550 eV gap=   3.443 eV
 10  -1168.3079110580  -0.000000245932 0.00006450  0.00000069  0.0000970 0.0000

  HOMO= 109 E= -4.993 eV LUMO= -1.550 eV gap=   3.443 eV
 11  -1168.3079110815  -0.000000023505 0.00002477  0.00000025  0.0000251 0.0000

  HOMO= 109 E= -4.993 eV LUMO= -1.550 eV gap=   3.443 eV
 12  -1168.3079110654   0.000000016097 0.00001200  0.00000012  0.0000181 0.0000

  HOMO= 109 E= -4.993 eV LUMO= -1.550 eV gap=   3.443 eV
 13  -1168.3079110943  -0.000000028850 0.00000599  0.00000005  0.0000075 0.0000
                 **** Energy Check signals convergence ****

               *****************************************************
               *                     SUCCESS                       *
               *           SCF CONVERGED AFTER  14 CYCLES          *
               *****************************************************


----------------
TOTAL SCF ENERGY
----------------

Total Energy       :        -1168.30791109 Eh          -31791.27450 eV

Components:
Nuclear Repulsion  :         2795.01483845 Eh           76056.22038 eV
Electronic Energy  :        -3963.32274955 Eh         -107847.49488 eV
One Electron Energy:        -7136.19213557 Eh         -194185.66022 eV
Two Electron Energy:         3172.86938603 Eh           86338.16534 eV
CPCM Dielectric    :           -0.00913926 Eh              -0.24869 eV

Virial components:
Potential Energy   :        -2330.40084432 Eh          -63413.43085 eV
Kinetic Energy     :         1162.09293323 Eh           31622.15635 eV
Virial Ratio       :            2.00534809


DFT components:
N(Alpha)           :      109.999790582650 electrons
N(Beta)            :      109.999790582650 electrons
N(Total)           :      219.999581165299 electrons
E(X)               :     -169.583100954722 Eh       
E(C)               :       -7.445374975339 Eh       
E(XC)              :     -177.028475930061 Eh       
DFET-embed. en.    :        0.000000000000 Eh       
CPCM Solvation Model Properties:
Surface-charge          :           -0.04522960
Charge-correction       :           -0.00007230 Eh              -0.00197 eV
Free-energy (cav+disp)  :  This term is not implemented in the current solvation scheme

---------------
SCF CONVERGENCE
---------------

  Last Energy change         ...   -6.1277e-10  Tolerance :   1.0000e-07
  Last MAX-Density change    ...    2.9340e-06  Tolerance :   1.0000e-05
  Last RMS-Density change    ...    2.7731e-08  Tolerance :   1.0000e-06
  Last DIIS Error            ...    3.5040e-06  Tolerance :   1.0000e-07

             **** THE GBW FILE WAS UPDATED (inpS.gbw) ****
             **** DENSITY inpS.scfp WAS UPDATED ****
             **** ENERGY FILE WAS UPDATED (inpS.en.tmp) ****
             **** THE GBW FILE WAS UPDATED (inpS.gbw) ****
             **** DENSITY inpS.scfp WAS UPDATED ****
----------------
ORBITAL ENERGIES
----------------

  NO   OCC          E(Eh)            E(eV) 
   0   2.0000     -18.903726      -514.3965 
   1   2.0000     -10.057224      -273.6710 
   2   2.0000     -10.016410      -272.5604 
   3   2.0000     -10.014693      -272.5136 
   4   2.0000     -10.012252      -272.4472 
   5   2.0000     -10.012120      -272.4436 
   6   2.0000     -10.011997      -272.4403 
   7   2.0000     -10.011693      -272.4320 
   8   2.0000     -10.010995      -272.4130 
   9   2.0000     -10.009765      -272.3796 
  10   2.0000     -10.009667      -272.3769 
  11   2.0000     -10.007615      -272.3210 
  12   2.0000     -10.006506      -272.2909 
  13   2.0000     -10.006324      -272.2859 
  14   2.0000     -10.006090      -272.2795 
  15   2.0000     -10.005048      -272.2512 
  16   2.0000     -10.004984      -272.2495 
  17   2.0000     -10.000944      -272.1395 
  18   2.0000     -10.000553      -272.1289 
  19   2.0000      -9.999449      -272.0989 
  20   2.0000      -9.999134      -272.0903 
  21   2.0000      -9.998556      -272.0745 
  22   2.0000      -9.998474      -272.0723 
  23   2.0000      -9.998002      -272.0595 
  24   2.0000      -9.997856      -272.0555 
  25   2.0000      -9.997286      -272.0400 
  26   2.0000      -9.995794      -271.9994 
  27   2.0000      -9.995141      -271.9816 
  28   2.0000      -9.994165      -271.9551 
  29   2.0000      -0.954410       -25.9708 
  30   2.0000      -0.807734       -21.9795 
  31   2.0000      -0.789509       -21.4836 
  32   2.0000      -0.770660       -20.9707 
  33   2.0000      -0.756565       -20.5872 
  34   2.0000      -0.734063       -19.9749 
  35   2.0000      -0.727684       -19.8013 
  36   2.0000      -0.708807       -19.2876 
  37   2.0000      -0.708604       -19.2821 
  38   2.0000      -0.693229       -18.8637 
  39   2.0000      -0.676123       -18.3982 
  40   2.0000      -0.658725       -17.9248 
  41   2.0000      -0.655254       -17.8304 
  42   2.0000      -0.635827       -17.3017 
  43   2.0000      -0.628591       -17.1048 
  44   2.0000      -0.625647       -17.0247 
  45   2.0000      -0.619436       -16.8557 
  46   2.0000      -0.591289       -16.0898 
  47   2.0000      -0.588103       -16.0031 
  48   2.0000      -0.559130       -15.2147 
  49   2.0000      -0.547725       -14.9043 
  50   2.0000      -0.541890       -14.7456 
  51   2.0000      -0.538267       -14.6470 
  52   2.0000      -0.526606       -14.3297 
  53   2.0000      -0.516172       -14.0458 
  54   2.0000      -0.492627       -13.4051 
  55   2.0000      -0.473087       -12.8734 
  56   2.0000      -0.464651       -12.6438 
  57   2.0000      -0.463008       -12.5991 
  58   2.0000      -0.451275       -12.2798 
  59   2.0000      -0.446370       -12.1463 
  60   2.0000      -0.434640       -11.8272 
  61   2.0000      -0.429365       -11.6836 
  62   2.0000      -0.427331       -11.6283 
  63   2.0000      -0.417145       -11.3511 
  64   2.0000      -0.413376       -11.2485 
  65   2.0000      -0.408320       -11.1109 
  66   2.0000      -0.404725       -11.0131 
  67   2.0000      -0.398163       -10.8346 
  68   2.0000      -0.397698       -10.8219 
  69   2.0000      -0.389996       -10.6123 
  70   2.0000      -0.388340       -10.5673 
  71   2.0000      -0.382300       -10.4029 
  72   2.0000      -0.379077       -10.3152 
  73   2.0000      -0.371754       -10.1159 
  74   2.0000      -0.369674       -10.0593 
  75   2.0000      -0.362912        -9.8754 
  76   2.0000      -0.358912        -9.7665 
  77   2.0000      -0.356559        -9.7025 
  78   2.0000      -0.355301        -9.6682 
  79   2.0000      -0.351479        -9.5642 
  80   2.0000      -0.348550        -9.4845 
  81   2.0000      -0.344645        -9.3783 
  82   2.0000      -0.342671        -9.3246 
  83   2.0000      -0.336931        -9.1684 
  84   2.0000      -0.333905        -9.0860 
  85   2.0000      -0.325895        -8.8681 
  86   2.0000      -0.323495        -8.8027 
  87   2.0000      -0.323007        -8.7895 
  88   2.0000      -0.317675        -8.6444 
  89   2.0000      -0.313336        -8.5263 
  90   2.0000      -0.309794        -8.4299 
  91   2.0000      -0.306202        -8.3322 
  92   2.0000      -0.303042        -8.2462 
  93   2.0000      -0.296487        -8.0678 
  94   2.0000      -0.290616        -7.9081 
  95   2.0000      -0.287095        -7.8122 
  96   2.0000      -0.285718        -7.7748 
  97   2.0000      -0.282420        -7.6850 
  98   2.0000      -0.281869        -7.6700 
  99   2.0000      -0.277219        -7.5435 
 100   2.0000      -0.275569        -7.4986 
 101   2.0000      -0.272541        -7.4162 
 102   2.0000      -0.271430        -7.3860 
 103   2.0000      -0.265174        -7.2157 
 104   2.0000      -0.259588        -7.0637 
 105   2.0000      -0.249839        -6.7985 
 106   2.0000      -0.229822        -6.2538 
 107   2.0000      -0.228621        -6.2211 
 108   2.0000      -0.212959        -5.7949 
 109   2.0000      -0.183486        -4.9929 
 110   0.0000      -0.056959        -1.5499 
 111   0.0000      -0.014153        -0.3851 
 112   0.0000      -0.006191        -0.1685 
 113   0.0000       0.030072         0.8183 
 114   0.0000       0.038082         1.0363 
 115   0.0000       0.040196         1.0938 
 116   0.0000       0.045994         1.2516 
 117   0.0000       0.048251         1.3130 
 118   0.0000       0.053268         1.4495 
 119   0.0000       0.058949         1.6041 
 120   0.0000       0.060981         1.6594 
 121   0.0000       0.066268         1.8032 
 122   0.0000       0.071297         1.9401 
 123   0.0000       0.073839         2.0093 
 124   0.0000       0.079837         2.1725 
 125   0.0000       0.080979         2.2036 
 126   0.0000       0.084942         2.3114 
 127   0.0000       0.086082         2.3424 
 128   0.0000       0.089829         2.4444 
 129   0.0000       0.093471         2.5435 
 130   0.0000       0.095621         2.6020 
 131   0.0000       0.099175         2.6987 
 132   0.0000       0.102460         2.7881 
 133   0.0000       0.106840         2.9073 
 134   0.0000       0.109046         2.9673 
 135   0.0000       0.110483         3.0064 
 136   0.0000       0.111471         3.0333 
 137   0.0000       0.118801         3.2327 
 138   0.0000       0.122731         3.3397 
 139   0.0000       0.125807         3.4234 
 140   0.0000       0.127451         3.4681 
 141   0.0000       0.127939         3.4814 
 142   0.0000       0.130618         3.5543 
 143   0.0000       0.133477         3.6321 
 144   0.0000       0.137121         3.7312 
 145   0.0000       0.141729         3.8566 
 146   0.0000       0.142350         3.8735 
 147   0.0000       0.144479         3.9315 
 148   0.0000       0.147067         4.0019 
 149   0.0000       0.153385         4.1738 
 150   0.0000       0.156065         4.2468 
 151   0.0000       0.159275         4.3341 
 152   0.0000       0.161762         4.4018 
 153   0.0000       0.163742         4.4556 
 154   0.0000       0.168986         4.5983 
 155   0.0000       0.169764         4.6195 
 156   0.0000       0.176719         4.8088 
 157   0.0000       0.177988         4.8433 
 158   0.0000       0.178922         4.8687 
 159   0.0000       0.183066         4.9815 
 160   0.0000       0.187185         5.0936 
 161   0.0000       0.190138         5.1739 
 162   0.0000       0.194193         5.2843 
 163   0.0000       0.198875         5.4117 
 164   0.0000       0.203229         5.5301 
 165   0.0000       0.204403         5.5621 
 166   0.0000       0.208058         5.6616 
 167   0.0000       0.209292         5.6951 
 168   0.0000       0.211199         5.7470 
 169   0.0000       0.217352         5.9144 
 170   0.0000       0.220807         6.0085 
 171   0.0000       0.228049         6.2055 
 172   0.0000       0.229576         6.2471 
 173   0.0000       0.233841         6.3631 
 174   0.0000       0.238741         6.4965 
 175   0.0000       0.241821         6.5803 
 176   0.0000       0.244865         6.6631 
 177   0.0000       0.254898         6.9361 
 178   0.0000       0.261419         7.1136 
 179   0.0000       0.266397         7.2490 
 180   0.0000       0.273522         7.4429 
 181   0.0000       0.283128         7.7043 
 182   0.0000       0.289116         7.8673 
 183   0.0000       0.295205         8.0329 
 184   0.0000       0.304427         8.2839 
 185   0.0000       0.328246         8.9320 
 186   0.0000       0.335506         9.1296 
 187   0.0000       0.342196         9.3116 
 188   0.0000       0.349515         9.5108 
 189   0.0000       0.352162         9.5828 
 190   0.0000       0.359037         9.7699 
 191   0.0000       0.364898         9.9294 
 192   0.0000       0.372360        10.1324 
 193   0.0000       0.375680        10.2228 
 194   0.0000       0.379324        10.3219 
 195   0.0000       0.382796        10.4164 
 196   0.0000       0.384791        10.4707 
 197   0.0000       0.390874        10.6362 
 198   0.0000       0.397832        10.8256 
 199   0.0000       0.399661        10.8753 
 200   0.0000       0.401248        10.9185 
 201   0.0000       0.408142        11.1061 
 202   0.0000       0.411412        11.1951 
 203   0.0000       0.420303        11.4370 
 204   0.0000       0.422845        11.5062 
 205   0.0000       0.428125        11.6499 
 206   0.0000       0.428782        11.6678 
 207   0.0000       0.436665        11.8823 
 208   0.0000       0.452645        12.3171 
 209   0.0000       0.459565        12.5054 
 210   0.0000       0.462741        12.5918 
 211   0.0000       0.464497        12.6396 
 212   0.0000       0.469726        12.7819 
 213   0.0000       0.476069        12.9545 
 214   0.0000       0.481066        13.0905 
 215   0.0000       0.483435        13.1549 
 216   0.0000       0.485236        13.2040 
 217   0.0000       0.495354        13.4793 
 218   0.0000       0.498398        13.5621 
 219   0.0000       0.500340        13.6149 
 220   0.0000       0.505435        13.7536 
 221   0.0000       0.511716        13.9245 
 222   0.0000       0.516969        14.0675 
 223   0.0000       0.523124        14.2349 
 224   0.0000       0.525806        14.3079 
 225   0.0000       0.531545        14.4641 
 226   0.0000       0.536441        14.5973 
 227   0.0000       0.537199        14.6179 
 228   0.0000       0.540324        14.7030 
 229   0.0000       0.542527        14.7629 
 230   0.0000       0.545785        14.8516 
 231   0.0000       0.551955        15.0195 
 232   0.0000       0.554489        15.0884 
 233   0.0000       0.558116        15.1871 
 234   0.0000       0.562031        15.2936 
 235   0.0000       0.565927        15.3997 
 236   0.0000       0.570028        15.5113 
 237   0.0000       0.573773        15.6132 
 238   0.0000       0.576599        15.6901 
 239   0.0000       0.578154        15.7324 
 240   0.0000       0.581624        15.8268 
 241   0.0000       0.583681        15.8828 
 242   0.0000       0.586296        15.9539 
 243   0.0000       0.589275        16.0350 
 244   0.0000       0.593224        16.1424 
 245   0.0000       0.595686        16.2094 
 246   0.0000       0.600344        16.3362 
 247   0.0000       0.601769        16.3750 
 248   0.0000       0.604368        16.4457 
 249   0.0000       0.605635        16.4802 
 250   0.0000       0.607404        16.5283 
 251   0.0000       0.608730        16.5644 
 252   0.0000       0.611726        16.6459 
 253   0.0000       0.614780        16.7290 
 254   0.0000       0.616203        16.7677 
 255   0.0000       0.618376        16.8269 
 256   0.0000       0.624009        16.9801 
 257   0.0000       0.628633        17.1060 
 258   0.0000       0.629221        17.1220 
 259   0.0000       0.633292        17.2328 
 260   0.0000       0.637187        17.3387 
 261   0.0000       0.639788        17.4095 
 262   0.0000       0.640639        17.4327 
 263   0.0000       0.642639        17.4871 
 264   0.0000       0.643586        17.5129 
 265   0.0000       0.649794        17.6818 
 266   0.0000       0.651302        17.7228 
 267   0.0000       0.653764        17.7898 
 268   0.0000       0.654697        17.8152 
 269   0.0000       0.659488        17.9456 
 270   0.0000       0.664818        18.0906 
 271   0.0000       0.669100        18.2071 
 272   0.0000       0.669323        18.2132 
 273   0.0000       0.671715        18.2783 
 274   0.0000       0.677026        18.4228 
 275   0.0000       0.680257        18.5107 
 276   0.0000       0.682956        18.5842 
 277   0.0000       0.685183        18.6448 
 278   0.0000       0.688109        18.7244 
 279   0.0000       0.691805        18.8250 
 280   0.0000       0.697014        18.9667 
 281   0.0000       0.701552        19.0902 
 282   0.0000       0.710764        19.3409 
 283   0.0000       0.715764        19.4769 
 284   0.0000       0.719504        19.5787 
 285   0.0000       0.720708        19.6115 
 286   0.0000       0.726076        19.7575 
 287   0.0000       0.728879        19.8338 
 288   0.0000       0.733227        19.9521 
 289   0.0000       0.741412        20.1748 
 290   0.0000       0.742727        20.2106 
 291   0.0000       0.747498        20.3404 
 292   0.0000       0.751645        20.4533 
 293   0.0000       0.754466        20.5301 
 294   0.0000       0.762615        20.7518 
 295   0.0000       0.767298        20.8792 
 296   0.0000       0.778001        21.1705 
 297   0.0000       0.780104        21.2277 
 298   0.0000       0.784398        21.3445 
 299   0.0000       0.795938        21.6586 
 300   0.0000       0.802013        21.8239 
 301   0.0000       0.809292        22.0219 
 302   0.0000       0.810729        22.0611 
 303   0.0000       0.826012        22.4769 
 304   0.0000       0.839892        22.8546 
 305   0.0000       0.849738        23.1225 
 306   0.0000       0.864537        23.5252 
 307   0.0000       0.874943        23.8084 
 308   0.0000       0.890560        24.2334 
 309   0.0000       0.894670        24.3452 
 310   0.0000       0.932744        25.3813 
 311   0.0000       0.938949        25.5501 
 312   0.0000       0.950575        25.8665 
 313   0.0000       0.972719        26.4690 
 314   0.0000       0.987028        26.8584 
 315   0.0000       0.995941        27.1009 
 316   0.0000       1.010756        27.5041 
 317   0.0000       1.017231        27.6803 
 318   0.0000       1.026499        27.9325 
 319   0.0000       1.040497        28.3134 
 320   0.0000       1.048455        28.5299 
 321   0.0000       1.057810        28.7845 
 322   0.0000       1.062841        28.9214 
 323   0.0000       1.073130        29.2014 
 324   0.0000       1.092241        29.7214 
 325   0.0000       1.094982        29.7960 
 326   0.0000       1.114993        30.3405 
 327   0.0000       1.134905        30.8823 
 328   0.0000       1.160027        31.5659 
 329   0.0000       1.175690        31.9922 
 330   0.0000       1.184547        32.2332 
 331   0.0000       1.191649        32.4264 
 332   0.0000       1.220223        33.2040 
 333   0.0000       1.230381        33.4804 
 334   0.0000       1.250440        34.0262 
 335   0.0000       1.264525        34.4095 
 336   0.0000       1.281348        34.8673 
 337   0.0000       1.287202        35.0265 
 338   0.0000       1.290648        35.1203 
 339   0.0000       1.304557        35.4988 
 340   0.0000       1.316845        35.8332 
 341   0.0000       1.332452        36.2579 
 342   0.0000       1.340563        36.4786 
 343   0.0000       1.360167        37.0120 
 344   0.0000       1.375100        37.4184 
 345   0.0000       1.375446        37.4278 
 346   0.0000       1.378245        37.5040 
 347   0.0000       1.392380        37.8886 
 348   0.0000       1.412446        38.4346 
 349   0.0000       1.416373        38.5415 
 350   0.0000       1.429844        38.9080 
 351   0.0000       1.436897        39.1000 
 352   0.0000       1.448650        39.4198 
 353   0.0000       1.455451        39.6048 
 354   0.0000       1.462225        39.7892 
 355   0.0000       1.475418        40.1482 
 356   0.0000       1.487910        40.4881 
 357   0.0000       1.494755        40.6743 
 358   0.0000       1.503414        40.9100 
 359   0.0000       1.507680        41.0260 
 360   0.0000       1.516754        41.2730 
 361   0.0000       1.521466        41.4012 
 362   0.0000       1.533001        41.7151 
 363   0.0000       1.549615        42.1672 
 364   0.0000       1.556638        42.3583 
 365   0.0000       1.571449        42.7613 
 366   0.0000       1.574126        42.8342 
 367   0.0000       1.588530        43.2261 
 368   0.0000       1.597044        43.4578 
 369   0.0000       1.602829        43.6152 
 370   0.0000       1.609554        43.7982 
 371   0.0000       1.624684        44.2099 
 372   0.0000       1.628040        44.3012 
 373   0.0000       1.642104        44.6839 
 374   0.0000       1.651240        44.9325 
 375   0.0000       1.657777        45.1104 
 376   0.0000       1.664671        45.2980 
 377   0.0000       1.677028        45.6342 
 378   0.0000       1.680578        45.7309 
 379   0.0000       1.682429        45.7812 
 380   0.0000       1.689086        45.9624 
 381   0.0000       1.693609        46.0854 
 382   0.0000       1.698786        46.2263 
 383   0.0000       1.709857        46.5276 
 384   0.0000       1.713921        46.6382 
 385   0.0000       1.718180        46.7541 
 386   0.0000       1.725048        46.9410 
 387   0.0000       1.728290        47.0292 
 388   0.0000       1.732733        47.1501 
 389   0.0000       1.740720        47.3674 
 390   0.0000       1.745591        47.4999 
 391   0.0000       1.751187        47.6522 
 392   0.0000       1.757701        47.8295 
 393   0.0000       1.758987        47.8645 
 394   0.0000       1.770425        48.1757 
 395   0.0000       1.771949        48.2172 
 396   0.0000       1.781614        48.4802 
 397   0.0000       1.786937        48.6250 
 398   0.0000       1.787784        48.6481 
 399   0.0000       1.791324        48.7444 
 400   0.0000       1.802393        49.0456 
 401   0.0000       1.809498        49.2390 
 402   0.0000       1.812524        49.3213 
 403   0.0000       1.818172        49.4750 
 404   0.0000       1.822186        49.5842 
 405   0.0000       1.824507        49.6473 
 406   0.0000       1.829194        49.7749 
 407   0.0000       1.846182        50.2372 
 408   0.0000       1.850651        50.3588 
 409   0.0000       1.853240        50.4292 
 410   0.0000       1.862152        50.6717 
 411   0.0000       1.870089        50.8877 
 412   0.0000       1.874309        51.0025 
 413   0.0000       1.880654        51.1752 
 414   0.0000       1.883609        51.2556 
 415   0.0000       1.891922        51.4818 
 416   0.0000       1.897919        51.6450 
 417   0.0000       1.907976        51.9187 
 418   0.0000       1.911404        52.0120 
 419   0.0000       1.915992        52.1368 
 420   0.0000       1.930419        52.5294 
 421   0.0000       1.935137        52.6578 
 422   0.0000       1.939722        52.7825 
 423   0.0000       1.951154        53.0936 
 424   0.0000       1.955480        53.2113 
 425   0.0000       1.964088        53.4456 
 426   0.0000       1.966701        53.5167 
 427   0.0000       1.967761        53.5455 
 428   0.0000       1.973429        53.6997 
 429   0.0000       1.975802        53.7643 
 430   0.0000       1.981306        53.9141 
 431   0.0000       1.987069        54.0709 
 432   0.0000       1.991375        54.1881 
 433   0.0000       1.993144        54.2362 
 434   0.0000       1.998736        54.3884 
 435   0.0000       2.003534        54.5189 
 436   0.0000       2.004411        54.5428 
 437   0.0000       2.009622        54.6846 
 438   0.0000       2.011884        54.7461 
 439   0.0000       2.017125        54.8888 
 440   0.0000       2.022012        55.0218 
 441   0.0000       2.030061        55.2408 
 442   0.0000       2.036726        55.4221 
 443   0.0000       2.042673        55.5840 
[...]

 --------------
 Nucleus  47H :
 --------------

Diamagnetic contribution to the shielding tensor (ppm) : 
            33.622         -3.688        -5.666
            -4.911         37.174         6.837
            -5.616          7.667        45.259

Paramagnetic contribution to the shielding tensor (ppm): 
            -2.052          1.714         3.428
             2.724         -9.528        -3.837
             2.696         -3.993       -10.704

Total shielding tensor (ppm): 
            31.570         -1.974        -2.238
            -2.187         27.646         3.000
            -2.920          3.674        34.555


 Diagonalized sT*s matrix:
 
 sDSO            32.697           31.751           51.607  iso=      38.685
 sPSO            -6.607           -1.665          -14.012  iso=      -7.428
        ---------------  ---------------  ---------------
 Total           26.090           30.087           37.595  iso=      31.257

 --------------
 Nucleus  48H :
 --------------

Diamagnetic contribution to the shielding tensor (ppm) : 
            35.790         -0.250        -2.496
            -3.389         39.327        -6.449
            -0.590         -2.805        43.245

Paramagnetic contribution to the shielding tensor (ppm): 
            -4.091          1.523         2.878
             4.065        -12.147         3.556
             0.557          0.800       -12.836

Total shielding tensor (ppm): 
            31.699          1.274         0.382
             0.676         27.180        -2.894
            -0.034         -2.005        30.409


 Diagonalized sT*s matrix:
 
 sDSO            37.104           41.024           40.234  iso=      39.454
 sPSO           -11.391           -9.548           -8.135  iso=      -9.691
        ---------------  ---------------  ---------------
 Total           25.714           31.476           32.098  iso=      29.763

 --------------
 Nucleus  52H :
 --------------

Diamagnetic contribution to the shielding tensor (ppm) : 
            43.390          3.949        -8.102
             7.918         23.624        -5.725
            -8.199         -9.861        47.610

Paramagnetic contribution to the shielding tensor (ppm): 
           -15.152         -0.454        12.008
            -4.221          1.450         8.276
            10.643         12.162       -22.048

Total shielding tensor (ppm): 
            28.238          3.496         3.907
             3.697         25.074         2.552
             2.444          2.301        25.563


 Diagonalized sT*s matrix:
 
 sDSO            26.959           53.328           34.337  iso=      38.208
 sPSO            -4.326          -29.871           -1.552  iso=     -11.916
        ---------------  ---------------  ---------------
 Total           22.633           23.457           32.785  iso=      26.292

 --------------
 Nucleus  53H :
 --------------

Diamagnetic contribution to the shielding tensor (ppm) : 
            46.614          1.391        -8.683
            -1.640         38.669        -3.776
            -3.727          1.265        49.190

Paramagnetic contribution to the shielding tensor (ppm): 
           -17.974          1.423        13.976
             4.406        -14.748         7.589
             8.117          0.606       -22.769

Total shielding tensor (ppm): 
            28.640          2.815         5.294
             2.766         23.921         3.813
             4.390          1.871        26.421


 Diagonalized sT*s matrix:
 
 sDSO            45.988           47.882           40.603  iso=      44.824
 sPSO           -23.976          -24.953           -6.562  iso=     -18.497
        ---------------  ---------------  ---------------
 Total           22.012           22.929           34.041  iso=      26.328

 --------------
 Nucleus  57H :
 --------------

Diamagnetic contribution to the shielding tensor (ppm) : 
            33.848         -3.757         1.732
           -15.368         28.713        -7.462
            12.480         -5.865        41.702

Paramagnetic contribution to the shielding tensor (ppm): 
            -4.141          3.114         0.298
            13.914          2.494         3.250
           -10.486          2.577       -13.311

Total shielding tensor (ppm): 
            29.707         -0.643         2.030
            -1.454         31.207        -4.211
             1.994         -3.288        28.391


 Diagonalized sT*s matrix:
 
 sDSO            31.846           24.698           47.718  iso=      34.754
 sPSO            -6.351            4.471          -13.077  iso=      -4.986
        ---------------  ---------------  ---------------
 Total           25.495           29.169           34.641  iso=      29.768

 --------------
 Nucleus  58H :
 --------------

Diamagnetic contribution to the shielding tensor (ppm) : 
            37.850          0.183        -2.655
            -7.356         22.180         3.585
            -8.382          0.960        39.853

Paramagnetic contribution to the shielding tensor (ppm): 
            -7.366          0.180         2.293
             7.524          7.610         1.174
             8.508          3.966       -10.461

Total shielding tensor (ppm): 
            30.484          0.363        -0.362
             0.168         29.790         4.759
             0.126          4.927        29.391


 Diagonalized sT*s matrix:
 
 sDSO            28.992           38.381           32.509  iso=      33.294
 sPSO            -4.261           -7.887            1.931  iso=      -3.406
        ---------------  ---------------  ---------------
 Total           24.731           30.493           34.440  iso=      29.888

 --------------
 Nucleus  61H :
 --------------

Diamagnetic contribution to the shielding tensor (ppm) : 
            30.196         -6.988        -0.100
            -0.038         42.425        -1.523
             6.727         -3.353        37.338

Paramagnetic contribution to the shielding tensor (ppm): 
             0.808          3.807         0.008
            -2.813         -9.129         1.558
            -7.010          3.117        -7.986

Total shielding tensor (ppm): 
            31.003         -3.181        -0.092
            -2.851         33.296         0.035
            -0.283         -0.236        29.351


 Diagonalized sT*s matrix:
 
 sDSO            32.730           35.477           41.751  iso=      36.653
 sPSO            -3.894           -6.039           -6.375  iso=      -5.436
        ---------------  ---------------  ---------------
 Total           28.836           29.438           35.376  iso=      31.217

 --------------
 Nucleus  62H :
 --------------

Diamagnetic contribution to the shielding tensor (ppm) : 
            27.822          4.740         5.591
             8.286         29.802        -1.549
            21.096          3.295        35.834

Paramagnetic contribution to the shielding tensor (ppm): 
             3.933         -2.325        -3.909
            -4.859         -1.846         6.405
           -18.599          1.288        -3.453

Total shielding tensor (ppm): 
            31.755          2.415         1.682
             3.426         27.956         4.856
             2.497          4.582        32.381


 Diagonalized sT*s matrix:
 
 sDSO            30.554           17.112           45.793  iso=      31.153
 sPSO            -5.894           12.925           -8.396  iso=      -0.455
        ---------------  ---------------  ---------------
 Total           24.659           30.036           37.397  iso=      30.698

 --------------
 Nucleus  63H :
 --------------

Diamagnetic contribution to the shielding tensor (ppm) : 
            28.465         -1.699       -10.157
             6.029         29.388        -0.408
             4.035          4.919        46.901

Paramagnetic contribution to the shielding tensor (ppm): 
             2.465          3.861         6.387
            -4.419         -1.919         0.647
            -7.982         -5.313       -12.760

Total shielding tensor (ppm): 
            30.929          2.162        -3.770
             1.610         27.469         0.240
            -3.947         -0.393        34.142


 Diagonalized sT*s matrix:
 
 sDSO            26.612           34.821           43.321  iso=      34.918
 sPSO            -0.365           -5.378           -6.471  iso=      -4.071
        ---------------  ---------------  ---------------
 Total           26.247           29.443           36.850  iso=      30.847

 --------------
 Nucleus  64H :
 --------------

Diamagnetic contribution to the shielding tensor (ppm) : 
            33.138         -1.943         7.001
           -17.888         16.205        -5.600
            13.542         -3.132        18.778

Paramagnetic contribution to the shielding tensor (ppm): 
            -0.240         -2.093        -3.345
            14.411         15.064         2.633
           -10.362         -0.513         9.743

Total shielding tensor (ppm): 
            32.898         -4.036         3.655
            -3.478         31.269        -2.968
             3.180         -3.646        28.520


 Diagonalized sT*s matrix:
 
 sDSO            13.663           13.547           40.910  iso=      22.707
 sPSO            12.478           14.760           -2.671  iso=       8.189
        ---------------  ---------------  ---------------
 Total           26.141           28.307           38.239  iso=      30.896

 --------------
 Nucleus  65H :
 --------------

Diamagnetic contribution to the shielding tensor (ppm) : 
            28.274          4.346         4.507
             5.776         20.017         9.680
            15.249          8.657        23.326

Paramagnetic contribution to the shielding tensor (ppm): 
             3.485         -2.100        -2.312
            -4.172          9.226        -5.915
           -13.512         -4.618         7.876

Total shielding tensor (ppm): 
            31.759          2.246         2.195
             1.604         29.243         3.765
             1.736          4.038        31.203


 Diagonalized sT*s matrix:
 
 sDSO            12.735           18.849           40.033  iso=      23.872
 sPSO            13.445           11.168           -4.025  iso=       6.862
        ---------------  ---------------  ---------------
 Total           26.179           30.017           36.008  iso=      30.735

 --------------
 Nucleus  66H :
 --------------

Diamagnetic contribution to the shielding tensor (ppm) : 
            40.924          6.055        -1.539
             4.469          7.060         3.702
           -10.776          3.136        10.685

Paramagnetic contribution to the shielding tensor (ppm): 
            -3.959         -4.460        -1.536
            -2.870         19.394        -5.199
             8.569         -3.857        18.072

Total shielding tensor (ppm): 
            36.965          1.595        -3.074
             1.599         26.454        -1.497
            -2.207         -0.721        28.756


 Diagonalized sT*s matrix:
 
 sDSO             9.199            7.343           42.126  iso=      19.556
 sPSO            16.777           20.820           -4.091  iso=      11.169
        ---------------  ---------------  ---------------
 Total           25.977           28.163           38.035  iso=      30.725

 --------------
 Nucleus  67H :
 --------------

Diamagnetic contribution to the shielding tensor (ppm) : 
            39.171          1.260         4.855
            17.049         34.646        -4.672
            -3.585        -13.370        35.400

Paramagnetic contribution to the shielding tensor (ppm): 
            -5.339         -0.129        -0.696
           -16.069         -5.308         1.187
             7.935         11.060        -6.347

Total shielding tensor (ppm): 
            33.832          1.131         4.159
             0.980         29.338        -3.485
             4.350         -2.310        29.053


 Diagonalized sT*s matrix:
 
 sDSO            24.111           46.954           38.151  iso=      36.406
 sPSO             0.496          -15.711           -1.779  iso=      -5.665
        ---------------  ---------------  ---------------
 Total           24.607           31.244           36.372  iso=      30.741

 --------------
 Nucleus  68H :
 --------------

Diamagnetic contribution to the shielding tensor (ppm) : 
            31.613          3.764        -6.793
            18.819         26.767        -1.170
           -21.463         -6.421        31.218

Paramagnetic contribution to the shielding tensor (ppm): 
            -1.191         -2.208         3.143
           -16.295          2.251        -2.690
            17.645          2.822         2.444

Total shielding tensor (ppm): 
            30.422          1.556        -3.649
             2.524         29.019        -3.861
            -3.818         -3.599        33.661


 Diagonalized sT*s matrix:
 
 sDSO            24.762           16.672           48.164  iso=      29.866
 sPSO             2.185           11.391          -10.072  iso=       1.168
        ---------------  ---------------  ---------------
 Total           26.947           28.063           38.092  iso=      31.034

 --------------
 Nucleus  69H :
 --------------

Diamagnetic contribution to the shielding tensor (ppm) : 
            26.871          3.566         0.835
            14.056         38.583         3.006
            -8.234         -2.885        29.632

Paramagnetic contribution to the shielding tensor (ppm): 
             1.231         -3.197        -1.497
           -13.103         -2.319        -1.244
             7.629          3.840        -0.064

Total shielding tensor (ppm): 
            28.102          0.369        -0.662
             0.953         36.264         1.762
            -0.605          0.955        29.568


 Diagonalized sT*s matrix:
 
 sDSO            22.593           33.199           39.294  iso=      31.695
 sPSO             5.125           -3.544           -2.732  iso=      -0.384
        ---------------  ---------------  ---------------
 Total           27.718           29.655           36.562  iso=      31.312

 --------------
 Nucleus  70H :
 --------------

Diamagnetic contribution to the shielding tensor (ppm) : 
            31.588          1.190         3.787
            -7.805         39.880         7.813
             0.364          8.172        36.326

Paramagnetic contribution to the shielding tensor (ppm): 
             0.601         -1.043        -3.353
             9.211         -9.638        -2.159
             0.971         -3.405        -7.894

Total shielding tensor (ppm): 
            32.189          0.147         0.435
             1.406         30.242         5.654
             1.335          4.767        28.432


 Diagonalized sT*s matrix:
 
 sDSO            29.753           34.733           43.308  iso=      35.931
 sPSO            -5.708           -3.006           -8.217  iso=      -5.644
        ---------------  ---------------  ---------------
 Total           24.045           31.727           35.091  iso=      30.288

 --------------
 Nucleus  71H :
 --------------

Diamagnetic contribution to the shielding tensor (ppm) : 
            28.616         -6.875        -0.165
           -13.879         40.284        -6.289
            -1.254         -6.868        34.794

Paramagnetic contribution to the shielding tensor (ppm): 
             2.157          4.535         0.972
            12.213         -6.491         3.488
             1.326          4.421        -5.580

Total shielding tensor (ppm): 
            30.774         -2.341         0.807
            -1.665         33.792        -2.801
             0.072         -2.446        29.214


 Diagonalized sT*s matrix:
 
 sDSO            28.541           26.733           48.421  iso=      34.565
 sPSO            -0.601            3.317          -12.630  iso=      -3.305
        ---------------  ---------------  ---------------
 Total           27.940           30.050           35.790  iso=      31.260

 --------------
 Nucleus  72H :
 --------------

Diamagnetic contribution to the shielding tensor (ppm) : 
            36.388         -7.955        -8.669
           -15.109         27.127        -0.596
            -9.613          3.163        30.946

Paramagnetic contribution to the shielding tensor (ppm): 
            -1.882          6.345         4.437
            13.023          2.116         4.118
             5.624         -0.698        -2.421

Total shielding tensor (ppm): 
            34.506         -1.610        -4.231
            -2.086         29.243         3.521
            -3.989          2.465        28.526


 Diagonalized sT*s matrix:
 
 sDSO            28.429           18.125           47.908  iso=      31.487
 sPSO            -3.077           11.095          -10.204  iso=      -0.729
        ---------------  ---------------  ---------------
 Total           25.351           29.220           37.704  iso=      30.758



--------------------------------
CHEMICAL SHIELDING SUMMARY (ppm)
--------------------------------


  Nucleus  Element    Isotropic     Anisotropy
  -------  -------  ------------   ------------
      3       H           29.364          6.476 
      4       H           29.049          7.430 
      8       H           29.569          7.938 
      9       H           29.340          5.430 
     10       H           30.103          8.354 
     11       H           29.858         10.221 
     13       H           27.733          7.782 
     16       H           26.794          4.708 
     17       H           26.512          4.800 
     19       H           25.398         10.389 
     21       H           25.590         14.830 
     24       H           28.898         10.113 
     25       H           30.014          9.539 
     27       H           30.235          7.180 
     28       H           30.113         11.865 
     30       H           29.743          8.047 
     31       H           30.416          6.910 
     33       H           29.765          4.157 
     35       H           30.158         14.785 
     37       H           30.369         10.528 
     38       H           30.264          9.784 
     40       H           29.655         10.550 
     41       H           30.726          7.933 
     42       H           30.134          6.516 
     45       H           31.236          7.331 
     46       H           31.010          8.041 
     47       H           31.257          9.507 
     48       H           29.763          3.503 
     52       H           26.292          9.740 
     53       H           26.328         11.571 
     57       H           29.768          7.309 
     58       H           29.888          6.828 
     61       H           31.217          6.239 
     62       H           30.698         10.049 
     63       H           30.847          9.005 
     64       H           30.896         11.015 
     65       H           30.735          7.910 
     66       H           30.725         10.965 
     67       H           30.741          8.446 
     68       H           31.034         10.587 
     69       H           31.312          7.876 
     70       H           30.288          7.206 
     71       H           31.260          6.795 
     72       H           30.758         10.418 



Maximum memory used throughout the entire EPRNMR-calculation: 141.0 MB

Timings for individual modules:

Sum of individual times         ...      143.551 sec (=   2.393 min)
GTO integral calculation        ...        0.777 sec (=   0.013 min)   0.5 %
SCF iterations                  ...       95.919 sec (=   1.599 min)  66.8 %
EPR/NMR calculation             ...       46.855 sec (=   0.781 min)  32.6 %
                             ****ORCA TERMINATED NORMALLY****
TOTAL RUN TIME: 0 days 0 hours 2 minutes 24 seconds 46 msec
