
                                 *****************
                                 * O   R   C   A *
                                 *****************

                                            #,                                       
                                            ###                                      
                                            ####                                     
                                            #####                                    
                                            ######                                   
                                           ########,                                 
                                     ,,################,,,,,                         
                               ,,#################################,,                 
                          ,,##########################################,,             
                       ,#########################################, ''#####,          
                    ,#############################################,,   '####,        
                  ,##################################################,,,,####,       
                ,###########''''           ''''###############################       
              ,#####''   ,,,,##########,,,,          '''####'''          '####       
            ,##' ,,,,###########################,,,                        '##       
           ' ,,###''''                  '''############,,,                           
         ,,##''                                '''############,,,,        ,,,,,,###''
      ,#''                                            '''#######################'''  
     '                                                          ''''####''''         
             ,#######,   #######,   ,#######,      ##                                
            ,#'     '#,  ##    ##  ,#'     '#,    #''#        ######   ,####,        
            ##       ##  ##   ,#'  ##            #'  '#       #        #'  '#        
            ##       ##  #######   ##           ,######,      #####,   #    #        
            '#,     ,#'  ##    ##  '#,     ,#' ,#      #,         ##   #,  ,#        
             '#######'   ##     ##  '#######'  #'      '#     #####' # '####'        



                  #######################################################
                  #                        -***-                        #
                  #          Department of theory and spectroscopy      #
                  #    Directorship and core code : Frank Neese         #
                  #        Max Planck Institute fuer Kohlenforschung    #
                  #                Kaiser Wilhelm Platz 1               #
                  #                 D-45470 Muelheim/Ruhr               #
                  #                      Germany                        #
                  #                                                     #
                  #                  All rights reserved                #
                  #                        -***-                        #
                  #######################################################


                         Program Version 5.0.2 -  RELEASE  -


 With contributions from (in alphabetic order):
   Daniel Aravena         : Magnetic Suceptibility
   Michael Atanasov       : Ab Initio Ligand Field Theory (pilot matlab implementation)
   Alexander A. Auer      : GIAO ZORA, VPT2 properties, NMR spectrum
   Ute Becker             : Parallelization
   Giovanni Bistoni       : ED, misc. LED, open-shell LED, HFLD
   Martin Brehm           : Molecular dynamics
   Dmytro Bykov           : SCF Hessian
   Vijay G. Chilkuri      : MRCI spin determinant printing, contributions to CSF-ICE
   Dipayan Datta          : RHF DLPNO-CCSD density
   Achintya Kumar Dutta   : EOM-CC, STEOM-CC
   Dmitry Ganyushin       : Spin-Orbit,Spin-Spin,Magnetic field MRCI
   Miquel Garcia          : C-PCM and meta-GGA Hessian, CC/C-PCM, Gaussian charge scheme
   Yang Guo               : DLPNO-NEVPT2, F12-NEVPT2, CIM, IAO-localization
   Andreas Hansen         : Spin unrestricted coupled pair/coupled cluster methods
   Benjamin Helmich-Paris : MC-RPA, TRAH-SCF, COSX integrals
   Lee Huntington         : MR-EOM, pCC
   Robert Izsak           : Overlap fitted RIJCOSX, COSX-SCS-MP3, EOM
   Marcus Kettner         : VPT2
   Christian Kollmar      : KDIIS, OOCD, Brueckner-CCSD(T), CCSD density, CASPT2, CASPT2-K
   Simone Kossmann        : Meta GGA functionals, TD-DFT gradient, OOMP2, MP2 Hessian
   Martin Krupicka        : Initial AUTO-CI
   Lucas Lang             : DCDCAS
   Marvin Lechner         : AUTO-CI (C++ implementation), FIC-MRCC
   Dagmar Lenk            : GEPOL surface, SMD
   Dimitrios Liakos       : Extrapolation schemes; Compound Job, initial MDCI parallelization
   Dimitrios Manganas     : Further ROCIS development; embedding schemes
   Dimitrios Pantazis     : SARC Basis sets
   Anastasios Papadopoulos: AUTO-CI, single reference methods and gradients
   Taras Petrenko         : DFT Hessian,TD-DFT gradient, ASA, ECA, R-Raman, ABS, FL, XAS/XES, NRVS
   Peter Pinski           : DLPNO-MP2, DLPNO-MP2 Gradient
   Christoph Reimann      : Effective Core Potentials
   Marius Retegan         : Local ZFS, SOC
   Christoph Riplinger    : Optimizer, TS searches, QM/MM, DLPNO-CCSD(T), (RO)-DLPNO pert. Triples
   Tobias Risthaus        : Range-separated hybrids, TD-DFT gradient, RPA, STAB
   Michael Roemelt        : Original ROCIS implementation
   Masaaki Saitow         : Open-shell DLPNO-CCSD energy and density
   Barbara Sandhoefer     : DKH picture change effects
   Avijit Sen             : IP-ROCIS
   Kantharuban Sivalingam : CASSCF convergence, NEVPT2, FIC-MRCI
   Bernardo de Souza      : ESD, SOC TD-DFT
   Georgi Stoychev        : AutoAux, RI-MP2 NMR, DLPNO-MP2 response
   Willem Van den Heuvel  : Paramagnetic NMR
   Boris Wezisla          : Elementary symmetry handling
   Frank Wennmohs         : Technical directorship


 We gratefully acknowledge several colleagues who have allowed us to
 interface, adapt or use parts of their codes:
   Stefan Grimme, W. Hujo, H. Kruse, P. Pracht,  : VdW corrections, initial TS optimization,
                  C. Bannwarth, S. Ehlert          DFT functionals, gCP, sTDA/sTD-DF
   Ed Valeev, F. Pavosevic, A. Kumar             : LibInt (2-el integral package), F12 methods
   Garnet Chan, S. Sharma, J. Yang, R. Olivares  : DMRG
   Ulf Ekstrom                                   : XCFun DFT Library
   Mihaly Kallay                                 : mrcc  (arbitrary order and MRCC methods)
   Jiri Pittner, Ondrej Demel                    : Mk-CCSD
   Frank Weinhold                                : gennbo (NPA and NBO analysis)
   Christopher J. Cramer and Donald G. Truhlar   : smd solvation model
   Lars Goerigk                                  : TD-DFT with DH, B97 family of functionals
   V. Asgeirsson, H. Jonsson                     : NEB implementation
   FAccTs GmbH                                   : IRC, NEB, NEB-TS, DLPNO-Multilevel, CI-OPT
                                                   MM, QMMM, 2- and 3-layer-ONIOM, Crystal-QMMM,
                                                   LR-CPCM, SF, NACMEs, symmetry and pop. for TD-DFT,
                                                   nearIR, NL-DFT gradient (VV10), updates on ESD,
                                                   ML-optimized integration grids
   S Lehtola, MJT Oliveira, MAL Marques          : LibXC Library
   Liviu Ungur et al                             : ANISO software


 Your calculation uses the libint2 library for the computation of 2-el integrals
 For citations please refer to: http://libint.valeyev.net

 Your ORCA version has been built with support for libXC version: 5.1.0
 For citations please refer to: https://tddft.org/programs/libxc/

 This ORCA versions uses:
   CBLAS   interface :  Fast vector & matrix operations
   LAPACKE interface :  Fast linear algebra routines
   SCALAPACK package :  Parallel linear algebra routines
   Shared memory     :  Shared parallel matrices
   BLAS/LAPACK       :  OpenBLAS 0.3.15  USE64BITINT DYNAMIC_ARCH NO_AFFINITY Zen SINGLE_THREADED
        Core in use  :  Zen
   Copyright (c) 2011-2014, The OpenBLAS Project


Your calculation utilizes the atom-pairwise dispersion correction
based on tight binding partial charges (D4)
Cite in your paper:
E.Caldeweyher, C.Bannwarth, S.Grimme, J.Chem.Phys., (2017), 147, 034112.
E.Caldeweyher, S.Ehlert, A.Hansen, H.Neugebauer, S.Grimme, J.Chem.Phys., (2018), in progress.
   

================================================================================

----- Orbital basis set information -----
Your calculation utilizes the basis: pcJ-0
   F. Jensen, Theor. Chem. Acc. 126, 371 (2010).

----- AuxJ basis set information -----
Your calculation utilizes the auxiliary basis: def2/J
   F. Weigend, Phys. Chem. Chem. Phys. 8, 1057 (2006).

================================================================================
                                        WARNINGS
                       Please study these warnings very carefully!
================================================================================


INFO   : the flag for use of the SHARK integral package has been found!

================================================================================
                                       INPUT FILE
================================================================================
NAME = inpJ
|  1> ! pbe0
|  2> ! D4
|  3> ! pcJ-0
|  4> ! def2/J RIJCOSX
|  5> ! DEFGRID2
|  6> ! scfconv7
|  7> ! smallprint printgap noloewdin
|  8> ! NOSOSCF
|  9> %MaxCore 4000
| 10> %output
| 11>        print[P_BondOrder_M] 1
| 12>        print[P_Mayer] 1
| 13>        print[P_basis] 2
| 14> end
| 15> %pal
| 16>     nprocs 4
| 17> end
| 18> ! CPCM(chloroform)
| 19> *xyz 0 1
| 20> C   -4.9995135000   0.2311745500  -0.4594494300
| 21> C   -6.4541660400  -0.1445151900  -0.6160925200
| 22> C   -7.3360341500   0.7460846300   0.2683417000
| 23> H   -6.6108842800  -1.1989873800  -0.3625154800
| 24> H   -6.7677155800   0.0042739400  -1.6599997200
| 25> C   -4.7199310000   1.6654087500  -0.6915964800
| 26> C   -5.6287363400   2.6107460800   0.0625236600
| 27> C   -7.1068666500   2.2193019900  -0.0739096600
| 28> H   -5.4696092200   3.6398880700  -0.2765990600
| 29> H   -5.3532621600   2.5777397500   1.1276995900
| 30> H   -7.4390666000   2.3892348900  -1.1071226100
| 31> H   -7.7239403000   2.8472467300   0.5790576400
| 32> O   -7.0934353700   0.4804474700   1.6597380300
| 33> H   -8.3909808200   0.4924744500   0.1064758900
| 34> C   -4.0777524600  -0.6819105000  -0.0710257000
| 35> C   -3.7699922200   2.0983732700  -1.5277224600
| 36> H   -3.1382306500   1.4031296900  -2.0740272500
| 37> H   -3.6103666300   3.1616069700  -1.6909645100
| 38> C   -2.6864840500  -0.4198074200   0.2188091400
| 39> H   -4.4369966200  -1.7010686600   0.0661131800
| 40> C   -1.7411506400  -1.3405458600   0.5033710900
| 41> H   -2.3924140800   0.6273829300   0.2177177500
| 42> C   -1.9456106100  -2.8338220200   0.5189032200
| 43> C   -0.9468505500  -3.5469031400  -0.4127253600
| 44> H   -2.9667539800  -3.1170777400   0.2506199900
| 45> H   -1.7689668400  -3.1893993400   1.5464021000
| 46> C    0.5065691000  -3.1320370000  -0.1498638900
| 47> H   -1.2134455900  -3.3301885700  -1.4549486200
| 48> H   -1.0473241700  -4.6316597300  -0.2846138700
| 49> C    0.6860560900  -1.6086453100  -0.2072673300
| 50> H    1.1550231400  -3.6378888700  -0.8723512900
| 51> H    0.8067479800  -3.4803830500   0.8498716400
| 52> C   -0.3200280800  -0.9809941100   0.8107644600
| 53> H   -0.0781269700  -1.4689834400   1.7728391400
| 54> C    0.1192132600   0.4757258100   0.9200826400
| 55> H   -6.1371753100   0.3912378100   1.7787676400
| 56> C    1.6613665300   0.4012588500   0.8005607800
| 57> H   -0.2127907000   0.9360994600   1.8564168000
| 58> H   -0.2989539100   1.0716090500   0.1013117000
| 59> C    2.0187960700  -1.0533863100   0.3677425500
| 60> H    2.1531808100   0.6563489300   1.7444182300
| 61> H    2.0235106700   1.1177729900   0.0533614600
| 62> H    2.2406795900  -1.6415017900   1.2731755800
| 63> C    3.2920151900  -1.1019942500  -0.5120091900
| 64> C    0.4360195500  -1.0748717000  -1.6249390500
| 65> H    0.6701103200  -0.0083771200  -1.7030248200
| 66> H   -0.6097666000  -1.2009402000  -1.9216799800
| 67> H    1.0585274200  -1.6054179900  -2.3535983900
| 68> H    3.0944278100  -0.4718575500  -1.3952991800
| 69> C    3.6427522400  -2.5071388100  -0.9975670500
| 70> C    4.4201662400  -0.4422929600   0.2475783700
| 71> C    5.5163731500  -1.0407157200   0.7138855100
| 72> H    4.2817975800   0.6218485100   0.4344498000
| 73> H    5.6527420100  -2.1083469600   0.5353654500
| 74> C    6.5982749800  -0.4227420900   1.5716723600
| 75> C    6.4151732700  -0.9561857800   3.0054843300
| 76> C    6.6818999500   1.1150865500   1.5094420900
| 77> H    7.5647462900  -0.8089066800   1.2044573900
| 78> H    5.6882811300   1.5231065000   1.7499899100
| 79> C    7.0851249900   1.5874310900   0.1081074700
| 80> C    7.6725792100   1.6775870100   2.5346042100
| 81> H    5.5324198000  -0.4983414500   3.4686212400
| 82> H    7.2865325100  -0.7479613800   3.6331529300
| 83> H    6.2617609600  -2.0406381800   2.9941378900
| 84> H    6.4148838500   1.2033142600  -0.6653536300
| 85> H    8.1008316700   1.2422191500  -0.1238071300
| 86> H    7.0837513000   2.6815463900   0.0506652100
| 87> H    7.3456743700   1.5106372800   3.5648010100
| 88> H    7.7902448000   2.7576744100   2.3939271900
| 89> H    8.6605921300   1.2150875700   2.4109745000
| 90> H    2.9033962600  -2.8703235800  -1.7141228700
| 91> H    3.6841555500  -3.2204313000  -0.1659986800
| 92> H    4.6177033100  -2.5101563900  -1.4966932200
| 93> *
| 94> %eprnmr
| 95>  Nuclei = all H { ssfc }
| 96>  SpinSpinRThresh 8.0
| 97> end
| 98> 
| 99>                          ****END OF INPUT****
================================================================================

                       ****************************
                       * Single Point Calculation *
                       ****************************

---------------------------------
CARTESIAN COORDINATES (ANGSTROEM)
---------------------------------
  C     -4.999513    0.231175   -0.459449
  C     -6.454166   -0.144515   -0.616093
  C     -7.336034    0.746085    0.268342
  H     -6.610884   -1.198987   -0.362515
  H     -6.767716    0.004274   -1.660000
  C     -4.719931    1.665409   -0.691596
  C     -5.628736    2.610746    0.062524
  C     -7.106867    2.219302   -0.073910
  H     -5.469609    3.639888   -0.276599
  H     -5.353262    2.577740    1.127700
  H     -7.439067    2.389235   -1.107123
  H     -7.723940    2.847247    0.579058
  O     -7.093435    0.480447    1.659738
  H     -8.390981    0.492474    0.106476
  C     -4.077752   -0.681910   -0.071026
  C     -3.769992    2.098373   -1.527722
  H     -3.138231    1.403130   -2.074027
  H     -3.610367    3.161607   -1.690965
  C     -2.686484   -0.419807    0.218809
  H     -4.436997   -1.701069    0.066113
  C     -1.741151   -1.340546    0.503371
  H     -2.392414    0.627383    0.217718
  C     -1.945611   -2.833822    0.518903
  C     -0.946851   -3.546903   -0.412725
  H     -2.966754   -3.117078    0.250620
  H     -1.768967   -3.189399    1.546402
  C      0.506569   -3.132037   -0.149864
  H     -1.213446   -3.330189   -1.454949
  H     -1.047324   -4.631660   -0.284614
  C      0.686056   -1.608645   -0.207267
  H      1.155023   -3.637889   -0.872351
  H      0.806748   -3.480383    0.849872
  C     -0.320028   -0.980994    0.810764
  H     -0.078127   -1.468983    1.772839
  C      0.119213    0.475726    0.920083
  H     -6.137175    0.391238    1.778768
  C      1.661367    0.401259    0.800561
  H     -0.212791    0.936099    1.856417
  H     -0.298954    1.071609    0.101312
  C      2.018796   -1.053386    0.367743
  H      2.153181    0.656349    1.744418
  H      2.023511    1.117773    0.053361
  H      2.240680   -1.641502    1.273176
  C      3.292015   -1.101994   -0.512009
  C      0.436020   -1.074872   -1.624939
  H      0.670110   -0.008377   -1.703025
  H     -0.609767   -1.200940   -1.921680
  H      1.058527   -1.605418   -2.353598
  H      3.094428   -0.471858   -1.395299
  C      3.642752   -2.507139   -0.997567
  C      4.420166   -0.442293    0.247578
  C      5.516373   -1.040716    0.713886
  H      4.281798    0.621849    0.434450
  H      5.652742   -2.108347    0.535365
  C      6.598275   -0.422742    1.571672
  C      6.415173   -0.956186    3.005484
  C      6.681900    1.115087    1.509442
  H      7.564746   -0.808907    1.204457
  H      5.688281    1.523106    1.749990
  C      7.085125    1.587431    0.108107
  C      7.672579    1.677587    2.534604
  H      5.532420   -0.498341    3.468621
  H      7.286533   -0.747961    3.633153
  H      6.261761   -2.040638    2.994138
  H      6.414884    1.203314   -0.665354
  H      8.100832    1.242219   -0.123807
  H      7.083751    2.681546    0.050665
  H      7.345674    1.510637    3.564801
  H      7.790245    2.757674    2.393927
  H      8.660592    1.215088    2.410975
  H      2.903396   -2.870324   -1.714123
  H      3.684156   -3.220431   -0.165999
  H      4.617703   -2.510156   -1.496693

----------------------------
CARTESIAN COORDINATES (A.U.)
----------------------------
  NO LB      ZA    FRAG     MASS         X           Y           Z
   0 C     6.0000    0    12.011   -9.447711    0.436857   -0.868234
   1 C     6.0000    0    12.011  -12.196606   -0.273094   -1.164246
   2 C     6.0000    0    12.011  -13.863095    1.409896    0.507092
   3 H     1.0000    0     1.008  -12.492761   -2.265758   -0.685055
   4 H     1.0000    0     1.008  -12.789129    0.008077   -3.136945
   5 C     6.0000    0    12.011   -8.919377    3.147166   -1.306928
   6 C     6.0000    0    12.011  -10.636770    4.933595    0.118153
   7 C     6.0000    0    12.011  -13.430032    4.193873   -0.139669
   8 H     1.0000    0     1.008  -10.336063    6.878392   -0.522696
   9 H     1.0000    0     1.008  -10.116199    4.871222    2.131043
  10 H     1.0000    0     1.008  -14.057799    4.515000   -2.092159
  11 H     1.0000    0     1.008  -14.596132    5.380517    1.094260
  12 O     8.0000    0    15.999  -13.404650    0.907914    3.136450
  13 H     1.0000    0     1.008  -15.856656    0.930642    0.201210
  14 C     6.0000    0    12.011   -7.705835   -1.288624   -0.134219
  15 C     6.0000    0    12.011   -7.124253    3.965351   -2.886977
  16 H     1.0000    0     1.008   -5.930396    2.651531   -3.919343
  17 H     1.0000    0     1.008   -6.822604    5.974571   -3.195460
  18 C     6.0000    0    12.011   -5.076719   -0.793321    0.413489
  19 H     1.0000    0     1.008   -8.384708   -3.214554    0.124936
  20 C     6.0000    0    12.011   -3.290298   -2.533265    0.951234
  21 H     1.0000    0     1.008   -4.521007    1.185582    0.411427
  22 C     6.0000    0    12.011   -3.676671   -5.355148    0.980585
  23 C     6.0000    0    12.011   -1.789288   -6.702676   -0.779938
  24 H     1.0000    0     1.008   -5.606353   -5.890423    0.473603
  25 H     1.0000    0     1.008   -3.342863   -6.027091    2.922276
  26 C     6.0000    0    12.011    0.957277   -5.918692   -0.283202
  27 H     1.0000    0     1.008   -2.293080   -6.293144   -2.749454
  28 H     1.0000    0     1.008   -1.979156   -8.752568   -0.537842
  29 C     6.0000    0    12.011    1.296458   -3.039899   -0.391678
  30 H     1.0000    0     1.008    2.182677   -6.874614   -1.648505
  31 H     1.0000    0     1.008    1.524533   -6.576971    1.606025
  32 C     6.0000    0    12.011   -0.604765   -1.853810    1.532123
  33 H     1.0000    0     1.008   -0.147639   -2.775976    3.350180
  34 C     6.0000    0    12.011    0.225280    0.898991    1.738704
  35 H     1.0000    0     1.008  -11.597581    0.739332    3.361384
  36 C     6.0000    0    12.011    3.139528    0.758269    1.512841
  37 H     1.0000    0     1.008   -0.402116    1.768972    3.508119
  38 H     1.0000    0     1.008   -0.564941    2.025048    0.191451
  39 C     6.0000    0    12.011    3.814972   -1.990612    0.694933
  40 H     1.0000    0     1.008    4.068922    1.240320    3.296473
  41 H     1.0000    0     1.008    3.823881    2.112285    0.100839
  42 H     1.0000    0     1.008    4.234271   -3.101989    2.405953
  43 C     6.0000    0    12.011    6.221007   -2.082467   -0.967557
  44 C     6.0000    0    12.011    0.823958   -2.031213   -3.070690
  45 H     1.0000    0     1.008    1.266325   -0.015830   -3.218251
  46 H     1.0000    0     1.008   -1.152292   -2.269448   -3.631449
  47 H     1.0000    0     1.008    2.000327   -3.033800   -4.447656
  48 H     1.0000    0     1.008    5.847621   -0.891682   -2.636733
  49 C     6.0000    0    12.011    6.883804   -4.737806   -1.885129
  50 C     6.0000    0    12.011    8.352904   -0.835813    0.467855
  51 C     6.0000    0    12.011   10.424435   -1.966668    1.349048
  52 H     1.0000    0     1.008    8.091425    1.175123    0.820991
  53 H     1.0000    0     1.008   10.682134   -3.984198    1.011694
  54 C     6.0000    0    12.011   12.468933   -0.798867    2.970030
  55 C     6.0000    0    12.011   12.122921   -1.806929    5.679542
  56 C     6.0000    0    12.011   12.626961    2.107208    2.852432
  57 H     1.0000    0     1.008   14.295299   -1.528612    2.276095
  58 H     1.0000    0     1.008   10.749294    2.878254    3.307002
  59 C     6.0000    0    12.011   13.388946    2.999810    0.204294
  60 C     6.0000    0    12.011   14.499073    3.170180    4.789708
  61 H     1.0000    0     1.008   10.454758   -0.941729    6.554744
  62 H     1.0000    0     1.008   13.769551   -1.413442    6.865664
  63 H     1.0000    0     1.008   11.833013   -3.856247    5.658101
  64 H     1.0000    0     1.008   12.122374    2.273934   -1.257336
  65 H     1.0000    0     1.008   15.308353    2.347454   -0.233962
  66 H     1.0000    0     1.008   13.386350    5.067388    0.095743
  67 H     1.0000    0     1.008   13.881313    2.854691    6.736498
  68 H     1.0000    0     1.008   14.721429    5.211249    4.523867
  69 H     1.0000    0     1.008   16.366147    2.296183    4.556082
  70 H     1.0000    0     1.008    5.486624   -5.424125   -3.239223
  71 H     1.0000    0     1.008    6.962045   -6.085733   -0.313692
  72 H     1.0000    0     1.008    8.726195   -4.743508   -2.828340

--------------------------------
INTERNAL COORDINATES (ANGSTROEM)
--------------------------------
 C      0   0   0     0.000000000000     0.00000000     0.00000000
 C      1   0   0     1.510527672873     0.00000000     0.00000000
 C      2   1   0     1.533976301097   110.45279680     0.00000000
 H      2   1   3     1.095798120754   110.67485861   237.85485295
 H      2   1   3     1.100088069862   109.83088016   118.70101805
 C      1   2   3     1.479556138705   114.00387963   306.22760501
 C      6   1   2     1.512708497715   114.45898750    49.51610082
 C      3   2   1     1.529713413121   110.12184611    56.87174286
 H      7   6   1     1.095198107705   110.21734351   188.91543330
 H      7   6   1     1.100715768724   108.26010628    72.26291799
 H      8   3   2     1.098527649780   108.30697003    64.29288480
 H      8   3   2     1.096111664424   109.51815164   181.30220828
 O      3   2   1     1.437150310847   110.72299047   292.87387424
 H      3   2   1     1.097010091289   109.48457680   177.31009498
 C      1   2   3     1.354341433104   121.16349960   122.98661250
 C      6   1   2     1.337515837573   123.09880879   231.39534276
 H     16   6   1     1.086708443161   121.33612668   359.06386291
 H     16   6   1     1.087471469367   120.96966179   178.46734182
 C     15   1   2     1.445105548978   126.19128729   185.44045361
 H     15   1   2     1.089287287173   116.25930785     3.19285235
 C     19  15   1     1.349959271365   126.35252654   185.60606262
 H     19  15   1     1.087697553330   115.76652467     6.55865830
 C     21  19  15     1.507288564416   125.65413437     2.63573034
 C     23  21  19     1.540758953316   111.36746685   124.60677469
 H     23  21  19     1.093134701904   112.38935382     1.04765679
 H     23  21  19     1.101540830101   107.91818167   243.10343763
 C     24  23  21     1.534157340541   112.66593128    51.49131013
 H     24  23  21     1.097391199112   108.98888337   289.29903667
 H     24  23  21     1.096906724263   109.12860678   173.37317262
 C     27  24  23     1.535002597934   111.88485014   306.10259398
 H     27  24  23     1.094699410584   108.85315339   182.56996834
 H     27  24  23     1.100419674712   109.17709548    66.13747341
 C     21  19  15     1.497784188523   122.95346459   180.82782355
 H     33  21  19     1.105548471624   106.27478979   127.04640071
 C     33  21  19     1.525423332904   121.14199439     4.57600067
 H     13   3   2     0.967760153057   107.63289952    42.43601029
 C     35  33  21     1.548569504840   103.60937559   196.92823023
 H     35  33  21     1.094939352774   112.05472188    74.98954888
 H     35  33  21     1.095594117348   110.85067121   315.35177720
 C     30  27  24     1.554073606194   116.16958359   165.99848892
 H     37  35  33     1.094449231736   111.69954381   248.78549867
 H     37  35  33     1.096744142799   110.48721447   130.21076601
 H     40  30  27     1.102234587589   106.61461181   320.41651489
 C     40  30  27     1.548358092754   118.93019002    80.68797484
 C     30  27  24     1.535325907993   111.13211299   294.05922248
 H     45  30  27     1.094671898445   111.70037118   186.39240075
 H     45  30  27     1.094356942575   111.46630582    66.37566921
 H     45  30  27     1.095417659075   110.68821011   306.30944453
 H     44  40  30     1.102866374434   106.84606869    62.55864453
 C     44  40  30     1.527486218644   113.47245002   303.41172988
 C     44  40  30     1.511589840185   108.33028596   177.14158729
 C     51  44  40     1.333124802122   126.41013603   113.51789474
 H     51  44  40     1.089249230247   114.69397258   294.96365827
 H     52  51  44     1.091009781085   119.00025778     0.97091871
 C     52  51  44     1.512680156929   127.09098255   185.43518360
 C     55  52  51     1.540748250663   107.53377231   105.36308724
 C     55  52  51     1.541357410893   115.05593941   338.59641452
 H     55  52  51     1.103647007795   107.13969470   220.10379426
 H     57  55  52     1.100736977103   108.18178412    54.28540196
 C     57  55  52     1.532787824378   111.01660843   294.91735927
 C     57  55  52     1.532582635938   111.97806568   172.61284277
 H     56  55  52     1.096982641939   110.12187816   287.50258076
 H     56  55  52     1.093888567138   111.92562090   166.56818323
 H     56  55  52     1.095308671757   110.47490085    46.41101774
 H     60  57  55     1.093165585834   112.16594291    55.42489262
 H     60  57  55     1.097549873586   109.85889714   295.42250446
 H     60  57  55     1.095623014523   110.81422428   176.52167159
 H     61  57  55     1.093638163879   112.38680149   294.02486315
 H     61  57  55     1.095547354825   110.20510051   173.93035376
 H     61  57  55     1.097888686198   110.59624222    54.94471150
 H     50  44  40     1.091788754979   111.04745889    68.29738919
 H     50  44  40     1.096360508388   111.47262708   307.97960643
 H     50  44  40     1.095292485258   110.59632729   187.71726521

---------------------------
INTERNAL COORDINATES (A.U.)
---------------------------
 C      0   0   0     0.000000000000     0.00000000     0.00000000
 C      1   0   0     2.854483619439     0.00000000     0.00000000
 C      2   1   0     2.898795104998   110.45279680     0.00000000
 H      2   1   3     2.070758346290   110.67485861   237.85485295
 H      2   1   3     2.078865175233   109.83088016   118.70101805
 C      1   2   3     2.795955901914   114.00387963   306.22760501
 C      6   1   2     2.858604781136   114.45898750    49.51610082
 C      3   2   1     2.890739414185   110.12184611    56.87174286
 H      7   6   1     2.069624485951   110.21734351   188.91543330
 H      7   6   1     2.080051354177   108.26010628    72.26291799
 H      8   3   2     2.075916408623   108.30697003    64.29288480
 H      8   3   2     2.071350857959   109.51815164   181.30220828
 O      3   2   1     2.715820500781   110.72299047   292.87387424
 H      3   2   1     2.073048638685   109.48457680   177.31009498
 C      1   2   3     2.559334400389   121.16349960   122.98661250
 C      6   1   2     2.527538632795   123.09880879   231.39534276
 H     16   6   1     2.053581344994   121.33612668   359.06386291
 H     16   6   1     2.055023255556   120.96966179   178.46734182
 C     15   1   2     2.730853722178   126.19128729   185.44045361
 H     15   1   2     2.058454653919   116.25930785     3.19285235
 C     19  15   1     2.551053314827   126.35252654   185.60606262
 H     19  15   1     2.055450492331   115.76652467     6.55865830
 C     21  19  15     2.848362591537   125.65413437     2.63573034
 C     23  21  19     2.911612460155   111.36746685   124.60677469
 H     23  21  19     2.065725214084   112.38935382     1.04765679
 H     23  21  19     2.081610494223   107.91818167   243.10343763
 C     24  23  21     2.899137219967   112.66593128    51.49131013
 H     24  23  21     2.073768828097   108.98888337   289.29903667
 H     24  23  21     2.072853303315   109.12860678   173.37317262
 C     27  24  23     2.900734524953   111.88485014   306.10259398
 H     27  24  23     2.068682084969   108.85315339   182.56996834
 H     27  24  23     2.079491817584   109.17709548    66.13747341
 C     21  19  15     2.830401924026   122.95346459   180.82782355
 H     33  21  19     2.089183839145   106.27478979   127.04640071
 C     33  21  19     2.882632337482   121.14199439     4.57600067
 H     13   3   2     1.828801652600   107.63289952    42.43601029
 C     35  33  21     2.926372263490   103.60937559   196.92823023
 H     35  33  21     2.069135509996   112.05472188    74.98954888
 H     35  33  21     2.070372835723   110.85067121   315.35177720
 C     30  27  24     2.936773507662   116.16958359   165.99848892
 H     37  35  33     2.068209315461   111.69954381   248.78549867
 H     37  35  33     2.072546068873   110.48721447   130.21076601
 H     40  30  27     2.082921505879   106.61461181   320.41651489
 C     40  30  27     2.925972752546   118.93019002    80.68797484
 C     30  27  24     2.901345492421   111.13211299   294.05922248
 H     45  30  27     2.068630094561   111.70037118   186.39240075
 H     45  30  27     2.068034914221   111.46630582    66.37566921
 H     45  30  27     2.070039377913   110.68821011   306.30944453
 H     44  40  30     2.084115409990   106.84606869    62.55864453
 C     44  40  30     2.886530626577   113.47245002   303.41172988
 C     44  40  30     2.856490824767   108.33028596   177.14158729
 C     51  44  40     2.519240778348   126.41013603   113.51789474
 H     51  44  40     2.058382736752   114.69397258   294.96365827
 H     52  51  44     2.061709695681   119.00025778     0.97091871
 C     52  51  44     2.858551224812   127.09098255   185.43518360
 C     55  52  51     2.911592235071   107.53377231   105.36308724
 C     55  52  51     2.912743381078   115.05593941   338.59641452
 H     55  52  51     2.085590593254   107.13969470   220.10379426
 H     57  55  52     2.080091432206   108.18178412    54.28540196
 C     57  55  52     2.896549209483   111.01660843   294.91735927
 C     57  55  52     2.896161459525   111.97806568   172.61284277
 H     56  55  52     2.072996766929   110.12187816   287.50258076
 H     56  55  52     2.067149812918   111.92562090   166.56818323
 H     56  55  52     2.069833421730   110.47490085    46.41101774
 H     60  57  55     2.065783576253   112.16594291    55.42489262
 H     60  57  55     2.074068679397   109.85889714   295.42250446
 H     60  57  55     2.070427443469   110.81422428   176.52167159
 H     61  57  55     2.066676619336   112.38680149   294.02486315
 H     61  57  55     2.070284467362   110.20510051   173.93035376
 H     61  57  55     2.074708942445   110.59624222    54.94471150
 H     50  44  40     2.063181743004   111.04745889    68.29738919
 H     50  44  40     2.071821104901   111.47262708   307.97960643
 H     50  44  40     2.069802833679   110.59632729   187.71726521

---------------------
BASIS SET INFORMATION
---------------------
There are 3 groups of distinct atoms

 Group   1 Type C   : 7s4p contracted to 4s3p pattern {4111/211}
 Group   2 Type H   : 5s contracted to 3s pattern {311}
 Group   3 Type O   : 7s4p contracted to 4s3p pattern {4111/211}

Atom   0C    basis set group =>   1
Atom   1C    basis set group =>   1
Atom   2C    basis set group =>   1
Atom   3H    basis set group =>   2
Atom   4H    basis set group =>   2
Atom   5C    basis set group =>   1
Atom   6C    basis set group =>   1
Atom   7C    basis set group =>   1
Atom   8H    basis set group =>   2
Atom   9H    basis set group =>   2
Atom  10H    basis set group =>   2
Atom  11H    basis set group =>   2
Atom  12O    basis set group =>   3
Atom  13H    basis set group =>   2
Atom  14C    basis set group =>   1
Atom  15C    basis set group =>   1
Atom  16H    basis set group =>   2
Atom  17H    basis set group =>   2
Atom  18C    basis set group =>   1
Atom  19H    basis set group =>   2
Atom  20C    basis set group =>   1
Atom  21H    basis set group =>   2
Atom  22C    basis set group =>   1
Atom  23C    basis set group =>   1
Atom  24H    basis set group =>   2
Atom  25H    basis set group =>   2
Atom  26C    basis set group =>   1
Atom  27H    basis set group =>   2
Atom  28H    basis set group =>   2
Atom  29C    basis set group =>   1
Atom  30H    basis set group =>   2
Atom  31H    basis set group =>   2
Atom  32C    basis set group =>   1
Atom  33H    basis set group =>   2
Atom  34C    basis set group =>   1
Atom  35H    basis set group =>   2
Atom  36C    basis set group =>   1
Atom  37H    basis set group =>   2
Atom  38H    basis set group =>   2
Atom  39C    basis set group =>   1
Atom  40H    basis set group =>   2
Atom  41H    basis set group =>   2
Atom  42H    basis set group =>   2
Atom  43C    basis set group =>   1
Atom  44C    basis set group =>   1
Atom  45H    basis set group =>   2
Atom  46H    basis set group =>   2
Atom  47H    basis set group =>   2
Atom  48H    basis set group =>   2
Atom  49C    basis set group =>   1
Atom  50C    basis set group =>   1
Atom  51C    basis set group =>   1
Atom  52H    basis set group =>   2
Atom  53H    basis set group =>   2
Atom  54C    basis set group =>   1
Atom  55C    basis set group =>   1
Atom  56C    basis set group =>   1
Atom  57H    basis set group =>   2
Atom  58H    basis set group =>   2
Atom  59C    basis set group =>   1
Atom  60C    basis set group =>   1
Atom  61H    basis set group =>   2
Atom  62H    basis set group =>   2
Atom  63H    basis set group =>   2
Atom  64H    basis set group =>   2
Atom  65H    basis set group =>   2
Atom  66H    basis set group =>   2
Atom  67H    basis set group =>   2
Atom  68H    basis set group =>   2
Atom  69H    basis set group =>   2
Atom  70H    basis set group =>   2
Atom  71H    basis set group =>   2
Atom  72H    basis set group =>   2

-------------------------
BASIS SET IN INPUT FORMAT
-------------------------

 # Basis set for element : H 
 NewGTO H 
 S 3 
   1    1357.7500000000      0.0012928364
   2      54.3100000000      0.0588280685
   3       4.3448000000      0.9761499708
 S 1 
   1       0.6604910000      1.0000000000
 S 1 
   1       0.1366870000      1.0000000000
  end;

 # Basis set for element : C 
 NewGTO C 
 S 4 
   1  139534.0000000000      0.0001655246
   2    5581.3600000000      0.0074486101
   3     446.5090000000      0.1285821065
   4      67.4620000000      0.9218029311
 S 1 
   1      15.0674000000      1.0000000000
 S 1 
   1       3.9387600000      1.0000000000
 S 1 
   1       0.2999150000      1.0000000000
 P 2 
   1      28.3900000000      0.0816325586
   2       4.3676900000      0.9660360576
 P 1 
   1       0.8698170000      1.0000000000
 P 1 
   1       0.1889340000      1.0000000000
  end;

 # Basis set for element : O 
 NewGTO O 
 S 4 
   1  253789.0000000000      0.0001641076
   2   10151.6000000000      0.0074010921
   3     812.1250000000      0.1277711901
   4     122.6930000000      0.9223372164
 S 1 
   1      27.5608000000      1.0000000000
 S 1 
   1       7.3172600000      1.0000000000
 S 1 
   1       0.5792400000      1.0000000000
 P 2 
   1      53.4157000000      0.0793786106
   2       8.2177900000      0.9670506337
 P 1 
   1       1.6754400000      1.0000000000
 P 1 
   1       0.3506720000      1.0000000000
  end;

---------------------------------
AUXILIARY/J BASIS SET INFORMATION
---------------------------------
There are 3 groups of distinct atoms

 Group   1 Type C   : 12s5p4d2f1g contracted to 6s4p3d1f1g pattern {711111/2111/211/2/1}
 Group   2 Type H   : 5s2p1d contracted to 3s1p1d pattern {311/2/1}
 Group   3 Type O   : 12s5p4d2f1g contracted to 6s4p3d1f1g pattern {711111/2111/211/2/1}

Atom   0C    basis set group =>   1
Atom   1C    basis set group =>   1
Atom   2C    basis set group =>   1
Atom   3H    basis set group =>   2
Atom   4H    basis set group =>   2
Atom   5C    basis set group =>   1
Atom   6C    basis set group =>   1
Atom   7C    basis set group =>   1
Atom   8H    basis set group =>   2
Atom   9H    basis set group =>   2
Atom  10H    basis set group =>   2
Atom  11H    basis set group =>   2
Atom  12O    basis set group =>   3
Atom  13H    basis set group =>   2
Atom  14C    basis set group =>   1
Atom  15C    basis set group =>   1
Atom  16H    basis set group =>   2
Atom  17H    basis set group =>   2
Atom  18C    basis set group =>   1
Atom  19H    basis set group =>   2
Atom  20C    basis set group =>   1
Atom  21H    basis set group =>   2
Atom  22C    basis set group =>   1
Atom  23C    basis set group =>   1
Atom  24H    basis set group =>   2
Atom  25H    basis set group =>   2
Atom  26C    basis set group =>   1
Atom  27H    basis set group =>   2
Atom  28H    basis set group =>   2
Atom  29C    basis set group =>   1
Atom  30H    basis set group =>   2
Atom  31H    basis set group =>   2
Atom  32C    basis set group =>   1
Atom  33H    basis set group =>   2
Atom  34C    basis set group =>   1
Atom  35H    basis set group =>   2
Atom  36C    basis set group =>   1
Atom  37H    basis set group =>   2
Atom  38H    basis set group =>   2
Atom  39C    basis set group =>   1
Atom  40H    basis set group =>   2
Atom  41H    basis set group =>   2
Atom  42H    basis set group =>   2
Atom  43C    basis set group =>   1
Atom  44C    basis set group =>   1
Atom  45H    basis set group =>   2
Atom  46H    basis set group =>   2
Atom  47H    basis set group =>   2
Atom  48H    basis set group =>   2
Atom  49C    basis set group =>   1
Atom  50C    basis set group =>   1
Atom  51C    basis set group =>   1
Atom  52H    basis set group =>   2
Atom  53H    basis set group =>   2
Atom  54C    basis set group =>   1
Atom  55C    basis set group =>   1
Atom  56C    basis set group =>   1
Atom  57H    basis set group =>   2
Atom  58H    basis set group =>   2
Atom  59C    basis set group =>   1
Atom  60C    basis set group =>   1
Atom  61H    basis set group =>   2
Atom  62H    basis set group =>   2
Atom  63H    basis set group =>   2
Atom  64H    basis set group =>   2
Atom  65H    basis set group =>   2
Atom  66H    basis set group =>   2
Atom  67H    basis set group =>   2
Atom  68H    basis set group =>   2
Atom  69H    basis set group =>   2
Atom  70H    basis set group =>   2
Atom  71H    basis set group =>   2
Atom  72H    basis set group =>   2

-------------------------------------
AUXILIARY/J BASIS SET IN INPUT FORMAT
-------------------------------------

 # Auxiliary/J basis set for element : H 
 NewAuxJGTO H 
 S 3 
   1      15.6752927000      0.1007184237
   2       3.6063578000      0.3404257499
   3       1.2080016000      0.6491996172
 S 1 
   1       0.4726794000      1.0000000000
 S 1 
   1       0.2018100000      1.0000000000
 P 2 
   1       2.0281365000      0.5596620919
   2       0.5358730000      0.5596620919
 D 1 
   1       2.2165124000      1.0000000000
  end;

 # Auxiliary/J basis set for element : C 
 NewAuxJGTO C 
 S 7 
   1    1861.0916331000      0.0134602335
   2     642.9939764000      0.0299160374
   3     235.1105725000      0.1008649584
   4      90.7028894000      0.2370970548
   5      36.7794552000      0.3924037254
   6      15.6046273000      0.3195862154
   7       6.8907294000      0.0530104441
 S 1 
   1       3.1478850000     -1.0000000000
 S 1 
   1       1.4777287000      1.0000000000
 S 1 
   1       0.7076466000      1.0000000000
 S 1 
   1       0.3430122000      1.0000000000
 S 1 
   1       0.1669453000      1.0000000000
 P 2 
   1      13.5472892000     -0.6769313712
   2       5.4669419000     -0.3779500978
 P 1 
   1       2.1751721000      1.0000000000
 P 1 
   1       0.8582194000      1.0000000000
 P 1 
   1       0.3376720000      1.0000000000
 D 2 
   1       5.9287253000     -0.3533329857
   2       1.9809209000     -0.7456525731
 D 1 
   1       0.8055417000     -1.0000000000
 D 1 
   1       0.3531244000     -1.0000000000
 F 2 
   1       1.6755626000      0.6311076882
   2       0.5997536000      0.4968166032
 G 1 
   1       1.0024600000     -1.0000000000
  end;

 # Auxiliary/J basis set for element : O 
 NewAuxJGTO O 
 S 7 
   1    2876.8216605000      0.0168151159
   2    1004.7443032000      0.0340137548
   3     369.7579954000      0.1194951309
   4     142.9442404000      0.2664627624
   5      57.8366425000      0.4202764046
   6      24.3864983000      0.2765077335
   7      10.6622662000      0.0057008815
 S 1 
   1       4.8070437000     -1.0000000000
 S 1 
   1       2.2210770000      1.0000000000
 S 1 
   1       1.0447795000      1.0000000000
 S 1 
   1       0.4968425000      1.0000000000
 S 1 
   1       0.2371384000      1.0000000000
 P 2 
   1      64.2613382000     -0.2731534179
   2      16.3006076000     -0.8168011598
 P 1 
   1       4.3550542000      1.0000000000
 P 1 
   1       1.2019554000      1.0000000000
 P 1 
   1       0.3354196000      1.0000000000
 D 2 
   1       9.2146611000     -0.4661230638
   2       2.8435251000     -0.6600908911
 D 1 
   1       0.9955759000     -1.0000000000
 D 1 
   1       0.3649441000     -1.0000000000
 F 2 
   1       2.6420115000      0.5931563945
   2       0.7345613000      0.5931563945
 G 1 
   1       1.3931000000     -1.0000000000
  end;



           ************************************************************
           *        Program running with 4 parallel MPI-processes     *
           *              working on a common directory               *
           ************************************************************
------------------------------------------------------------------------------
                           ORCA GTO INTEGRAL CALCULATION
                           -- RI-GTO INTEGRALS CHOSEN --
------------------------------------------------------------------------------
------------------------------------------------------------------------------
                   ___                                                        
                  /   \      - P O W E R E D   B Y -                         
                 /     \                                                     
                 |  |  |   _    _      __       _____    __    __             
                 |  |  |  | |  | |    /  \     |  _  \  |  |  /  |          
                  \  \/   | |  | |   /    \    | | | |  |  | /  /          
                 / \  \   | |__| |  /  /\  \   | |_| |  |  |/  /          
                |  |  |   |  __  | /  /__\  \  |    /   |      \           
                |  |  |   | |  | | |   __   |  |    \   |  |\   \          
                \     /   | |  | | |  |  |  |  | |\  \  |  | \   \       
                 \___/    |_|  |_| |__|  |__|  |_| \__\ |__|  \__/        
                                                                              
                      - O R C A' S   B I G   F R I E N D -                    
                                      &                                       
                       - I N T E G R A L  F E E D E R -                       
                                                                              
 v1 FN, 2020, v2 2021                                                         
------------------------------------------------------------------------------


Reading SHARK input file inpJ.SHARKINP.tmp ... ok
----------------------
SHARK INTEGRAL PACKAGE
----------------------

Number of atoms                             ...     73
Number of basis functions                   ...    509
Number of shells                            ...    335
Maximum angular momentum                    ...      1
Integral batch strategy                     ... SHARK/LIBINT Hybrid
RI-J (if used) integral strategy            ... SPLIT-RIJ (Revised 2003 algorithm where possible)
Printlevel                                  ...      1
Contraction scheme used                     ... SEGMENTED contraction
Coulomb Range Separation                    ... NOT USED
Exchange Range Separation                   ... NOT USED
Finite Nucleus Model                        ... NOT USED
Auxiliary Coulomb fitting basis             ... AVAILABLE
   # of basis functions in Aux-J            ...   1905
   # of shells in Aux-J                     ...    655
   Maximum angular momentum in Aux-J        ...      4
Auxiliary J/K fitting basis                 ... NOT available
Auxiliary Correlation fitting basis         ... NOT available
Auxiliary 'external' fitting basis          ... NOT available
Integral threshold                          ...     3.000000e-11
Primitive cut-off                           ...     1.000000e-12
Primitive pair pre-selection threshold      ...     1.000000e-12

Calculating pre-screening integrals         ... done (  0.0 sec) Dimension = 335
Organizing shell pair data                  ... done (  0.1 sec)
Shell pair information
Total number of shell pairs                 ...     56280
Shell pairs after pre-screening             ...     21844
Total number of primitive shell pairs       ...    145865
Primitive shell pairs kept                  ...     37547
          la=0 lb=0:  10977 shell pairs
          la=1 lb=0:   8990 shell pairs
          la=1 lb=1:   1877 shell pairs

Calculating one electron integrals          ... done (  0.0 sec)
Calculating RI/J V-Matrix + Cholesky decomp.... done (  0.1 sec)
Calculating Nuclear repulsion               ... done (  0.0 sec) ENN=   2785.205381965402 Eh

SHARK setup successfully completed in   0.5 seconds

Maximum memory used throughout the entire GTOINT-calculation: 46.3 MB


           ************************************************************
           *        Program running with 4 parallel MPI-processes     *
           *              working on a common directory               *
           ************************************************************
-------------------------------------------------------------------------------
                                 ORCA SCF
-------------------------------------------------------------------------------

------------
SCF SETTINGS
------------
Hamiltonian:
 Density Functional     Method          .... DFT(GTOs)
 Exchange Functional    Exchange        .... PBE
   PBE kappa parameter   XKappa         ....  0.804000
   PBE mue parameter    XMuePBE         ....  0.219520
 Correlation Functional Correlation     .... PBE
   PBE beta parameter  CBetaPBE         ....  0.066725
 LDA part of GGA corr.  LDAOpt          .... PW91-LDA
 Gradients option       PostSCFGGA      .... off
 Hybrid DFT is turned on
   Fraction HF Exchange ScalHFX         ....  0.250000
   Scaling of DF-GGA-X  ScalDFX         ....  0.750000
   Scaling of DF-GGA-C  ScalDFC         ....  1.000000
   Scaling of DF-LDA-C  ScalLDAC        ....  1.000000
   Perturbative correction              ....  0.000000
   Density functional embedding theory  .... OFF
   NL short-range parameter             ....  6.900000
 RI-approximation to the Coulomb term is turned on
   Number of AuxJ basis functions       .... 1905
   RIJ-COSX (HFX calculated with COS-X)).... on


General Settings:
 Integral files         IntName         .... inpJ
 Hartree-Fock type      HFTyp           .... RHF
 Total Charge           Charge          ....    0
 Multiplicity           Mult            ....    1
 Number of Electrons    NEL             ....  220
 Basis Dimension        Dim             ....  509
 Nuclear Repulsion      ENuc            ....   2785.2053819654 Eh

Convergence Acceleration:
 DIIS                   CNVDIIS         .... on
   Start iteration      DIISMaxIt       ....    12
   Startup error        DIISStart       ....  0.200000
   # of expansion vecs  DIISMaxEq       ....     5
   Bias factor          DIISBfac        ....   1.050
   Max. coefficient     DIISMaxC        ....  10.000
 Trust-Rad. Augm. Hess. CNVTRAH         .... auto
   Auto Start mean grad. ratio tolernc. ....  1.125000
   Auto Start start iteration           ....    20
   Auto Start num. interpolation iter.  ....    10
   Max. Number of Micro iterations      ....    16
   Max. Number of Macro iterations      .... Maxiter - #DIIS iter
   Number of Davidson start vectors     ....     2
   Converg. threshold I  (grad. norm)   ....   1.000e-04
   Converg. threshold II (energy diff.) ....   1.000e-07
   Grad. Scal. Fac. for Micro threshold ....   0.100
   Minimum threshold for Micro iter.    ....   0.010
   NR start threshold (gradient norm)   ....   0.001
   Initial trust radius                 ....   0.400
   Minimum AH scaling param. (alpha)    ....   1.000
   Maximum AH scaling param. (alpha)    .... 1000.000
   Orbital update algorithm             .... Taylor
   White noise on init. David. guess    .... on
   Maximum white noise                  ....   0.010
   Quad. conv. algorithm                .... NR
 SOSCF                  CNVSOSCF        .... off
 Level Shifting         CNVShift        .... on
   Level shift para.    LevelShift      ....    0.2500
   Turn off err/grad.   ShiftErr        ....    0.0010
 Zerner damping         CNVZerner       .... off
 Static damping         CNVDamp         .... on
   Fraction old density DampFac         ....    0.7000
   Max. Damping (<1)    DampMax         ....    0.9800
   Min. Damping (>=0)   DampMin         ....    0.0000
   Turn off err/grad.   DampErr         ....    0.1000
 Fernandez-Rico         CNVRico         .... off

SCF Procedure:
 Maximum # iterations   MaxIter         ....   125
 SCF integral mode      SCFMode         .... Direct
   Integral package                     .... SHARK and LIBINT hybrid scheme
 Reset frequency        DirectResetFreq ....    20
 Integral Threshold     Thresh          ....  3.000e-11 Eh
 Primitive CutOff       TCut            ....  1.000e-12 Eh

Convergence Tolerance:
 Convergence Check Mode ConvCheckMode   .... Total+1el-Energy
 Convergence forced     ConvForced      .... 0
 Energy Change          TolE            ....  1.000e-07 Eh
 1-El. energy change                    ....  1.000e-04 Eh
 DIIS Error             TolErr          ....  1.000e-07


Diagonalization of the overlap matrix:
Smallest eigenvalue                        ... 7.576e-03
Time for diagonalization                   ...    0.030 sec
Threshold for overlap eigenvalues          ... 1.000e-08
Number of eigenvalues below threshold      ... 0
Time for construction of square roots      ...    0.026 sec
Total time needed                          ...    0.057 sec

Time for model grid setup =    0.711 sec

------------------------------
INITIAL GUESS: MODEL POTENTIAL
------------------------------
Loading Hartree-Fock densities                     ... done
Calculating cut-offs                               ... done
Initializing the effective Hamiltonian             ... done
Setting up the integral package (SHARK)            ... done
Starting the Coulomb interaction                   ... done (   0.4 sec)
Reading the grid                                   ... done
Mapping shells                                     ... done
Starting the XC term evaluation                    ... done (   0.1 sec)
  promolecular density results
     # of electrons  =    219.977619464
     EX              =   -164.434049808
     EC              =     -7.329144790
     EX+EC           =   -171.763194599
Transforming the Hamiltonian                       ... done (   0.0 sec)
Diagonalizing the Hamiltonian                      ... done (   0.0 sec)
Back transforming the eigenvectors                 ... done (   0.0 sec)
Now organizing SCF variables                       ... done
                      ------------------
                      INITIAL GUESS DONE (   1.3 sec)
                      ------------------
-------------------
DFT GRID GENERATION
-------------------

General Integration Accuracy     IntAcc      ... 4.388
Radial Grid Type                 RadialGrid  ... OptM3 with GC (2021)
Angular Grid (max. ang.)         AngularGrid ... 4 (Lebedev-302)
Angular grid pruning method      GridPruning ... 4 (adaptive)
Weight generation scheme         WeightScheme... Becke
Basis function cutoff            BFCut       ... 1.0000e-11
Integration weight cutoff        WCut        ... 1.0000e-14
Angular grids for H and He will be reduced by one unit
Partially contracted basis set               ... off
Rotationally invariant grid construction     ... off

Total number of grid points                  ...   309801
Total number of batches                      ...     4876
Average number of points per batch           ...       63
Average number of grid points per atom       ...     4244
Time for grid setup =    2.740 sec

--------------------
COSX GRID GENERATION
--------------------

GRIDX 1
-------
General Integration Accuracy     IntAcc      ... 3.816
Radial Grid Type                 RadialGrid  ... OptM3 with GC (2021)
Angular Grid (max. ang.)         AngularGrid ... 1 (Lebedev-50)
Angular grid pruning method      GridPruning ... 4 (adaptive)
Weight generation scheme         WeightScheme... Becke
Basis function cutoff            BFCut       ... 1.0000e-11
Integration weight cutoff        WCut        ... 1.0000e-14
Angular grids for H and He will be reduced by one unit
Partially contracted basis set               ... on
Rotationally invariant grid construction     ... off

Total number of grid points                  ...    39389
Total number of batches                      ...      660
Average number of points per batch           ...       59
Average number of grid points per atom       ...      540
UseSFitting                                  ... on

GRIDX 2
-------
General Integration Accuracy     IntAcc      ... 4.020
Radial Grid Type                 RadialGrid  ... OptM3 with GC (2021)
Angular Grid (max. ang.)         AngularGrid ... 2 (Lebedev-110)
Angular grid pruning method      GridPruning ... 4 (adaptive)
Weight generation scheme         WeightScheme... Becke
Basis function cutoff            BFCut       ... 1.0000e-11
Integration weight cutoff        WCut        ... 1.0000e-14
Angular grids for H and He will be reduced by one unit
Partially contracted basis set               ... on
Rotationally invariant grid construction     ... off

Total number of grid points                  ...    81334
Total number of batches                      ...     1307
Average number of points per batch           ...       62
Average number of grid points per atom       ...     1114
UseSFitting                                  ... on

GRIDX 3
-------
General Integration Accuracy     IntAcc      ... 4.338
Radial Grid Type                 RadialGrid  ... OptM3 with GC (2021)
Angular Grid (max. ang.)         AngularGrid ... 3 (Lebedev-194)
Angular grid pruning method      GridPruning ... 4 (adaptive)
Weight generation scheme         WeightScheme... Becke
Basis function cutoff            BFCut       ... 1.0000e-11
Integration weight cutoff        WCut        ... 1.0000e-14
Angular grids for H and He will be reduced by one unit
Partially contracted basis set               ... on
Rotationally invariant grid construction     ... off

Total number of grid points                  ...   176131
Total number of batches                      ...     2789
Average number of points per batch           ...       63
Average number of grid points per atom       ...     2413
UseSFitting                                  ... on

Time for X-Grid setup             =    2.788 sec


--------------------
CPCM SOLVATION MODEL
--------------------
CPCM parameters:
  Epsilon                                         ...       4.9000
  Refrac                                          ...       1.4500
  Rsolv                                           ...       1.3000
  Surface type                                    ... GAUSSIAN VDW
  Epsilon function type                           ...         CPCM
Radii:
 Radius for C  used is    3.8550 Bohr (=   2.0400 Ang.)
 Radius for H  used is    2.4944 Bohr (=   1.3200 Ang.)
 Radius for O  used is    3.4469 Bohr (=   1.8240 Ang.)
Calculating surface                               ...        done! (  0.0s)
GEPOL surface points                              ...         3599
GEPOL Volume                                      ...    3601.9650
GEPOL Surface-area                                ...    1771.7194
Calculating surface distance matrix               ...        done! (  0.2s)
Performing Cholesky decomposition & store         ...        done! (  0.5s)
Overall time for CPCM initialization              ...                 0.7s
--------------
SCF ITERATIONS
--------------
ITER       Energy         Delta-E        Max-DP      RMS-DP      [F,P]     Damp
               ***  Starting incremental Fock matrix formation  ***

  HOMO= 109 E= -3.980 eV LUMO=  7.697 eV gap=  11.677 eV
  0  -1165.0093463393   0.000000000000 0.09724548  0.00106510  0.1965293 0.7000

  HOMO= 109 E= -4.848 eV LUMO=  7.013 eV gap=  11.860 eV
  1  -1165.2279894372  -0.218643097857 0.06523602  0.00078404  0.0951616 0.7000
                               ***Turning on DIIS***

  HOMO= 109 E= -5.447 eV LUMO=  6.464 eV gap=  11.911 eV
  2  -1165.3287636856  -0.100774248469 0.10342421  0.00138831  0.0375553 0.0000

  HOMO= 109 E= -6.005 eV LUMO=  5.934 eV gap=  11.939 eV
  3  -1165.4729349555  -0.144171269890 0.05141704  0.00057242  0.0459740 0.0000

  HOMO= 109 E= -6.073 eV LUMO=  5.864 eV gap=  11.937 eV
  4  -1165.5084606479  -0.035525692377 0.01161978  0.00013441  0.0059034 0.0000

  HOMO= 109 E= -6.023 eV LUMO=  5.921 eV gap=  11.944 eV
  5  -1165.5093189534  -0.000858305461 0.00250821  0.00003802  0.0051729 0.0000

  HOMO= 109 E= -6.009 eV LUMO=  5.936 eV gap=  11.945 eV
  6  -1165.5093984798  -0.000079526399 0.00117197  0.00001172  0.0010548 0.0000

  HOMO= 109 E= -6.011 eV LUMO= -0.869 eV gap=   5.142 eV
  7  -1165.5094035652  -0.000005085410 0.00051002  0.00000601  0.0002360 0.0000
               *** Restarting incremental Fock matrix formation ***
                                   *** Resetting DIIS ***

  HOMO= 109 E= -6.010 eV LUMO= -0.867 eV gap=   5.143 eV
  8  -1165.5094827158  -0.000079150597 0.00037818  0.00000290  0.0001186 0.0000

  HOMO= 109 E= -6.011 eV LUMO= -0.868 eV gap=   5.143 eV
  9  -1165.5094827477  -0.000000031961 0.00013682  0.00000132  0.0001607 0.0000

  HOMO= 109 E= -6.011 eV LUMO= -0.868 eV gap=   5.143 eV
 10  -1165.5094828780  -0.000000130260 0.00006597  0.00000041  0.0000355 0.0000

  HOMO= 109 E= -6.011 eV LUMO= -0.868 eV gap=   5.143 eV
 11  -1165.5094829083  -0.000000030275 0.00002674  0.00000018  0.0000204 0.0000

  HOMO= 109 E= -6.011 eV LUMO= -0.868 eV gap=   5.143 eV
 12  -1165.5094828974   0.000000010888 0.00000740  0.00000005  0.0000036 0.0000
                 **** Energy Check signals convergence ****

               *****************************************************
               *                     SUCCESS                       *
               *           SCF CONVERGED AFTER  13 CYCLES          *
               *****************************************************

Old exchange energy                            =    -42.067966184 Eh
New exchange energy                            =    -42.067945751 Eh
Exchange energy change after final integration =      0.000020433 Eh
Total energy after final integration           =  -1165.509462472 Eh
Final COS-X integration done in                =    13.160 sec

----------------
TOTAL SCF ENERGY
----------------

Total Energy       :        -1165.50946247 Eh          -31715.12484 eV

Components:
Nuclear Repulsion  :         2785.20538197 Eh           75789.29150 eV
Electronic Energy  :        -3950.71484444 Eh         -107504.41634 eV
One Electron Energy:        -7112.08200729 Eh         -193529.59027 eV
Two Electron Energy:         3161.36716285 Eh           86025.17394 eV
Max COSX asymmetry :            0.00000228 Eh               0.00006 eV
CPCM Dielectric    :           -0.01344831 Eh              -0.36595 eV

Virial components:
Potential Energy   :        -2322.40594875 Eh          -63195.87868 eV
Kinetic Energy     :         1156.89648628 Eh           31480.75384 eV
Virial Ratio       :            2.00744490


DFT components:
N(Alpha)           :      110.000146217159 electrons
N(Beta)            :      110.000146217159 electrons
N(Total)           :      220.000292434319 electrons
E(X)               :     -125.746150404184 Eh       
E(C)               :       -7.329278904793 Eh       
E(XC)              :     -133.075429308976 Eh       
DFET-embed. en.    :        0.000000000000 Eh       
CPCM Solvation Model Properties:
Surface-charge          :           -0.03458145
Charge-correction       :           -0.00008178 Eh              -0.00223 eV
Free-energy (cav+disp)  :  This term is not implemented in the current solvation scheme

---------------
SCF CONVERGENCE
---------------

  Last Energy change         ...   -6.9367e-09  Tolerance :   1.0000e-07
  Last MAX-Density change    ...    0.0000e+00  Tolerance :   1.0000e-05
  Last RMS-Density change    ...    0.0000e+00  Tolerance :   1.0000e-06
  Last DIIS Error            ...    2.4442e-06  Tolerance :   1.0000e-07

             **** THE GBW FILE WAS UPDATED (inpJ.gbw) ****
             **** DENSITY inpJ.scfp WAS UPDATED ****
             **** ENERGY FILE WAS UPDATED (inpJ.en.tmp) ****
             **** THE GBW FILE WAS UPDATED (inpJ.gbw) ****
             **** DENSITY inpJ.scfp WAS UPDATED ****
----------------
ORBITAL ENERGIES
----------------

  NO   OCC          E(Eh)            E(eV) 
   0   2.0000     -19.212496      -522.7986 
   1   2.0000     -10.300457      -280.2897 
   2   2.0000     -10.270487      -279.4741 
   3   2.0000     -10.268326      -279.4153 
   4   2.0000     -10.263899      -279.2949 
   5   2.0000     -10.257582      -279.1230 
   6   2.0000     -10.257499      -279.1207 
   7   2.0000     -10.252347      -278.9805 
   8   2.0000     -10.251503      -278.9576 
   9   2.0000     -10.248150      -278.8663 
  10   2.0000     -10.247604      -278.8515 
  11   2.0000     -10.247486      -278.8483 
  12   2.0000     -10.247027      -278.8358 
  13   2.0000     -10.246727      -278.8276 
  14   2.0000     -10.244839      -278.7763 
  15   2.0000     -10.243342      -278.7355 
  16   2.0000     -10.242858      -278.7223 
  17   2.0000     -10.241989      -278.6987 
  18   2.0000     -10.241760      -278.6925 
  19   2.0000     -10.241471      -278.6846 
  20   2.0000     -10.240113      -278.6476 
  21   2.0000     -10.235853      -278.5317 
  22   2.0000     -10.235465      -278.5212 
  23   2.0000     -10.234201      -278.4868 
  24   2.0000     -10.227362      -278.3007 
  25   2.0000     -10.224355      -278.2189 
  26   2.0000     -10.224218      -278.2151 
  27   2.0000     -10.221490      -278.1409 
  28   2.0000     -10.221382      -278.1379 
  29   2.0000      -1.043292       -28.3894 
  30   2.0000      -0.902114       -24.5478 
  31   2.0000      -0.882238       -24.0069 
  32   2.0000      -0.860445       -23.4139 
  33   2.0000      -0.846469       -23.0336 
  34   2.0000      -0.822403       -22.3787 
  35   2.0000      -0.814763       -22.1708 
  36   2.0000      -0.795981       -21.6597 
  37   2.0000      -0.795143       -21.6370 
  38   2.0000      -0.776184       -21.1210 
  39   2.0000      -0.759012       -20.6538 
  40   2.0000      -0.742605       -20.2073 
  41   2.0000      -0.734515       -19.9872 
  42   2.0000      -0.715770       -19.4771 
  43   2.0000      -0.702993       -19.1294 
  44   2.0000      -0.699405       -19.0318 
  45   2.0000      -0.696449       -18.9513 
  46   2.0000      -0.671102       -18.2616 
  47   2.0000      -0.659587       -17.9483 
  48   2.0000      -0.633819       -17.2471 
  49   2.0000      -0.622506       -16.9392 
  50   2.0000      -0.614062       -16.7095 
  51   2.0000      -0.607805       -16.5392 
  52   2.0000      -0.598038       -16.2735 
  53   2.0000      -0.589504       -16.0412 
  54   2.0000      -0.559154       -15.2154 
  55   2.0000      -0.541501       -14.7350 
  56   2.0000      -0.531677       -14.4677 
  57   2.0000      -0.529467       -14.4075 
  58   2.0000      -0.515334       -14.0230 
  59   2.0000      -0.511143       -13.9089 
  60   2.0000      -0.506319       -13.7776 
  61   2.0000      -0.494710       -13.4617 
  62   2.0000      -0.481381       -13.0990 
  63   2.0000      -0.480220       -13.0674 
  64   2.0000      -0.473485       -12.8842 
  65   2.0000      -0.467288       -12.7155 
  66   2.0000      -0.465084       -12.6556 
  67   2.0000      -0.460480       -12.5303 
  68   2.0000      -0.459200       -12.4955 
  69   2.0000      -0.450879       -12.2690 
  70   2.0000      -0.447200       -12.1689 
  71   2.0000      -0.439625       -11.9628 
  72   2.0000      -0.436805       -11.8861 
  73   2.0000      -0.434320       -11.8185 
  74   2.0000      -0.431974       -11.7546 
  75   2.0000      -0.428340       -11.6557 
  76   2.0000      -0.421304       -11.4643 
  77   2.0000      -0.415151       -11.2968 
  78   2.0000      -0.413166       -11.2428 
  79   2.0000      -0.402913       -10.9638 
  80   2.0000      -0.399449       -10.8696 
  81   2.0000      -0.397371       -10.8130 
  82   2.0000      -0.393861       -10.7175 
  83   2.0000      -0.390566       -10.6278 
  84   2.0000      -0.381947       -10.3933 
  85   2.0000      -0.378124       -10.2893 
  86   2.0000      -0.377007       -10.2589 
  87   2.0000      -0.374160       -10.1814 
  88   2.0000      -0.366986        -9.9862 
  89   2.0000      -0.365261        -9.9393 
  90   2.0000      -0.361334        -9.8324 
  91   2.0000      -0.358090        -9.7441 
  92   2.0000      -0.355585        -9.6760 
  93   2.0000      -0.346152        -9.4193 
  94   2.0000      -0.342371        -9.3164 
  95   2.0000      -0.339291        -9.2326 
  96   2.0000      -0.338708        -9.2167 
  97   2.0000      -0.335060        -9.1174 
  98   2.0000      -0.332554        -9.0492 
  99   2.0000      -0.328654        -8.9431 
 100   2.0000      -0.327129        -8.9016 
 101   2.0000      -0.322113        -8.7651 
 102   2.0000      -0.319289        -8.6883 
 103   2.0000      -0.316275        -8.6063 
 104   2.0000      -0.311316        -8.4713 
 105   2.0000      -0.302554        -8.2329 
 106   2.0000      -0.276729        -7.5302 
 107   2.0000      -0.275254        -7.4900 
 108   2.0000      -0.254998        -6.9388 
 109   2.0000      -0.220889        -6.0107 
 110   0.0000      -0.031882        -0.8676 
 111   0.0000       0.019394         0.5277 
 112   0.0000       0.030167         0.8209 
 113   0.0000       0.081879         2.2280 
 114   0.0000       0.091867         2.4998 
 115   0.0000       0.095324         2.5939 
 116   0.0000       0.102018         2.7760 
 117   0.0000       0.105694         2.8761 
 118   0.0000       0.109138         2.9698 
 119   0.0000       0.117227         3.1899 
 120   0.0000       0.120690         3.2841 
 121   0.0000       0.121663         3.3106 
 122   0.0000       0.126510         3.4425 
 123   0.0000       0.131877         3.5886 
 124   0.0000       0.133513         3.6331 
 125   0.0000       0.139393         3.7931 
 126   0.0000       0.140047         3.8109 
 127   0.0000       0.143390         3.9018 
 128   0.0000       0.146006         3.9730 
 129   0.0000       0.149769         4.0754 
 130   0.0000       0.154124         4.1939 
 131   0.0000       0.156237         4.2514 
 132   0.0000       0.158219         4.3054 
 133   0.0000       0.166503         4.5308 
 134   0.0000       0.168767         4.5924 
 135   0.0000       0.174235         4.7412 
 136   0.0000       0.174648         4.7524 
 137   0.0000       0.176384         4.7997 
 138   0.0000       0.178307         4.8520 
 139   0.0000       0.178784         4.8650 
 140   0.0000       0.180205         4.9036 
 141   0.0000       0.185288         5.0419 
 142   0.0000       0.186639         5.0787 
 143   0.0000       0.191073         5.1993 
 144   0.0000       0.193290         5.2597 
 145   0.0000       0.196719         5.3530 
 146   0.0000       0.198800         5.4096 
 147   0.0000       0.201496         5.4830 
 148   0.0000       0.204029         5.5519 
 149   0.0000       0.205324         5.5871 
 150   0.0000       0.210261         5.7215 
 151   0.0000       0.212990         5.7958 
 152   0.0000       0.219473         5.9722 
 153   0.0000       0.222499         6.0545 
 154   0.0000       0.230420         6.2700 
 155   0.0000       0.233839         6.3631 
 156   0.0000       0.238738         6.4964 
 157   0.0000       0.245538         6.6814 
 158   0.0000       0.246415         6.7053 
 159   0.0000       0.249512         6.7896 
 160   0.0000       0.253553         6.8995 
 161   0.0000       0.260073         7.0769 
 162   0.0000       0.262598         7.1457 
 163   0.0000       0.267237         7.2719 
 164   0.0000       0.268182         7.2976 
 165   0.0000       0.272770         7.4224 
 166   0.0000       0.275674         7.5015 
 167   0.0000       0.278630         7.5819 
 168   0.0000       0.283954         7.7268 
 169   0.0000       0.286803         7.8043 
 170   0.0000       0.296000         8.0546 
 171   0.0000       0.301750         8.2110 
 172   0.0000       0.302720         8.2374 
 173   0.0000       0.306471         8.3395 
 174   0.0000       0.310494         8.4490 
 175   0.0000       0.319154         8.6846 
 176   0.0000       0.321301         8.7430 
 177   0.0000       0.338733         9.2174 
 178   0.0000       0.349438         9.5087 
 179   0.0000       0.353311         9.6141 
 180   0.0000       0.363378         9.8880 
 181   0.0000       0.379643        10.3306 
 182   0.0000       0.383049        10.4233 
 183   0.0000       0.410311        11.1651 
 184   0.0000       0.422239        11.4897 
 185   0.0000       0.463445        12.6110 
 186   0.0000       0.486084        13.2270 
 187   0.0000       0.496794        13.5185 
 188   0.0000       0.511628        13.9221 
 189   0.0000       0.517427        14.0799 
 190   0.0000       0.520338        14.1591 
 191   0.0000       0.537601        14.6289 
 192   0.0000       0.551494        15.0069 
 193   0.0000       0.556548        15.1444 
 194   0.0000       0.561132        15.2692 
 195   0.0000       0.571382        15.5481 
 196   0.0000       0.573102        15.5949 
 197   0.0000       0.578138        15.7319 
 198   0.0000       0.586112        15.9489 
 199   0.0000       0.591775        16.1030 
 200   0.0000       0.615027        16.7357 
 201   0.0000       0.618609        16.8332 
 202   0.0000       0.628670        17.1070 
 203   0.0000       0.630062        17.1449 
 204   0.0000       0.640025        17.4160 
 205   0.0000       0.646704        17.5977 
 206   0.0000       0.659582        17.9481 
 207   0.0000       0.663151        18.0453 
 208   0.0000       0.668267        18.1845 
 209   0.0000       0.670801        18.2534 
 210   0.0000       0.679777        18.4977 
 211   0.0000       0.687449        18.7064 
 212   0.0000       0.697481        18.9794 
 213   0.0000       0.702240        19.1089 
 214   0.0000       0.707985        19.2653 
 215   0.0000       0.708852        19.2888 
 216   0.0000       0.715579        19.4719 
 217   0.0000       0.719121        19.5683 
 218   0.0000       0.725940        19.7538 
 219   0.0000       0.727479        19.7957 
 220   0.0000       0.728636        19.8272 
 221   0.0000       0.733726        19.9657 
 222   0.0000       0.736095        20.0302 
 223   0.0000       0.742110        20.1938 
 224   0.0000       0.746717        20.3192 
 225   0.0000       0.748320        20.3628 
 226   0.0000       0.757119        20.6023 
 227   0.0000       0.758546        20.6411 
 228   0.0000       0.762510        20.7490 
 229   0.0000       0.764980        20.8162 
 230   0.0000       0.772617        21.0240 
 231   0.0000       0.777279        21.1508 
 232   0.0000       0.779038        21.1987 
 233   0.0000       0.780115        21.2280 
 234   0.0000       0.791253        21.5311 
 235   0.0000       0.794988        21.6327 
 236   0.0000       0.798220        21.7207 
 237   0.0000       0.810286        22.0490 
 238   0.0000       0.811316        22.0770 
 239   0.0000       0.819391        22.2968 
 240   0.0000       0.821789        22.3620 
 241   0.0000       0.834099        22.6970 
 242   0.0000       0.835662        22.7395 
 243   0.0000       0.848686        23.0939 
 244   0.0000       0.851757        23.1775 
 245   0.0000       0.853937        23.2368 
 246   0.0000       0.856445        23.3051 
 247   0.0000       0.857604        23.3366 
 248   0.0000       0.866689        23.5838 
 249   0.0000       0.867442        23.6043 
 250   0.0000       0.871587        23.7171 
 251   0.0000       0.875299        23.8181 
 252   0.0000       0.877067        23.8662 
 253   0.0000       0.878369        23.9016 
 254   0.0000       0.881152        23.9774 
 255   0.0000       0.882181        24.0054 
 256   0.0000       0.887501        24.1501 
 257   0.0000       0.890829        24.2407 
 258   0.0000       0.892695        24.2915 
 259   0.0000       0.893918        24.3247 
 260   0.0000       0.900570        24.5057 
 261   0.0000       0.902441        24.5567 
 262   0.0000       0.902794        24.5663 
 263   0.0000       0.911036        24.7906 
 264   0.0000       0.913041        24.8451 
 265   0.0000       0.918790        25.0015 
 266   0.0000       0.921599        25.0780 
 267   0.0000       0.926818        25.2200 
 268   0.0000       0.932699        25.3800 
 269   0.0000       0.935253        25.4495 
 270   0.0000       0.937878        25.5210 
 271   0.0000       0.943203        25.6659 
 272   0.0000       0.946315        25.7505 
 273   0.0000       0.953089        25.9349 
 274   0.0000       0.960671        26.1412 
 275   0.0000       0.963491        26.2179 
 276   0.0000       0.968021        26.3412 
 277   0.0000       0.970482        26.4082 
 278   0.0000       0.979170        26.6446 
 279   0.0000       0.982050        26.7229 
 280   0.0000       0.987750        26.8780 
 281   0.0000       0.999335        27.1933 
 282   0.0000       1.004338        27.3294 
 283   0.0000       1.008504        27.4428 
 284   0.0000       1.014722        27.6120 
 285   0.0000       1.018768        27.7221 
 286   0.0000       1.025804        27.9135 
 287   0.0000       1.034821        28.1589 
 288   0.0000       1.053323        28.6624 
 289   0.0000       1.065000        28.9801 
 290   0.0000       1.078254        29.3408 
 291   0.0000       1.082143        29.4466 
 292   0.0000       1.084895        29.5215 
 293   0.0000       1.096587        29.8397 
 294   0.0000       1.104567        30.0568 
 295   0.0000       1.117144        30.3990 
 296   0.0000       1.120092        30.4793 
 297   0.0000       1.133873        30.8543 
 298   0.0000       1.143692        31.1215 
 299   0.0000       1.153213        31.3805 
 300   0.0000       1.168517        31.7970 
 301   0.0000       1.171779        31.8857 
 302   0.0000       1.198025        32.5999 
 303   0.0000       1.203835        32.7580 
 304   0.0000       1.227337        33.3975 
 305   0.0000       1.233257        33.5586 
 306   0.0000       1.241759        33.7900 
 307   0.0000       1.259312        34.2676 
 308   0.0000       1.291311        35.1384 
 309   0.0000       1.304466        35.4963 
 310   0.0000       1.330509        36.2050 
 311   0.0000       1.337774        36.4027 
 312   0.0000       1.345745        36.6196 
 313   0.0000       1.367350        37.2075 
 314   0.0000       1.410230        38.3743 
 315   0.0000       1.525592        41.5135 
 316   0.0000       1.528374        41.5892 
 317   0.0000       1.562092        42.5067 
 318   0.0000       1.591381        43.3037 
 319   0.0000       1.675091        45.5815 
 320   0.0000       6.202080       168.7672 
 321   0.0000       6.232049       169.5827 
 322   0.0000       6.246235       169.9687 
 323   0.0000       6.276883       170.8027 
 324   0.0000       6.280918       170.9125 
 325   0.0000       6.293783       171.2626 
 326   0.0000       6.303281       171.5210 
 327   0.0000       6.317147       171.8983 
 328   0.0000       6.326624       172.1562 
 329   0.0000       6.334948       172.3827 
 330   0.0000       6.341874       172.5712 
 331   0.0000       6.350864       172.8158 
 332   0.0000       6.362096       173.1214 
 333   0.0000       6.380620       173.6255 
 334   0.0000       6.386944       173.7976 
 335   0.0000       6.390439       173.8927 
 336   0.0000       6.406037       174.3171 
 337   0.0000       6.407432       174.3551 
 338   0.0000       6.416879       174.6121 
 339   0.0000       6.419802       174.6917 
 340   0.0000       6.428136       174.9185 
 341   0.0000       6.443361       175.3328 
 342   0.0000       6.447539       175.4465 
 343   0.0000       6.454563       175.6376 
 344   0.0000       6.477230       176.2544 
 345   0.0000       6.481062       176.3587 
 346   0.0000       6.485801       176.4876 
 347   0.0000       6.500733       176.8939 
 348   0.0000       6.513066       177.2295 
 349   0.0000       6.520128       177.4217 
 350   0.0000       6.526281       177.5891 
 351   0.0000       6.532128       177.7483 
 352   0.0000       6.544532       178.0858 
 353   0.0000       6.546197       178.1311 
 354   0.0000       6.547680       178.1714 
 355   0.0000       6.550086       178.2369 
 356   0.0000       6.559922       178.5046 
 357   0.0000       6.560157       178.5109 
 358   0.0000       6.569289       178.7595 
 359   0.0000       6.576859       178.9654 
 360   0.0000       6.580013       179.0513 
 361   0.0000       6.585659       179.2049 
 362   0.0000       6.586648       179.2318 
 363   0.0000       6.594688       179.4506 
 364   0.0000       6.603479       179.6898 
 365   0.0000       6.608531       179.8273 
 366   0.0000       6.610139       179.8710 
 367   0.0000       6.615080       180.0055 
 368   0.0000       6.615981       180.0300 
 369   0.0000       6.622479       180.2068 
 370   0.0000       6.627172       180.3345 
 371   0.0000       6.629333       180.3933 
 372   0.0000       6.631432       180.4504 
 373   0.0000       6.634322       180.5291 
 374   0.0000       6.637044       180.6032 
[...]
     69 H        0.000      0.000      0.000      0.000      0.000      0.000
     70 H        0.000      0.000      0.000     -0.000      0.001      0.020
     71 H        0.000      0.000      0.000      0.000      0.001      0.012
     72 H        0.000      0.000      0.000      0.000      0.002      0.035
                 25 H       27 H       28 H       30 H       31 H       33 H  
      3 H        0.074     -0.003      0.002      0.000      0.000      0.090
      4 H        2.274     -0.109      0.072      0.000      0.000      2.569
      8 H        0.116      0.000      0.000      0.000      0.000      0.109
      9 H       -0.259      0.014      0.000      0.000      0.000     -0.311
     10 H        0.000      0.000      0.000      0.000      0.000      0.000
     11 H        0.000      0.000      0.000      0.000      0.000      0.000
     13 H       -0.038      0.000      0.000      0.000      0.000      0.000
     16 H       -0.260      0.014     -0.005     -0.032     -0.002     -0.308
     17 H       -0.244      0.013      0.000      0.000      0.000     -0.305
     19 H        0.928     -0.046      0.079      0.064      0.005      0.985
     21 H       -2.819      0.191      0.666     -0.229     -0.027     -2.409
     24 H      -13.313      4.266      2.395      0.650     -0.491     -0.137
     25 H        0.000     12.993      5.142     -0.627     -0.357     -2.155
     27 H       12.993      0.000    -13.598      3.984     13.011      0.061
     28 H        5.142    -13.598      0.000      2.656      4.114      0.289
     30 H       -0.627      3.984      2.656      0.000    -13.015      0.031
     31 H       -0.357     13.011      4.114    -13.015      0.000     -0.320
     33 H       -2.155      0.061      0.289      0.031     -0.320      0.000
     35 H       -0.026      0.001     -0.001      0.000      0.000     -0.034
     37 H        0.277      0.004     -0.035      0.510     -0.036      6.552
     38 H        0.166      0.001     -0.028     -0.013      0.127     12.224
     40 H       -0.013      0.019      0.150     -0.003     -0.033     -0.249
     41 H        0.008      0.023     -0.025      0.014      0.077     -0.439
     42 H       -0.018      0.015     -0.018     -0.258     -0.372     -0.215
     45 H       -0.059     -0.116     -0.142     -0.154      1.831     -0.478
     46 H       -0.016     -0.220      0.005     -0.210     -0.485     -0.209
     47 H        0.012      0.053      0.067     -0.341      0.021      0.885
     48 H       -0.016      0.029      0.023      0.037      0.008     -0.015
     52 H        0.001      0.000      0.003     -0.013     -0.001      0.004
     53 H       -0.001     -0.000     -0.000     -0.002     -0.003     -0.007
     57 H        0.000      0.000      0.000     -0.001      0.002      0.004
     58 H        0.000      0.000      0.000     -0.000     -0.000     -0.000
     61 H        0.000      0.000      0.000     -0.000     -0.000     -0.000
     62 H        0.000      0.000      0.000      0.000      0.001      0.002
     63 H        0.000      0.000      0.000      0.000      0.000     -0.000
     64 H        0.000      0.000      0.000     -0.000      0.000      0.000
     65 H        0.000      0.000      0.000      0.000      0.000      0.000
     66 H        0.000      0.000      0.000      0.000      0.000      0.000
     67 H        0.000      0.000      0.000      0.000      0.000      0.000
     68 H        0.000      0.000      0.000      0.000      0.000      0.000
     69 H        0.000      0.000      0.000      0.000      0.000      0.000
     70 H        0.003     -0.007     -0.008     -0.456     -0.096      0.004
     71 H        0.000     -0.004     -0.005      0.056      0.004     -0.001
     72 H        0.000     -0.009     -0.011      0.082     -0.048      0.005
                 35 H       37 H       38 H       40 H       41 H       42 H  
      3 H       -0.268     -0.001     -0.001      0.000      0.000      0.000
      4 H       -0.646     -0.044     -0.014      0.000      0.000      0.000
      8 H       -0.031     -0.002     -0.002      0.000     -0.000      0.000
      9 H       -0.150      0.005      0.002      0.000      0.001      0.000
     10 H       -0.398     -0.000     -0.000      0.000      0.000      0.000
     11 H       -0.142     -0.002     -0.000      0.000      0.000      0.000
     13 H       12.471      0.000      0.000      0.000      0.000      0.000
     16 H       -0.003      0.005      0.003      0.001      0.001     -0.001
     17 H       -0.002      0.005      0.004     -0.000      0.001      0.000
     19 H        0.045     -0.019      0.079      0.013     -0.004      0.003
     21 H       -0.015      0.062     -0.568     -0.010      0.060     -0.023
     24 H       -0.001     -0.057     -0.080     -0.019      0.065     -0.024
     25 H       -0.026      0.277      0.166     -0.013      0.008     -0.018
     27 H        0.001      0.004      0.001      0.019      0.023      0.015
     28 H       -0.001     -0.035     -0.028      0.150     -0.025     -0.018
     30 H        0.000      0.510     -0.013     -0.003      0.014     -0.258
     31 H        0.000     -0.036      0.127     -0.033      0.077     -0.372
     33 H       -0.034      6.552     12.224     -0.249     -0.439     -0.215
     35 H        0.000      0.000     -0.000      0.000      0.000      0.000
     37 H        0.000      0.000    -12.271      9.571      2.670     -0.260
     38 H       -0.000    -12.271      0.000      6.537     11.595     -0.489
     40 H        0.000      9.571      6.537      0.000    -13.271      9.203
     41 H        0.000      2.670     11.595    -13.271      0.000      8.811
     42 H        0.000     -0.260     -0.489      9.203      8.811      0.000
     45 H       -0.000      0.069     -0.057     -0.111     -0.071     -0.093
     46 H        0.000      0.058      0.034     -0.087      0.005      1.145
     47 H        0.000     -0.176      0.015      0.055      0.040     -0.416
     48 H        0.000      0.116     -0.007     -0.191     -0.424     10.538
     52 H        0.000     -0.015     -0.013      0.198     -0.188     -0.173
     53 H        0.000     -0.004     -0.007     -0.015      0.104      0.123
     57 H        0.000      0.001      0.000      0.030     -0.005     -0.074
     58 H        0.000      0.000      0.000     -0.002     -0.001      0.000
     61 H        0.000      0.000     -0.000     -0.005     -0.000      0.004
     62 H        0.000     -0.001      0.000      0.008      0.005     -0.032
     63 H        0.000     -0.000      0.000      0.001      0.000     -0.003
     64 H        0.000     -0.000      0.000      0.000     -0.000     -0.002
     65 H        0.000      0.000      0.000      0.001     -0.000      0.001
     66 H        0.000      0.000     -0.000     -0.000      0.000     -0.000
     67 H        0.000      0.000      0.000      0.000     -0.000      0.000
     68 H        0.000      0.000      0.000      0.000     -0.000     -0.001
     69 H        0.000      0.000      0.000      0.000     -0.001     -0.000
     70 H        0.000     -0.006      0.000      0.084      0.032     -0.199
     71 H        0.000     -0.021      0.038      0.019     -0.046     -0.354
     72 H        0.000      0.064      0.016     -0.048      0.005     -0.460
                 45 H       46 H       47 H       48 H       52 H       53 H  
      3 H        0.001     -0.000     -0.001      0.000      0.000      0.000
      4 H        0.026     -0.018      0.000      0.000      0.000      0.000
      8 H        0.001     -0.001      0.000      0.000      0.000      0.000
      9 H       -0.003      0.002      0.000      0.000      0.000      0.000
     10 H        0.000     -0.000      0.000      0.000      0.000      0.000
     11 H        0.000      0.000      0.000      0.000      0.000      0.000
     13 H        0.000      0.000      0.000      0.000      0.000      0.000
     16 H       -0.003      0.000      0.002     -0.002      0.000      0.000
     17 H       -0.004      0.000      0.001     -0.002      0.000      0.000
     19 H        0.010     -0.010     -0.008      0.005      0.000      0.000
     21 H       -0.019      0.040      0.009     -0.016      0.001      0.000
     24 H       -0.023     -0.023     -0.016      0.005      0.000      0.000
     25 H       -0.059     -0.016      0.012     -0.016      0.001     -0.001
     27 H       -0.116     -0.220      0.053      0.029      0.000     -0.000
     28 H       -0.142      0.005      0.067      0.023      0.003     -0.000
     30 H       -0.154     -0.210     -0.341      0.037     -0.013     -0.002
     31 H        1.831     -0.485      0.021      0.008     -0.001     -0.003
     33 H       -0.478     -0.209      0.885     -0.015      0.004     -0.007
     35 H       -0.000      0.000      0.000      0.000      0.000      0.000
     37 H        0.069      0.058     -0.176      0.116     -0.015     -0.004
     38 H       -0.057      0.034      0.015     -0.007     -0.013     -0.007
     40 H       -0.111     -0.087      0.055     -0.191      0.198     -0.015
     41 H       -0.071      0.005      0.040     -0.424     -0.188      0.104
     42 H       -0.093      1.145     -0.416     10.538     -0.173      0.123
     45 H        0.000    -13.659    -13.058     -0.198      0.006     -0.015
     46 H      -13.659      0.000    -13.056     -0.167      0.023     -0.040
     47 H      -13.058    -13.056      0.000     -0.098      0.005     -0.009
     48 H       -0.198     -0.167     -0.098      0.000      4.973     -2.344
     52 H        0.006      0.023      0.005      4.973      0.000     17.504
     53 H       -0.015     -0.040     -0.009     -2.344     17.504      0.000
     57 H        0.018      0.000      0.014      2.517     -1.968      5.706
     58 H       -0.000     -0.000     -0.000      0.012     -0.502     -0.619
     61 H       -0.001      0.000     -0.001     -0.117      0.144     -0.243
     62 H        0.000      0.000      0.000      0.324     -0.392      0.010
     63 H       -0.000      0.000     -0.000     -0.006     -0.029     -0.207
     64 H        0.000      0.000      0.000      0.026     -0.125      0.075
     65 H       -0.000      0.000     -0.000     -0.010      0.004      0.019
     66 H       -0.000      0.000     -0.000     -0.003      0.009      0.085
     67 H        0.000      0.000      0.000      0.000      0.004      0.036
     68 H        0.000      0.000      0.000      0.018      0.045      0.791
     69 H        0.000      0.000      0.000      0.003      0.053      0.087
     70 H       -0.020     -0.061     -0.248      5.200      0.679     -0.245
     71 H        0.028     -0.031     -0.043     12.564     -0.526     -0.198
     72 H       -0.011     -0.032     -0.022      1.935     -0.400     -0.291
                 57 H       58 H       61 H       62 H       63 H       64 H  
      3 H        0.000      0.000      0.000      0.000      0.000      0.000
      4 H        0.000      0.000      0.000      0.000      0.000      0.000
      8 H        0.000      0.000      0.000      0.000      0.000      0.000
      9 H        0.000      0.000      0.000      0.000      0.000      0.000
     10 H        0.000      0.000      0.000      0.000      0.000      0.000
     11 H        0.000      0.000      0.000      0.000      0.000      0.000
     13 H        0.000      0.000      0.000      0.000      0.000      0.000
     16 H        0.000      0.000      0.000      0.000      0.000      0.000
     17 H        0.000      0.000      0.000      0.000      0.000      0.000
     19 H        0.000      0.000      0.000      0.000      0.000      0.000
     21 H        0.000      0.000      0.000      0.000      0.000      0.000
     24 H        0.000      0.000      0.000      0.000      0.000      0.000
     25 H        0.000      0.000      0.000      0.000      0.000      0.000
     27 H        0.000      0.000      0.000      0.000      0.000      0.000
     28 H        0.000      0.000      0.000      0.000      0.000      0.000
     30 H       -0.001     -0.000     -0.000      0.000      0.000     -0.000
     31 H        0.002     -0.000     -0.000      0.001      0.000      0.000
     33 H        0.004     -0.000     -0.000      0.002     -0.000      0.000
     35 H        0.000      0.000      0.000      0.000      0.000      0.000
     37 H        0.001      0.000      0.000     -0.001     -0.000     -0.000
     38 H        0.000      0.000     -0.000      0.000      0.000      0.000
     40 H        0.030     -0.002     -0.005      0.008      0.001      0.000
     41 H       -0.005     -0.001     -0.000      0.005      0.000     -0.000
     42 H       -0.074      0.000      0.004     -0.032     -0.003     -0.002
     45 H        0.018     -0.000     -0.001      0.000     -0.000      0.000
     46 H        0.000     -0.000      0.000      0.000      0.000      0.000
     47 H        0.014     -0.000     -0.001      0.000     -0.000      0.000
     48 H        2.517      0.012     -0.117      0.324     -0.006      0.026
     52 H       -1.968     -0.502      0.144     -0.392     -0.029     -0.125
     53 H        5.706     -0.619     -0.243      0.010     -0.207      0.075
     57 H        0.000     10.333     12.625      5.329      2.135     -0.262
     58 H       10.333      0.000     -0.298     -0.155     -0.491      2.867
     61 H       12.625     -0.298      0.000    -11.398    -13.053      0.020
     62 H        5.329     -0.155    -11.398      0.000    -13.086      0.010
     63 H        2.135     -0.491    -13.053    -13.086      0.000      0.037
     64 H       -0.262      2.867      0.020      0.010      0.037      0.000
     65 H       -0.360     12.497      0.056      0.026     -0.063    -12.598
     66 H       -0.219      3.523     -0.092      0.013      0.639    -12.352
     67 H       -0.186      4.292     -0.060     -0.101      0.092      3.016
     68 H       -0.485      2.445     -0.018      0.082     -0.009      0.241
     69 H       -0.270     12.394      0.105     -0.069     -0.031     -0.379
     70 H        0.060      0.005     -0.001     -0.020     -0.003     -0.001
     71 H        0.032     -0.007     -0.000     -0.006      0.001      0.000
     72 H       -0.034      0.003      0.002     -0.018     -0.003     -0.001
                 65 H       66 H       67 H       68 H       69 H       70 H  
      3 H        0.000      0.000      0.000      0.000      0.000      0.000
      4 H        0.000      0.000      0.000      0.000      0.000      0.000
      8 H        0.000      0.000      0.000      0.000      0.000      0.000
      9 H        0.000      0.000      0.000      0.000      0.000      0.000
     10 H        0.000      0.000      0.000      0.000      0.000      0.000
     11 H        0.000      0.000      0.000      0.000      0.000      0.000
     13 H        0.000      0.000      0.000      0.000      0.000      0.000
     16 H        0.000      0.000      0.000      0.000      0.000      0.000
     17 H        0.000      0.000      0.000      0.000      0.000      0.000
     19 H        0.000      0.000      0.000      0.000      0.000     -0.000
     21 H        0.000      0.000      0.000      0.000      0.000      0.001
     24 H        0.000      0.000      0.000      0.000      0.000      0.020
     25 H        0.000      0.000      0.000      0.000      0.000      0.003
     27 H        0.000      0.000      0.000      0.000      0.000     -0.007
     28 H        0.000      0.000      0.000      0.000      0.000     -0.008
     30 H        0.000      0.000      0.000      0.000      0.000     -0.456
     31 H        0.000      0.000      0.000      0.000      0.000     -0.096
     33 H        0.000      0.000      0.000      0.000      0.000      0.004
     35 H        0.000      0.000      0.000      0.000      0.000      0.000
     37 H        0.000      0.000      0.000      0.000      0.000     -0.006
     38 H        0.000     -0.000      0.000      0.000      0.000      0.000
     40 H        0.001     -0.000      0.000      0.000      0.000      0.084
     41 H       -0.000      0.000     -0.000     -0.000     -0.001      0.032
     42 H        0.001     -0.000      0.000     -0.001     -0.000     -0.199
     45 H       -0.000     -0.000      0.000      0.000      0.000     -0.020
     46 H        0.000      0.000      0.000      0.000      0.000     -0.061
     47 H       -0.000     -0.000      0.000      0.000      0.000     -0.248
     48 H       -0.010     -0.003      0.000      0.018      0.003      5.200
     52 H        0.004      0.009      0.004      0.045      0.053      0.679
     53 H        0.019      0.085      0.036      0.791      0.087     -0.245
     57 H       -0.360     -0.219     -0.186     -0.485     -0.270      0.060
     58 H       12.497      3.523      4.292      2.445     12.394      0.005
     61 H        0.056     -0.092     -0.060     -0.018      0.105     -0.001
     62 H        0.026      0.013     -0.101      0.082     -0.069     -0.020
     63 H       -0.063      0.639      0.092     -0.009     -0.031     -0.003
     64 H      -12.598    -12.352      3.016      0.241     -0.379     -0.001
     65 H        0.000    -12.607     -0.172     -0.199     -0.293      0.000
     66 H      -12.607      0.000     -0.041     -0.259     -0.217      0.000
     67 H       -0.172     -0.041      0.000    -12.853    -11.955      0.000
     68 H       -0.199     -0.259    -12.853      0.000    -12.710      0.000
     69 H       -0.293     -0.217    -11.955    -12.710      0.000      0.000
     70 H        0.000      0.000      0.000      0.000      0.000      0.000
     71 H        0.001      0.000      0.000      0.003     -0.002    -12.740
     72 H        0.000      0.000      0.000      0.003     -0.002    -13.679
                 71 H       72 H  
      3 H        0.000      0.000
      4 H        0.000      0.000
      8 H        0.000      0.000
      9 H        0.000      0.000
     10 H        0.000      0.000
     11 H        0.000      0.000
     13 H        0.000      0.000
     16 H        0.000      0.000
     17 H        0.000      0.000
     19 H        0.000      0.000
     21 H        0.001      0.002
     24 H        0.012      0.035
     25 H        0.000      0.000
     27 H       -0.004     -0.009
     28 H       -0.005     -0.011
     30 H        0.056      0.082
     31 H        0.004     -0.048
     33 H       -0.001      0.005
     35 H        0.000      0.000
     37 H       -0.021      0.064
     38 H        0.038      0.016
     40 H        0.019     -0.048
     41 H       -0.046      0.005
     42 H       -0.354     -0.460
     45 H        0.028     -0.011
     46 H       -0.031     -0.032
     47 H       -0.043     -0.022
     48 H       12.564      1.935
     52 H       -0.526     -0.400
     53 H       -0.198     -0.291
     57 H        0.032     -0.034
     58 H       -0.007      0.003
     61 H       -0.000      0.002
     62 H       -0.006     -0.018
     63 H        0.001     -0.003
     64 H        0.000     -0.001
     65 H        0.001      0.000
     66 H        0.000      0.000
     67 H        0.000      0.000
     68 H        0.003      0.003
     69 H       -0.002     -0.002
     70 H      -12.740    -13.679
     71 H        0.000    -12.337
     72 H      -12.337      0.000

Maximum memory used throughout the entire EPRNMR-calculation: 987.2 MB

Timings for individual modules:

Sum of individual times         ...      401.605 sec (=   6.693 min)
GTO integral calculation        ...        0.629 sec (=   0.010 min)   0.2 %
SCF iterations                  ...      103.191 sec (=   1.720 min)  25.7 %
EPR/NMR calculation             ...      297.785 sec (=   4.963 min)  74.1 %
                             ****ORCA TERMINATED NORMALLY****
TOTAL RUN TIME: 0 days 0 hours 6 minutes 42 seconds 38 msec
