73
 Energy =        0 Eh        #Cluster:     0
  C     -5.0067600000      0.2236300000     -0.4795100000    
  C     -6.4604900000     -0.1828200000     -0.6487300000    
  C     -7.4084300000      0.7778200000      0.0859300000    
  H     -6.6228900000     -1.2015100000     -0.2756000000    
  H     -6.7007500000     -0.1875600000     -1.7198300000    
  C     -4.7626200000      1.6226300000     -0.8240300000    
  C     -5.6603300000      2.6121400000     -0.1210100000    
  C     -7.1374800000      2.2404200000     -0.2773000000    
  H     -5.5077700000      3.6276000000     -0.5067100000    
  H     -5.3939200000      2.6420000000      0.9431700000    
  H     -7.4432400000      2.4145800000     -1.3167600000    
  H     -7.7371800000      2.9023300000      0.3583500000    
  O     -7.3056500000      0.5996200000      1.5009100000    
  H     -8.4424700000      0.5309800000     -0.1785000000    
  C     -4.0954000000     -0.6513700000     -0.0089900000    
  C     -3.8590800000      1.9964000000     -1.7435600000    
  H     -3.2438500000      1.2691600000     -2.2659100000    
  H     -3.7099400000      3.0401600000     -2.0007100000    
  C     -2.7075000000     -0.3677700000      0.2904000000    
  H     -4.4349800000     -1.6622900000      0.2000000000    
  C     -1.7522300000     -1.2566700000      0.6252300000    
  H     -2.4373300000      0.6839700000      0.2412300000    
  C     -1.9324500000     -2.7593400000      0.7507500000    
  C     -0.9113100000     -3.5392200000     -0.0881200000    
  H     -2.9329100000     -3.0935400000      0.4649000000    
  H     -1.8093800000     -3.0320500000      1.8070200000    
  C      0.5368400000     -3.0645600000      0.1167100000    
  H     -1.1778200000     -3.4599800000     -1.1490200000    
  H     -0.9778200000     -4.6043700000      0.1640700000    
  C      0.6821300000     -1.5365000000     -0.0606600000    
  H      1.1779000000     -3.6098900000     -0.5812200000    
  H      0.8591400000     -3.3537900000      1.1253700000    
  C     -0.3191900000     -0.8579700000      0.9169000000    
  H     -0.1163700000     -1.2266900000      1.9368200000    
  C      0.1224700000      0.6033800000      0.9196700000    
  H     -6.3612600000      0.6310000000      1.7376200000    
  C      1.6495000000      0.5342600000      0.8140400000    
  H     -0.1949000000      1.1254600000      1.8284800000    
  H     -0.2746600000      1.1611500000      0.0644600000    
  C      2.0218900000     -0.9373900000      0.4663400000    
  H      2.1159900000      0.8281000000      1.7614100000    
  H      1.9907700000      1.2399200000      0.0479700000    
  H      2.2584500000     -1.4381700000      1.4183200000    
  C      3.2842200000     -1.0145900000     -0.4312700000    
  C      0.4326000000     -1.1477300000     -1.5388800000    
  H      0.6173000000     -0.0849700000     -1.7256800000    
  H     -0.5944100000     -1.3509400000     -1.8568600000    
  H      1.0895600000     -1.7118300000     -2.2089000000    
  H      3.0845400000     -0.4913500000     -1.3752100000    
  C      3.7028000000     -2.4443600000     -0.7763100000    
  C      4.4546200000     -0.3399500000      0.2576100000    
  C      5.0872200000      0.7388800000     -0.2319000000    
  H      4.7789500000     -0.7698700000      1.2039900000    
  H      4.7611200000      1.1693700000     -1.1775000000    
  C      6.2467900000      1.4235000000      0.4587500000    
  C      5.8064900000      2.8459200000      0.8245100000    
  C      7.5232800000      1.4001000000     -0.4278700000    
  H      6.4695600000      0.8984000000      1.3978100000    
  H      7.3065700000      1.9032400000     -1.3800500000    
  C      7.9622200000     -0.0359300000     -0.7506000000    
  C      8.6967600000      2.1365500000      0.2285600000    
  H      5.6825700000      3.4688600000     -0.0685000000    
  H      6.5357000000      3.3314100000      1.4804700000    
  H      4.8513200000      2.8371500000      1.3629100000    
  H      7.2020200000     -0.5694400000     -1.3296800000    
  H      8.1562300000     -0.6048700000      0.1651200000    
  H      8.8797100000     -0.0365300000     -1.3491500000    
  H      8.4920300000      3.2068600000      0.3264900000    
  H      9.6050100000      2.0402900000     -0.3764200000    
  H      8.9099300000      1.7336900000      1.2244000000    
  H      3.0095900000     -2.8988000000     -1.4881900000    
  H      3.7480800000     -3.0776600000      0.1164600000    
  H      4.6910500000     -2.4643900000     -1.2512000000    
