6
 Energy =        0 Eh        #Cluster:     0
  C     13.2088100000     -1.0072200000      7.7655600000    
  C     14.4765700000     -1.3486100000      7.5194400000    
  H     12.9689200000     -0.2077400000      8.4595200000    
  H     12.3860000000     -1.5206200000      7.2780300000    
  H     15.2994000000     -0.8353000000      8.0070600000    
  H     14.7165300000     -2.1481600000      6.8255900000    
