1
 Energy =        0 Eh        #Cluster:     0
 Li     -4.1795800000      3.7722700000      9.5665300000    
