
                                 *****************
                                 * O   R   C   A *
                                 *****************

                                            #,                                       
                                            ###                                      
                                            ####                                     
                                            #####                                    
                                            ######                                   
                                           ########,                                 
                                     ,,################,,,,,                         
                               ,,#################################,,                 
                          ,,##########################################,,             
                       ,#########################################, ''#####,          
                    ,#############################################,,   '####,        
                  ,##################################################,,,,####,       
                ,###########''''           ''''###############################       
              ,#####''   ,,,,##########,,,,          '''####'''          '####       
            ,##' ,,,,###########################,,,                        '##       
           ' ,,###''''                  '''############,,,                           
         ,,##''                                '''############,,,,        ,,,,,,###''
      ,#''                                            '''#######################'''  
     '                                                          ''''####''''         
             ,#######,   #######,   ,#######,      ##                                
            ,#'     '#,  ##    ##  ,#'     '#,    #''#        ,####,   ,####,        
            ##       ##  ##   ,#'  ##            #'  '#       #'       #'  '#        
            ##       ##  #######   ##           ,######,      #####,   #    #        
            '#,     ,#'  ##    ##  '#,     ,#' ,#      #,     #,   #   #,  ,#        
             '#######'   ##     ##  '#######'  #'      '#     '####' # '####'        



                #########################################################
                #                        -***-                          #
                #          Department of theory and spectroscopy        #
                #                                                       #
                #                      Frank Neese                      #
                #                                                       #
                #     Directorship, Architecture, Infrastructure        #
                #                    SHARK, DRIVERS                     #
                #        Core code/Algorithms in most modules           #
                #                                                       #
                #        Max Planck Institute fuer Kohlenforschung      #
                #                Kaiser Wilhelm Platz 1                 #
                #                 D-45470 Muelheim/Ruhr                 #
                #                      Germany                          #
                #                                                       #
                #                  All rights reserved                  #
                #                        -***-                          #
                #########################################################


                         Program Version 6.0.0  -   RELEASE  -


 With contributions from (in alphabetic order):
   Daniel Aravena         : Magnetic Suceptibility
   Michael Atanasov       : Ab Initio Ligand Field Theory (pilot matlab implementation)
   Alexander A. Auer      : GIAO ZORA, VPT2 properties, NMR spectrum
   Ute Becker             : All parallelization in ORCA, NUMFREQ, NUMCALC
   Giovanni Bistoni       : ED, misc. LED, open-shell LED, HFLD
   Martin Brehm           : Molecular dynamics
   Dmytro Bykov           : pre 5.0 version of the SCF Hessian
   Marcos Casanova-Páez   : Triplet and SCS-CIS(D). UHF-(DLPNO)-IP/EA/STEOM-CCSD. UHF-CVS-IP/STEOM-CCSD
   Vijay G. Chilkuri      : MRCI spin determinant printing, contributions to CSF-ICE
   Pauline Colinet        : FMM embedding
   Dipayan Datta          : RHF DLPNO-CCSD density
   Achintya Kumar Dutta   : EOM-CC, STEOM-CC
   Nicolas Foglia         : Exact transition moments, OPA infrastructure, MCD improvements
   Dmitry Ganyushin       : Spin-Orbit,Spin-Spin,Magnetic field MRCI
   Miquel Garcia          : C-PCM and meta-GGA Hessian, CCSD/C-PCM, Gaussian charge scheme
   Tiago L. C. Gouveia    : GS-ROHF, GS-ROCIS
   Yang Guo               : DLPNO-NEVPT2, F12-NEVPT2, CIM, IAO-localization
   Andreas Hansen         : Spin unrestricted coupled pair/coupled cluster methods
   Ingolf Harden          : AUTO-CI MPn and infrastructure 
   Benjamin Helmich-Paris : MC-RPA, TRAH-(SCF,CASSCF), AVAS, COSX integrals, SCF dyn. polar.
   Lee Huntington         : MR-EOM, pCC
   Robert Izsak           : Overlap fitted RIJCOSX, COSX-SCS-MP3, EOM
   Riya Kayal             : Wick's Theorem for AUTO-CI, AUTO-CI UHF-CCSDT
   Emily Kempfer          : AUTO-CI, RHF CISDT and CCSDT
   Christian Kollmar      : KDIIS, OOCD, Brueckner-CCSD(T), CCSD density, CASPT2, CASPT2-K, improved NEVPT2
   Axel Koslowski         : Symmetry handling
   Simone Kossmann        : Meta GGA functionals, TD-DFT gradient, OOMP2, (MP2 Hessian; deprecated post 5.0)
   Lucas Lang             : DCDCAS
   Marvin Lechner         : AUTO-CI (C++ implementation), FIC-MRCC
   Spencer Leger          : CASSCF response
   Dagmar Lenk            : GEPOL surface, SMD, ORCA-2-JSON
   Dimitrios Liakos       : Extrapolation schemes; Compound Job, initial MDCI parallelization
   Dimitrios Manganas     : Further ROCIS development; embedding schemes. LFT, Crystal Embedding
   Dimitrios Pantazis     : SARC Basis sets
   Anastasios Papadopoulos: AUTO-CI, single reference methods and gradients
   Taras Petrenko         : pre 6.0 DFT Hessian and TD-DFT gradient, (ASA, deprecated), ECA, 1-Electron XAS/XES, NRVS
   Peter Pinski           : DLPNO-MP2, DLPNO-MP2 Gradient
   Christoph Reimann      : Effective Core Potentials
   Marius Retegan         : Local ZFS, SOC
   Christoph Riplinger    : Optimizer, TS searches, QM/MM, DLPNO-CCSD(T), (RO)-DLPNO pert. Triples
   Michael Roemelt        : Original ROCIS implementation
   Masaaki Saitow         : Open-shell DLPNO-CCSD energy and density
   Barbara Sandhoefer     : DKH picture change effects
   Kantharuban Sivalingam : CASSCF convergence/infrastructure, NEVPT2 and variants, FIC-MRCI
   Bernardo de Souza      : ESD, SOC TD-DFT
   Georgi Stoychev        : AutoAux, RI-MP2 NMR, DLPNO-MP2 response, X2C
   Van Anh Tran           : RI-MP2 g-tensors
   Willem Van den Heuvel  : Paramagnetic NMR
   Zikuan Wang            : NOTCH, Electric field optimization 
   Frank Wennmohs         : Technical directorship and infrastructure
   Hang Xu                : AUTO-CI-Response properties 


 We gratefully acknowledge several colleagues who have allowed us to
 interface, adapt or use parts of their codes:
   Stefan Grimme, W. Hujo, H. Kruse, P. Pracht,  : VdW corrections, initial TS optimization,
                  C. Bannwarth, S. Ehlert,         DFT functionals, gCP, sTDA/sTD-DF
                  L. Wittmann, M. Mueller
   Ed Valeev, F. Pavosevic, A. Kumar             : LibInt (2-el integral package), F12 methods
   Garnet Chan, S. Sharma, J. Yang, R. Olivares  : DMRG
   Ulf Ekstrom                                   : XCFun DFT Library
   Mihaly Kallay                                 : mrcc  (arbitrary order and MRCC methods)
   Frank Weinhold                                : gennbo (NPA and NBO analysis)
   Simon Mueller                                 : openCOSMO-RS
   Christopher J. Cramer and Donald G. Truhlar   : smd solvation model
   Lars Goerigk                                  : TD-DFT with DH, B97 family of functionals
   V. Asgeirsson, H. Jonsson                     : NEB implementation
   FAccTs GmbH                                   : IRC, NEB, NEB-TS, DLPNO-Multilevel, CI-OPT
                                                   MM, QMMM, 2- and 3-layer-ONIOM, Crystal-QMMM,
                                                   LR-CPCM, SF, NACMEs, symmetry and pop. for TD-DFT,
                                                   nearIR, NL-DFT gradient (VV10), updates on ESD,
                                                   ML-optimized integration grids, MBIS, APM,
                                                   GOAT, DOCKER, SOLVATOR, interface openCOSMO-RS
   S Lehtola, MJT Oliveira, MAL Marques          : LibXC Library
   Liviu Ungur et al                             : ANISO software


 Your calculation uses the libint2 library for the computation of 2-el integrals
 For citations please refer to: http://libint.valeyev.net

 Your ORCA version has been built with support for libXC version: 6.2.2
 For citations please refer to: https://libxc.gitlab.io

 This ORCA versions uses:
   CBLAS   interface :  Fast vector & matrix operations
   LAPACKE interface :  Fast linear algebra routines
   SCALAPACK package :  Parallel linear algebra routines
   Shared memory     :  Shared parallel matrices
   BLAS/LAPACK       :  OpenBLAS 0.3.27  USE64BITINT DYNAMIC_ARCH NO_AFFINITY Zen SINGLE_THREADED
        Core in use  :  Zen
   Copyright (c) 2011-2014, The OpenBLAS Project


NOTE: MaxCore=8000 MB was set to SCF,MP2,MDCI,CIPSI,MRCI and CIS
      => If you want to overwrite this, your respective input block should be placed after the MaxCore statement
Your calculation utilizes the atom-pairwise dispersion correction
based on EEQ partial charges (D4)


================================================================================

----- Orbital basis set information -----
Your calculation utilizes the basis: def2-SVP
   F. Weigend and R. Ahlrichs, Phys. Chem. Chem. Phys. 7, 3297 (2005).

----- AuxJ basis set information -----
Your calculation utilizes the auxiliary basis: def2/J
   F. Weigend, Phys. Chem. Chem. Phys. 8, 1057 (2006).

================================================================================
                                        WARNINGS
                       Please study these warnings very carefully!
================================================================================


================================================================================
                                       INPUT FILE
================================================================================
NAME = inpS
|  1> ! wb97x-d4
|  2> ! def2-svp
|  3> ! def2/J RIJCOSX
|  4> ! DEFGRID2
|  5> ! scfconv7
|  6> ! smallprint printgap noloewdin
|  7> ! NOSOSCF
|  8> %MaxCore 8000
|  9> %output
| 10>        print[P_BondOrder_M] 1
| 11>        print[P_Mayer] 1
| 12>        print[P_basis] 2
| 13> end
| 14> %pal
| 15>     nprocs 4
| 16> end
| 17> ! CPCM(chloroform)
| 18> *xyz 0 1
| 19> C   -5.0516992600   0.3152708800   0.3181971200
| 20> C   -6.4658130800  -0.0792751000  -0.0372494200
| 21> C   -7.0039495400   0.7367043100  -1.2189554700
| 22> H   -7.1275913100   0.1177204600   0.8233337300
| 23> H   -6.5234458800  -1.1493577700  -0.2649682000
| 24> C   -4.8529720000   1.7703467300   0.4884143300
| 25> C   -5.4343420900   2.6150098400  -0.6228408400
| 26> C   -6.8879049100   2.2288551100  -0.9283482500
| 27> H   -4.8343677600   2.4537028700  -1.5313143200
| 28> H   -5.3622999700   3.6775610500  -0.3678662600
| 29> H   -7.2614157900   2.8022345000  -1.7849406700
| 30> H   -7.5236201700   2.4692575700  -0.0627825500
| 31> O   -8.3491457100   0.3591106000  -1.5406446700
| 32> H   -6.4199045900   0.4935495600  -2.1176059700
| 33> C   -4.0739717900  -0.6163990200   0.4167798600
| 34> C   -4.2521630200   2.3116015600   1.5543325900
| 35> H   -3.8632153100   1.6941943600   2.3592625200
| 36> H   -4.1464472400   3.3897481500   1.6487943700
| 37> C   -2.6713627200  -0.3665885900   0.6560466400
| 38> H   -4.3781153800  -1.6503191400   0.2593704800
| 39> C   -1.7101580800  -1.2980158700   0.8350623400
| 40> H   -2.3728077600   0.6788982600   0.6830918800
| 41> C   -1.9272512800  -2.7895756600   0.8787122800
| 42> C   -0.9919160900  -3.5332611300  -0.0930539500
| 43> H   -2.9665720900  -3.0641848800   0.6789231800
| 44> H   -1.7000207200  -3.1309598300   1.9014150100
| 45> C    0.4785183100  -3.1267725400   0.0739095900
| 46> H   -1.3163182500  -3.3369208000  -1.1228296500
| 47> H   -1.0944187700  -4.6138833800   0.0649844500
| 48> C    0.6648497500  -1.6068113400  -0.0296152300
| 49> H    1.0801787000  -3.6539215200  -0.6737349600
| 50> H    0.8347746500  -3.4546108200   1.0622580700
| 51> C   -0.2674391900  -0.9472265500   1.0352219800
| 52> H    0.0340838400  -1.4138698800   1.9914251400
| 53> C    0.1900217500   0.5078242000   1.0832177000
| 54> H   -8.9009747400   0.5652569500  -0.7742805300
| 55> C    1.7210360300   0.4144427500   0.8699204400
| 56> H   -0.0806545300   0.9936221800   2.0266322200
| 57> H   -0.2742764200   1.0870029300   0.2771747200
| 58> C    2.0362493500  -1.0509544100   0.4442712700
| 59> H    2.2779230100   0.6819555500   1.7737149300
| 60> H    2.0506292800   1.1097705400   0.0890017900
| 61> H    2.3099140900  -1.6251751100   1.3449669800
| 62> C    3.2412585700  -1.1142360100  -0.5164552600
| 63> C    0.3307731500  -1.1053510000  -1.4412320800
| 64> H   -0.7331385500  -1.2250356800  -1.6680583900
| 65> H    0.9009891900  -1.6618765200  -2.1934066000
| 66> H    0.5722838400  -0.0443925200  -1.5603758300
| 67> H    3.0003594400  -0.5254436200  -1.4141441700
| 68> C    3.6049311000  -2.5431175800  -0.9466670100
| 69> C    4.4344818000  -0.4789852000   0.1487174000
| 70> C    5.0842652300   0.5846102600  -0.3226049900
| 71> H    4.7486126100  -0.9609450800   1.0736204700
| 72> H    4.7144812100   1.0119148600  -1.2604521100
| 73> C    6.2879031600   1.3156176200   0.2199154800
| 74> C    7.4141509100   1.2617474100  -0.8289456200
| 75> C    6.8063880300   0.9597126400   1.6323793800
| 76> H    5.9816316100   2.3740872300   0.2847763500
| 77> H    7.6066124800   1.6937087900   1.8175238200
| 78> C    7.4579150000  -0.4227354200   1.7572655400
| 79> C    5.7525100600   1.1855842600   2.7226535600
| 80> H    7.0812924100   1.6969238800  -1.7773483300
| 81> H    7.7193952500   0.2291536700  -1.0278324000
| 82> H    8.2919221800   1.8217183900  -0.4858726400
| 83> H    7.8573710400  -0.5534943700   2.7695129400
| 84> H    8.2910980900  -0.5410284100   1.0574204400
| 85> H    6.7512385300  -1.2371944200   1.5742446700
| 86> H    4.9649876300   0.4271060900   2.7000060500
| 87> H    5.2741146000   2.1652145900   2.6076186100
| 88> H    6.2180933900   1.1510679200   3.7140909600
| 89> H    4.5392156500  -2.5394998700  -1.5182945100
| 90> H    2.8287045600  -2.9873284600  -1.5748467300
| 91> H    3.7455328700  -3.1884782500  -0.0707912400
| 92> *
| 93> %eprnmr
| 94>  Nuclei = all C { shift }
| 95>  origin giao
| 96>  giao_2el giao_2el_same_as_scf
| 97>  giao_1el giao_1el_analytic
| 98> end
| 99> 
|100>                          ****END OF INPUT****
================================================================================

                       ****************************
                       * Single Point Calculation *
                       ****************************

---------------------------------
CARTESIAN COORDINATES (ANGSTROEM)
---------------------------------
  C     -5.051699    0.315271    0.318197
  C     -6.465813   -0.079275   -0.037249
  C     -7.003950    0.736704   -1.218955
  H     -7.127591    0.117720    0.823334
  H     -6.523446   -1.149358   -0.264968
  C     -4.852972    1.770347    0.488414
  C     -5.434342    2.615010   -0.622841
  C     -6.887905    2.228855   -0.928348
  H     -4.834368    2.453703   -1.531314
  H     -5.362300    3.677561   -0.367866
  H     -7.261416    2.802234   -1.784941
  H     -7.523620    2.469258   -0.062783
  O     -8.349146    0.359111   -1.540645
  H     -6.419905    0.493550   -2.117606
  C     -4.073972   -0.616399    0.416780
  C     -4.252163    2.311602    1.554333
  H     -3.863215    1.694194    2.359263
  H     -4.146447    3.389748    1.648794
  C     -2.671363   -0.366589    0.656047
  H     -4.378115   -1.650319    0.259370
  C     -1.710158   -1.298016    0.835062
  H     -2.372808    0.678898    0.683092
  C     -1.927251   -2.789576    0.878712
  C     -0.991916   -3.533261   -0.093054
  H     -2.966572   -3.064185    0.678923
  H     -1.700021   -3.130960    1.901415
  C      0.478518   -3.126773    0.073910
  H     -1.316318   -3.336921   -1.122830
  H     -1.094419   -4.613883    0.064984
  C      0.664850   -1.606811   -0.029615
  H      1.080179   -3.653922   -0.673735
  H      0.834775   -3.454611    1.062258
  C     -0.267439   -0.947227    1.035222
  H      0.034084   -1.413870    1.991425
  C      0.190022    0.507824    1.083218
  H     -8.900975    0.565257   -0.774281
  C      1.721036    0.414443    0.869920
  H     -0.080655    0.993622    2.026632
  H     -0.274276    1.087003    0.277175
  C      2.036249   -1.050954    0.444271
  H      2.277923    0.681956    1.773715
  H      2.050629    1.109771    0.089002
  H      2.309914   -1.625175    1.344967
  C      3.241259   -1.114236   -0.516455
  C      0.330773   -1.105351   -1.441232
  H     -0.733139   -1.225036   -1.668058
  H      0.900989   -1.661877   -2.193407
  H      0.572284   -0.044393   -1.560376
  H      3.000359   -0.525444   -1.414144
  C      3.604931   -2.543118   -0.946667
  C      4.434482   -0.478985    0.148717
  C      5.084265    0.584610   -0.322605
  H      4.748613   -0.960945    1.073620
  H      4.714481    1.011915   -1.260452
  C      6.287903    1.315618    0.219915
  C      7.414151    1.261747   -0.828946
  C      6.806388    0.959713    1.632379
  H      5.981632    2.374087    0.284776
  H      7.606612    1.693709    1.817524
  C      7.457915   -0.422735    1.757266
  C      5.752510    1.185584    2.722654
  H      7.081292    1.696924   -1.777348
  H      7.719395    0.229154   -1.027832
  H      8.291922    1.821718   -0.485873
  H      7.857371   -0.553494    2.769513
  H      8.291098   -0.541028    1.057420
  H      6.751239   -1.237194    1.574245
  H      4.964988    0.427106    2.700006
  H      5.274115    2.165215    2.607619
  H      6.218093    1.151068    3.714091
  H      4.539216   -2.539500   -1.518295
  H      2.828705   -2.987328   -1.574847
  H      3.745533   -3.188478   -0.070791

----------------------------
CARTESIAN COORDINATES (A.U.)
----------------------------
  NO LB      ZA    FRAG     MASS         X           Y           Z
   0 C     6.0000    0    12.011   -9.546328    0.595776    0.601305
   1 C     6.0000    0    12.011  -12.218616   -0.149808   -0.070391
   2 C     6.0000    0    12.011  -13.235546    1.392169   -2.303492
   3 H     1.0000    0     1.008  -13.469196    0.222459    1.555875
   4 H     1.0000    0     1.008  -12.327526   -2.171971   -0.500717
   5 C     6.0000    0    12.011   -9.170788    3.345470    0.922969
   6 C     6.0000    0    12.011  -10.269418    4.941652   -1.176999
   7 C     6.0000    0    12.011  -13.016254    4.211926   -1.754324
   8 H     1.0000    0     1.008   -9.135631    4.636826   -2.893765
   9 H     1.0000    0     1.008  -10.133278    6.949583   -0.695166
  10 H     1.0000    0     1.008  -13.722087    5.295456   -3.373049
  11 H     1.0000    0     1.008  -14.217582    4.666221   -0.118642
  12 O     8.0000    0    15.999  -15.777599    0.678621   -2.911396
  13 H     1.0000    0     1.008  -12.131861    0.932674   -4.001695
  14 C     6.0000    0    12.011   -7.698691   -1.164825    0.787600
  15 C     6.0000    0    12.011   -8.035424    4.368294    2.937263
  16 H     1.0000    0     1.008   -7.300419    3.201563    4.458360
  17 H     1.0000    0     1.008   -7.835650    6.405696    3.115770
  18 C     6.0000    0    12.011   -5.048144   -0.692752    1.239748
  19 H     1.0000    0     1.008   -8.273439   -3.118651    0.490139
  20 C     6.0000    0    12.011   -3.231730   -2.452895    1.578039
  21 H     1.0000    0     1.008   -4.483957    1.282932    1.290857
  22 C     6.0000    0    12.011   -3.641977   -5.271534    1.660526
  23 C     6.0000    0    12.011   -1.874450   -6.676896   -0.175846
  24 H     1.0000    0     1.008   -5.606009   -5.790470    1.282979
  25 H     1.0000    0     1.008   -3.212574   -5.916657    3.593154
  26 C     6.0000    0    12.011    0.904269   -5.908744    0.139669
  27 H     1.0000    0     1.008   -2.487481   -6.305866   -2.121841
  28 H     1.0000    0     1.008   -2.068152   -8.718976    0.122803
  29 C     6.0000    0    12.011    1.256384   -3.036433   -0.055965
  30 H     1.0000    0     1.008    2.041242   -6.904911   -1.273175
  31 H     1.0000    0     1.008    1.577495   -6.528268    2.007377
  32 C     6.0000    0    12.011   -0.505387   -1.789999    1.956286
  33 H     1.0000    0     1.008    0.064409   -2.671827    3.763248
  34 C     6.0000    0    12.011    0.359089    0.959649    2.046985
  35 H     1.0000    0     1.008  -16.820405    1.068181   -1.463178
  36 C     6.0000    0    12.011    3.252287    0.783183    1.643911
  37 H     1.0000    0     1.008   -0.152415    1.877674    3.829780
  38 H     1.0000    0     1.008   -0.518307    2.054138    0.523784
  39 C     6.0000    0    12.011    3.847954   -1.986016    0.839551
  40 H     1.0000    0     1.008    4.304651    1.288709    3.351835
  41 H     1.0000    0     1.008    3.875128    2.097162    0.168189
  42 H     1.0000    0     1.008    4.365105   -3.071136    2.541619
  43 C     6.0000    0    12.011    6.125091   -2.105601   -0.975959
  44 C     6.0000    0    12.011    0.625071   -2.088811   -2.723534
  45 H     1.0000    0     1.008   -1.385431   -2.314982   -3.152174
  46 H     1.0000    0     1.008    1.702623   -3.140491   -4.144938
  47 H     1.0000    0     1.008    1.081460   -0.083890   -2.948683
  48 H     1.0000    0     1.008    5.669858   -0.992945   -2.672345
  49 C     6.0000    0    12.011    6.812333   -4.805796   -1.788941
  50 C     6.0000    0    12.011    8.379956   -0.905151    0.281035
  51 C     6.0000    0    12.011    9.607869    1.104753   -0.609635
  52 H     1.0000    0     1.008    8.973577   -1.815923    2.028849
  53 H     1.0000    0     1.008    8.909078    1.912242   -2.381909
  54 C     6.0000    0    12.011   11.882415    2.486157    0.415580
  55 C     6.0000    0    12.011   14.010715    2.384357   -1.566480
  56 C     6.0000    0    12.011   12.862209    1.813594    3.084750
  57 H     1.0000    0     1.008   11.303646    4.486375    0.538149
  58 H     1.0000    0     1.008   14.374414    3.200646    3.434622
  59 C     6.0000    0    12.011   14.093417   -0.798854    3.320751
  60 C     6.0000    0    12.011   10.870669    2.240430    5.145070
  61 H     1.0000    0     1.008   13.381703    3.206721   -3.358702
  62 H     1.0000    0     1.008   14.587543    0.433038   -1.942322
  63 H     1.0000    0     1.008   15.669462    3.442549   -0.918166
  64 H     1.0000    0     1.008   14.848279   -1.045953    5.233621
  65 H     1.0000    0     1.008   15.667905   -1.022396    1.998235
  66 H     1.0000    0     1.008   12.757992   -2.337959    2.974891
  67 H     1.0000    0     1.008    9.382467    0.807114    5.102272
  68 H     1.0000    0     1.008    9.966632    4.091663    4.927685
  69 H     1.0000    0     1.008   11.750494    2.175203    7.018615
  70 H     1.0000    0     1.008    8.577874   -4.798959   -2.869161
  71 H     1.0000    0     1.008    5.345477   -5.645233   -2.976029
  72 H     1.0000    0     1.008    7.078031   -6.025351   -0.133776

--------------------------------
INTERNAL COORDINATES (ANGSTROEM)
--------------------------------
 C      0   0   0     0.000000000000     0.00000000     0.00000000
 C      1   0   0     1.510538536101     0.00000000     0.00000000
 C      2   1   0     1.533571790211   111.76796753     0.00000000
 H      2   1   3     1.103340851426   109.34978233   241.47609576
 H      2   1   3     1.095561181785   110.68804383   122.91394416
 C      1   2   3     1.478415419191   114.20503144    50.40763764
 C      6   1   2     1.512063161311   114.42484420   312.07660306
 C      3   2   1     1.524609104790   110.31397366   305.07571849
 H      7   6   1     1.100596746812   108.37077389   290.05571996
 H      7   6   1     1.095087748709   110.21893938   172.82759086
 H      8   3   2     1.096368950836   109.69368064   179.16959026
 H      8   3   2     1.100514068782   108.64749235   296.61863740
 O      3   2   1     1.433741150630   111.22270484   180.38030388
 H      3   2   1     1.099002027850   109.01882310    65.20867238
 C      1   2   3     1.354133806086   120.88819378   232.50077433
 C      6   1   2     1.337949908796   123.38353778   129.84050065
 H     16   6   1     1.086454860515   121.40678854     0.67171629
 H     16   6   1     1.087427663594   120.92718336   181.35063944
 C     15   1   2     1.444633533528   126.44928658   175.40245846
 H     15   1   2     1.089161076605   116.16628568   358.00870422
 C     19  15   1     1.350376895068   126.42573664   175.67899560
 H     19  15   1     1.087616321443   115.90382724   355.08218317
 C     21  19  15     1.507907617161   125.70659923   357.19314634
 C     23  21  19     1.540210895206   111.83397863   128.05188349
 H     23  21  19     1.093395470215   112.33307451     3.90109726
 H     23  21  19     1.101861040637   107.67659087   246.67611537
 C     24  23  21     1.534694471937   112.66356799    50.91162783
 H     24  23  21     1.097371531847   109.03553683   288.80665758
 H     24  23  21     1.096917217695   109.14892261   172.85282050
 C     27  24  23     1.534835119286   111.79455446   306.10912788
 H     27  24  23     1.094921752983   108.94655166   182.62119485
 H     27  24  23     1.100558601594   109.20518985    66.10776304
 C     21  19  15     1.498183841881   122.79690808   177.99728441
 H     33  21  19     1.105891775106   106.21700345   123.75390422
 C     33  21  19     1.526023193087   121.07306067     1.61168058
 H     13   3   2     0.966605188817   107.55250522    62.79734918
 C     35  33  21     1.548618914353   103.56439775   196.46915092
 H     35  33  21     1.095123866270   112.08433453    74.42459507
 H     35  33  21     1.095776472442   110.72109524   314.86843883
 C     30  27  24     1.553796062677   116.15835671   166.35827630
 H     37  35  33     1.094774262947   111.99054996   248.95964683
 H     37  35  33     1.096333153704   110.92089845   130.41638260
 H     40  30  27     1.102667023285   106.37230674   320.54525119
 C     40  30  27     1.542416042003   119.00556516    81.38855256
 C     30  27  24     1.534839333111   111.04878356   294.21412005
 H     45  30  27     1.094386907328   111.49954744    66.66355697
 H     45  30  27     1.095734226545   110.61791061   306.53249690
 H     45  30  27     1.094602915596   111.63914336   186.71393322
 H     44  40  30     1.100251902290   108.37214795    60.91440315
 C     44  40  30     1.535917445698   113.42935334   300.06797386
 C     44  40  30     1.506578884702   109.05347460   178.17564412
 C     51  44  40     1.332515892495   124.51359175   240.49650376
 H     51  44  40     1.089224118635   114.62939420    60.62355555
 H     52  51  44     1.094936830653   116.72911727   359.79539025
 C     52  51  44     1.509120434981   130.42156378   180.61131658
 C     55  52  51     1.539949869638   108.75444592   120.06574455
 C     55  52  51     1.546140091975   118.97129826   350.77109841
 H     55  52  51     1.103796679688   105.32666248   233.38329434
 H     57  55  52     1.101538915452   104.10944669   185.52918373
 C     57  55  52     1.533377508703   115.11401831    69.75413708
 C     57  55  52     1.533093132183   112.65865005   300.34278755
 H     56  55  52     1.095281261320   110.70799650    57.57678008
 H     56  55  52     1.094979401746   111.13569536   298.07675546
 H     56  55  52     1.096243116505   110.76765801   177.53448342
 H     60  57  55     1.096041892313   109.73265610   175.86886921
 H     60  57  55     1.094518367566   111.64212612    56.82785251
 H     60  57  55     1.093723792732   112.53241901   295.55400970
 H     61  57  55     1.093614933068   112.21656863    73.23549373
 H     61  57  55     1.096253090908   110.91703877   312.77835678
 H     61  57  55     1.095859175725   110.28558792   193.21669867
 H     50  44  40     1.095289325681   110.18690098   187.33846197
 H     50  44  40     1.092913861167   111.77409505    67.38351585
 H     50  44  40     1.097003927333   110.73244826   306.78035771

---------------------------
INTERNAL COORDINATES (A.U.)
---------------------------
 C      0   0   0     0.000000000000     0.00000000     0.00000000
 C      1   0   0     2.854504147966     0.00000000     0.00000000
 C      2   1   0     2.898030690207   111.76796753     0.00000000
 H      2   1   3     2.085012041563   109.34978233   241.47609576
 H      2   1   3     2.070310596529   110.68804383   122.91394416
 C      1   2   3     2.793800254437   114.20503144    50.40763764
 C      6   1   2     2.857385272069   114.42484420   312.07660306
 C      3   2   1     2.881093669336   110.31397366   305.07571849
 H      7   6   1     2.079826435359   108.37077389   290.05571996
 H      7   6   1     2.069415937673   110.21893938   172.82759086
 H      8   3   2     2.071837058814   109.69368064   179.16959026
 H      8   3   2     2.079670196526   108.64749235   296.61863740
 O      3   2   1     2.709378121625   111.22270484   180.38030388
 H      3   2   1     2.076812853261   109.01882310    65.20867238
 C      1   2   3     2.558942042187   120.88819378   232.50077433
 C      6   1   2     2.528358908530   123.38353778   129.84050065
 H     16   6   1     2.053102143240   121.40678854     0.67171629
 H     16   6   1     2.054940474643   120.92718336   181.35063944
 C     15   1   2     2.729961742248   126.44928658   175.40245846
 H     15   1   2     2.058216150510   116.16628568   358.00870422
 C     19  15   1     2.551842509253   126.42573664   175.67899560
 H     19  15   1     2.055296986311   115.90382724   355.08218317
 C     21  19  15     2.849532431689   125.70659923   357.19314634
 C     23  21  19     2.910576780420   111.83397863   128.05188349
 H     23  21  19     2.066217994777   112.33307451     3.90109726
 H     23  21  19     2.082215604442   107.67659087   246.67611537
 C     24  23  21     2.900152251203   112.66356799    50.91162783
 H     24  23  21     2.073731662352   109.03553683   288.80665758
 H     24  23  21     2.072873133027   109.14892261   172.85282050
 C     27  24  23     2.900418036175   111.79455446   306.10912788
 H     27  24  23     2.069102251210   108.94655166   182.62119485
 H     27  24  23     2.079754351343   109.20518985    66.10776304
 C     21  19  15     2.831157159421   122.79690808   177.99728441
 H     33  21  19     2.089832588707   106.21700345   123.75390422
 C     33  21  19     2.883765908947   121.07306067     1.61168058
 H     13   3   2     1.826619086490   107.55250522    62.79734918
 C     35  33  21     2.926465633937   103.56439775   196.46915092
 H     35  33  21     2.069484189971   112.08433453    74.42459507
 H     35  33  21     2.070717436909   110.72109524   314.86843883
 C     30  27  24     2.936249026425   116.15835671   166.35827630
 H     37  35  33     2.068823535436   111.99054996   248.95964683
 H     37  35  33     2.071769412038   110.92089845   130.41638260
 H     40  30  27     2.083738690915   106.37230674   320.54525119
 C     40  30  27     2.914743903953   119.00556516    81.38855256
 C     30  27  24     2.900425999150   111.04878356   294.21412005
 H     45  30  27     2.068091539400   111.49954744    66.66355697
 H     45  30  27     2.070637603734   110.61791061   306.53249690
 H     45  30  27     2.068499735869   111.63914336   186.71393322
 H     44  40  30     2.079174773655   108.37214795    60.91440315
 C     44  40  30     2.902463336682   113.42935334   300.06797386
 C     44  40  30     2.847021491235   109.05347460   178.17564412
 C     51  44  40     2.518090105912   124.51359175   240.49650376
 H     51  44  40     2.058335282682   114.62939420    60.62355555
 H     52  51  44     2.069130743878   116.72911727   359.79539025
 C     52  51  44     2.851824325219   130.42156378   180.61131658
 C     55  52  51     2.910083513584   108.75444592   120.06574455
 C     55  52  51     2.921781338508   118.97129826   350.77109841
 H     55  52  51     2.085873432142   105.32666248   233.38329434
 H     57  55  52     2.081606876061   104.10944669   185.52918373
 C     57  55  52     2.897663551362   115.11401831    69.75413708
 C     57  55  52     2.897126157622   112.65865005   300.34278755
 H     56  55  52     2.069781623511   110.70799650    57.57678008
 H     56  55  52     2.069211191585   111.13569536   298.07675546
 H     56  55  52     2.071599266392   110.76765801   177.53448342
 H     60  57  55     2.071219007776   109.73265610   175.86886921
 H     60  57  55     2.068339963246   111.64212612    56.82785251
 H     60  57  55     2.066838434417   112.53241901   295.55400970
 H     61  57  55     2.066632719465   112.21656863    73.23549373
 H     61  57  55     2.071618115281   110.91703877   312.77835678
 H     61  57  55     2.070873723464   110.28558792   193.21669867
 H     50  44  40     2.069796862944   110.18690098   187.33846197
 H     50  44  40     2.065307885571   111.77409505    67.38351585
 H     50  44  40     2.073036990495   110.73244826   306.78035771

---------------------
BASIS SET INFORMATION
---------------------
There are 3 groups of distinct atoms

 Group   1 Type C   : 7s4p1d contracted to 3s2p1d pattern {511/31/1}
 Group   2 Type H   : 4s1p contracted to 2s1p pattern {31/1}
 Group   3 Type O   : 7s4p1d contracted to 3s2p1d pattern {511/31/1}

Atom   0C    basis set group =>   1
Atom   1C    basis set group =>   1
Atom   2C    basis set group =>   1
Atom   3H    basis set group =>   2
Atom   4H    basis set group =>   2
Atom   5C    basis set group =>   1
Atom   6C    basis set group =>   1
Atom   7C    basis set group =>   1
Atom   8H    basis set group =>   2
Atom   9H    basis set group =>   2
Atom  10H    basis set group =>   2
Atom  11H    basis set group =>   2
Atom  12O    basis set group =>   3
Atom  13H    basis set group =>   2
Atom  14C    basis set group =>   1
Atom  15C    basis set group =>   1
Atom  16H    basis set group =>   2
Atom  17H    basis set group =>   2
Atom  18C    basis set group =>   1
Atom  19H    basis set group =>   2
Atom  20C    basis set group =>   1
Atom  21H    basis set group =>   2
Atom  22C    basis set group =>   1
Atom  23C    basis set group =>   1
Atom  24H    basis set group =>   2
Atom  25H    basis set group =>   2
Atom  26C    basis set group =>   1
Atom  27H    basis set group =>   2
Atom  28H    basis set group =>   2
Atom  29C    basis set group =>   1
Atom  30H    basis set group =>   2
Atom  31H    basis set group =>   2
Atom  32C    basis set group =>   1
Atom  33H    basis set group =>   2
Atom  34C    basis set group =>   1
Atom  35H    basis set group =>   2
Atom  36C    basis set group =>   1
Atom  37H    basis set group =>   2
Atom  38H    basis set group =>   2
Atom  39C    basis set group =>   1
Atom  40H    basis set group =>   2
Atom  41H    basis set group =>   2
Atom  42H    basis set group =>   2
Atom  43C    basis set group =>   1
Atom  44C    basis set group =>   1
Atom  45H    basis set group =>   2
Atom  46H    basis set group =>   2
Atom  47H    basis set group =>   2
Atom  48H    basis set group =>   2
Atom  49C    basis set group =>   1
Atom  50C    basis set group =>   1
Atom  51C    basis set group =>   1
Atom  52H    basis set group =>   2
Atom  53H    basis set group =>   2
Atom  54C    basis set group =>   1
Atom  55C    basis set group =>   1
Atom  56C    basis set group =>   1
Atom  57H    basis set group =>   2
Atom  58H    basis set group =>   2
Atom  59C    basis set group =>   1
Atom  60C    basis set group =>   1
Atom  61H    basis set group =>   2
Atom  62H    basis set group =>   2
Atom  63H    basis set group =>   2
Atom  64H    basis set group =>   2
Atom  65H    basis set group =>   2
Atom  66H    basis set group =>   2
Atom  67H    basis set group =>   2
Atom  68H    basis set group =>   2
Atom  69H    basis set group =>   2
Atom  70H    basis set group =>   2
Atom  71H    basis set group =>   2
Atom  72H    basis set group =>   2

-------------------------
BASIS SET IN INPUT FORMAT
-------------------------

 # Basis set for element : H 
 NewGTO H 
 S 3 
   1      13.0107010000      0.0334854848
   2       1.9622572000      0.2347218709
   3       0.4445379600      0.8137702853
 S 1 
   1       0.1219496200      1.0000000000
 P 1 
   1       0.8000000000      1.0000000000
  end;

 # Basis set for element : C 
 NewGTO C 
 S 5 
   1    1238.4016938000      0.0055173650
   2     186.2900499200      0.0410888285
   3      42.2511763460      0.1822538213
   4      11.6765579320      0.4682845944
   5       3.5930506482      0.4457581734
 S 1 
   1       0.4024514736      1.0000000000
 S 1 
   1       0.1309018267      1.0000000000
 P 3 
   1       9.4680970621      0.0568883320
   2       2.0103545142      0.3129405934
   3       0.5477100471      0.7606501651
 P 1 
   1       0.1526861379      1.0000000000
 D 1 
   1       0.8000000000      1.0000000000
  end;

 # Basis set for element : O 
 NewGTO O 
 S 5 
   1    2266.1767785000     -0.0053893504
   2     340.8701019100     -0.0402347214
   3      77.3631351670     -0.1800818421
   4      21.4796449400     -0.4682885766
   5       6.6589433124     -0.4469261716
 S 1 
   1       0.8097597567      1.0000000000
 S 1 
   1       0.2553077223      1.0000000000
 P 3 
   1      17.7215043170      0.0626302488
   2       3.8635505440      0.3333113849
   3       1.0480920883      0.7414863830
 P 1 
   1       0.2764154441      1.0000000000
 D 1 
   1       1.2000000000      1.0000000000
  end;

---------------------------------
AUXILIARY/J BASIS SET INFORMATION
---------------------------------
There are 3 groups of distinct atoms

 Group   1 Type C   : 12s5p4d2f1g contracted to 6s4p3d1f1g pattern {711111/2111/211/2/1}
 Group   2 Type H   : 5s2p1d contracted to 3s1p1d pattern {311/2/1}
 Group   3 Type O   : 12s5p4d2f1g contracted to 6s4p3d1f1g pattern {711111/2111/211/2/1}

Atom   0C    basis set group =>   1
Atom   1C    basis set group =>   1
Atom   2C    basis set group =>   1
Atom   3H    basis set group =>   2
Atom   4H    basis set group =>   2
Atom   5C    basis set group =>   1
Atom   6C    basis set group =>   1
Atom   7C    basis set group =>   1
Atom   8H    basis set group =>   2
Atom   9H    basis set group =>   2
Atom  10H    basis set group =>   2
Atom  11H    basis set group =>   2
Atom  12O    basis set group =>   3
Atom  13H    basis set group =>   2
Atom  14C    basis set group =>   1
Atom  15C    basis set group =>   1
Atom  16H    basis set group =>   2
Atom  17H    basis set group =>   2
Atom  18C    basis set group =>   1
Atom  19H    basis set group =>   2
Atom  20C    basis set group =>   1
Atom  21H    basis set group =>   2
Atom  22C    basis set group =>   1
Atom  23C    basis set group =>   1
Atom  24H    basis set group =>   2
Atom  25H    basis set group =>   2
Atom  26C    basis set group =>   1
Atom  27H    basis set group =>   2
Atom  28H    basis set group =>   2
Atom  29C    basis set group =>   1
Atom  30H    basis set group =>   2
Atom  31H    basis set group =>   2
Atom  32C    basis set group =>   1
Atom  33H    basis set group =>   2
Atom  34C    basis set group =>   1
Atom  35H    basis set group =>   2
Atom  36C    basis set group =>   1
Atom  37H    basis set group =>   2
Atom  38H    basis set group =>   2
Atom  39C    basis set group =>   1
Atom  40H    basis set group =>   2
Atom  41H    basis set group =>   2
Atom  42H    basis set group =>   2
Atom  43C    basis set group =>   1
Atom  44C    basis set group =>   1
Atom  45H    basis set group =>   2
Atom  46H    basis set group =>   2
Atom  47H    basis set group =>   2
Atom  48H    basis set group =>   2
Atom  49C    basis set group =>   1
Atom  50C    basis set group =>   1
Atom  51C    basis set group =>   1
Atom  52H    basis set group =>   2
Atom  53H    basis set group =>   2
Atom  54C    basis set group =>   1
Atom  55C    basis set group =>   1
Atom  56C    basis set group =>   1
Atom  57H    basis set group =>   2
Atom  58H    basis set group =>   2
Atom  59C    basis set group =>   1
Atom  60C    basis set group =>   1
Atom  61H    basis set group =>   2
Atom  62H    basis set group =>   2
Atom  63H    basis set group =>   2
Atom  64H    basis set group =>   2
Atom  65H    basis set group =>   2
Atom  66H    basis set group =>   2
Atom  67H    basis set group =>   2
Atom  68H    basis set group =>   2
Atom  69H    basis set group =>   2
Atom  70H    basis set group =>   2
Atom  71H    basis set group =>   2
Atom  72H    basis set group =>   2

-------------------------------------
AUXILIARY/J BASIS SET IN INPUT FORMAT
-------------------------------------

 # Auxiliary/J basis set for element : H 
 NewAuxJGTO H 
 S 3 
   1      15.6752927000      0.1007184237
   2       3.6063578000      0.3404257499
   3       1.2080016000      0.6491996172
 S 1 
   1       0.4726794000      1.0000000000
 S 1 
   1       0.2018100000      1.0000000000
 P 2 
   1       2.0281365000      0.5596620919
   2       0.5358730000      0.5596620919
 D 1 
   1       2.2165124000      1.0000000000
  end;

 # Auxiliary/J basis set for element : C 
 NewAuxJGTO C 
 S 7 
   1    1861.0916331000      0.0134602335
   2     642.9939764000      0.0299160374
   3     235.1105725000      0.1008649584
   4      90.7028894000      0.2370970548
   5      36.7794552000      0.3924037254
   6      15.6046273000      0.3195862154
   7       6.8907294000      0.0530104441
 S 1 
   1       3.1478850000     -1.0000000000
 S 1 
   1       1.4777287000      1.0000000000
 S 1 
   1       0.7076466000      1.0000000000
 S 1 
   1       0.3430122000      1.0000000000
 S 1 
   1       0.1669453000      1.0000000000
 P 2 
   1      13.5472892000     -0.6769313712
   2       5.4669419000     -0.3779500978
 P 1 
   1       2.1751721000      1.0000000000
 P 1 
   1       0.8582194000      1.0000000000
 P 1 
   1       0.3376720000      1.0000000000
 D 2 
   1       5.9287253000     -0.3533329857
   2       1.9809209000     -0.7456525731
 D 1 
   1       0.8055417000     -1.0000000000
 D 1 
   1       0.3531244000     -1.0000000000
 F 2 
   1       1.6755626000      0.6311076882
   2       0.5997536000      0.4968166032
 G 1 
   1       1.0024600000     -1.0000000000
  end;

 # Auxiliary/J basis set for element : O 
 NewAuxJGTO O 
 S 7 
   1    2876.8216605000      0.0168151159
   2    1004.7443032000      0.0340137548
   3     369.7579954000      0.1194951309
   4     142.9442404000      0.2664627624
   5      57.8366425000      0.4202764046
   6      24.3864983000      0.2765077335
   7      10.6622662000      0.0057008815
 S 1 
   1       4.8070437000     -1.0000000000
 S 1 
   1       2.2210770000      1.0000000000
 S 1 
   1       1.0447795000      1.0000000000
 S 1 
   1       0.4968425000      1.0000000000
 S 1 
   1       0.2371384000      1.0000000000
 P 2 
   1      64.2613382000     -0.2731534179
   2      16.3006076000     -0.8168011598
 P 1 
   1       4.3550542000      1.0000000000
 P 1 
   1       1.2019554000      1.0000000000
 P 1 
   1       0.3354196000      1.0000000000
 D 2 
   1       9.2146611000     -0.4661230638
   2       2.8435251000     -0.6600908911
 D 1 
   1       0.9955759000     -1.0000000000
 D 1 
   1       0.3649441000     -1.0000000000
 F 2 
   1       2.6420115000      0.5931563945
   2       0.7345613000      0.5931563945
 G 1 
   1       1.3931000000     -1.0000000000
  end;



           ************************************************************
           *        Program running with 4 parallel MPI-processes     *
           *              working on a common directory               *
           ************************************************************
------------------------------------------------------------------------------
                             ORCA STARTUP CALCULATIONS
                           -- RI-GTO INTEGRALS CHOSEN --
------------------------------------------------------------------------------
------------------------------------------------------------------------------
                   ___                                                        
                  /   \      - P O W E R E D   B Y -                         
                 /     \                                                     
                 |  |  |   _    _      __       _____    __    __             
                 |  |  |  | |  | |    /  \     |  _  \  |  |  /  |          
                  \  \/   | |  | |   /    \    | | | |  |  | /  /          
                 / \  \   | |__| |  /  /\  \   | |_| |  |  |/  /          
                |  |  |   |  __  | /  /__\  \  |    /   |      \           
                |  |  |   | |  | | |   __   |  |    \   |  |\   \          
                \     /   | |  | | |  |  |  |  | |\  \  |  | \   \       
                 \___/    |_|  |_| |__|  |__|  |_| \__\ |__|  \__/        
                                                                              
                      - O R C A' S   B I G   F R I E N D -                    
                                      &                                       
                       - I N T E G R A L  F E E D E R -                       
                                                                              
 v1 FN, 2020, v2 2021, v3 2022-2024                                           
------------------------------------------------------------------------------


----------------------
SHARK INTEGRAL PACKAGE
----------------------

Number of atoms                             ...     73
Number of basis functions                   ...    626
Number of shells                            ...    306
Maximum angular momentum                    ...      2
Integral batch strategy                     ... SHARK/LIBINT Hybrid
RI-J (if used) integral strategy            ... SPLIT-RIJ (Revised 2003 algorithm where possible)
Printlevel                                  ...      1
Contraction scheme used                     ... SEGMENTED contraction
Prescreening option                         ... SCHWARTZ
   Thresh                                   ... 3.000e-11
   Tcut                                     ... 1.000e-12
   Tpresel                                  ... 1.000e-12 
Coulomb Range Separation                    ... NOT USED
Exchange Range Separation                   ... Long Range
   Mu parameter                             ... 3.000e-01
   Scaling (regular/separated)              ... 1.670e-01 8.330e-01
Multipole approximations                    ... NOT USED
Finite Nucleus Model                        ... NOT USED
CABS basis                                  ... NOT available
Auxiliary Coulomb fitting basis             ... AVAILABLE
   # of basis functions in Aux-J            ...   1905
   # of shells in Aux-J                     ...    655
   Maximum angular momentum in Aux-J        ...      4
Auxiliary J/K fitting basis                 ... NOT available
Auxiliary Correlation fitting basis         ... NOT available
Auxiliary 'external' fitting basis          ... NOT available

Checking pre-screening integrals            ... done (  0.0 sec) Dimension = 306
Check shell pair data                       ... done (  0.0 sec)
Shell pair information
Shell pair cut-off parameter TPreSel        ...   1.0e-12
Total number of shell pairs                 ...     46971
Shell pairs after pre-screening             ...     27610
Total number of primitive shell pairs       ...    162105
Primitive shell pairs kept                  ...     60797
          la=0 lb=0:   9668 shell pairs
          la=1 lb=0:  10603 shell pairs
          la=1 lb=1:   2920 shell pairs
          la=2 lb=0:   2748 shell pairs
          la=2 lb=1:   1475 shell pairs
          la=2 lb=2:    196 shell pairs

Calculating one electron integrals          ... done (  0.1 sec)
Calculating RI/J V-Matrix + Cholesky decomp.... done (  0.2 sec)
Calculating Nuclear repulsion               ... done (  0.0 sec) ENN=   2776.082974179149 Eh

Diagonalization of the overlap matrix:
Smallest eigenvalue                        ... 4.550e-04
Time for diagonalization                   ...    0.049 sec
Threshold for overlap eigenvalues          ... 1.000e-07
Number of eigenvalues below threshold      ... 0
Time for construction of square roots      ...    0.029 sec
Total time needed                          ...    0.081 sec

-------------------
DFT GRID GENERATION
-------------------

General Integration Accuracy     IntAcc      ... 4.388
Radial Grid Type                 RadialGrid  ... OptM3 with GC (2021)
Angular Grid (max. ang.)         AngularGrid ... 4 (Lebedev-302)
Angular grid pruning method      GridPruning ... 4 (adaptive)
Weight generation scheme         WeightScheme... mBecke (2022)
Basis function cutoff            BFCut       ... 1.0000e-11
Integration weight cutoff        WCut        ... 1.0000e-14
Partially contracted basis set               ... off
Rotationally invariant grid construction     ... off
Angular grids for H and He will be reduced by one unit

Total number of grid points                  ...   309870
Total number of batches                      ...     4875
Average number of points per batch           ...       63
Average number of grid points per atom       ...     4245

--------------------
COSX GRID GENERATION
--------------------

GRIDX 1
-------
General Integration Accuracy     IntAcc      ... 3.816
Radial Grid Type                 RadialGrid  ... OptM3 with GC (2021)
Angular Grid (max. ang.)         AngularGrid ... 1 (Lebedev-50)
Angular grid pruning method      GridPruning ... 4 (adaptive)
Weight generation scheme         WeightScheme... mBecke (2022)
Basis function cutoff            BFCut       ... 1.0000e-11
Integration weight cutoff        WCut        ... 1.0000e-14
Partially contracted basis set               ... on
Rotationally invariant grid construction     ... off
Angular grids for H and He will be reduced by one unit

Total number of grid points                  ...    39425
Total number of batches                      ...      353
Average number of points per batch           ...      111
Average number of grid points per atom       ...      540
UseSFitting                                  ... on

GRIDX 2
-------
General Integration Accuracy     IntAcc      ... 4.020
Radial Grid Type                 RadialGrid  ... OptM3 with GC (2021)
Angular Grid (max. ang.)         AngularGrid ... 2 (Lebedev-110)
Angular grid pruning method      GridPruning ... 4 (adaptive)
Weight generation scheme         WeightScheme... mBecke (2022)
Basis function cutoff            BFCut       ... 1.0000e-11
Integration weight cutoff        WCut        ... 1.0000e-14
Partially contracted basis set               ... on
Rotationally invariant grid construction     ... off
Angular grids for H and He will be reduced by one unit

Total number of grid points                  ...    81411
Total number of batches                      ...      678
Average number of points per batch           ...      120
Average number of grid points per atom       ...     1115
UseSFitting                                  ... on

GRIDX 3
-------
General Integration Accuracy     IntAcc      ... 4.338
Radial Grid Type                 RadialGrid  ... OptM3 with GC (2021)
Angular Grid (max. ang.)         AngularGrid ... 3 (Lebedev-194)
Angular grid pruning method      GridPruning ... 4 (adaptive)
Weight generation scheme         WeightScheme... mBecke (2022)
Basis function cutoff            BFCut       ... 1.0000e-11
Integration weight cutoff        WCut        ... 1.0000e-14
Partially contracted basis set               ... on
Rotationally invariant grid construction     ... off
Angular grids for H and He will be reduced by one unit

Total number of grid points                  ...   176306
Total number of batches                      ...     1417
Average number of points per batch           ...      124
Average number of grid points per atom       ...     2415
UseSFitting                                  ... on
Initializing property integral containers    ... done (  0.0 sec)

SHARK setup successfully completed in   4.5 seconds

Maximum memory used throughout the entire STARTUP-calculation: 95.5 MB


           ************************************************************
           *        Program running with 4 parallel MPI-processes     *
           *              working on a common directory               *
           ************************************************************
-------------------------------------------------------------------------------
                                 ORCA GUESS
                   Start orbitals & Density for SCF / CASSCF
-------------------------------------------------------------------------------

------------
SCF SETTINGS
------------
Hamiltonian:
 Density Functional     Method          .... DFT(GTOs)
 Exchange Functional    Exchange        .... WB97X-V
 Correlation Functional Correlation     .... WB97X-V
 Gradients option       PostSCFGGA      .... off
 Hybrid DFT is turned on
   Fraction HF Exchange ScalHFX         ....  0.167000
   Scaling of DF-GGA-X  ScalDFX         ....  0.000000
   Scaling of DF-GGA-C  ScalDFC         ....  1.000000
   Scaling of DF-LDA-C  ScalLDAC        ....  1.000000
   Perturbative correction              ....  0.000000
 Long-range corrected/Screened/Range-Separated Hybrid DFT is turned on
   Amount of maximum screened exact exchange              ....  0.833000
   Range separation parameter mu (erf(mu*r12)/r12)        ....  0.300000
 RI-approximation to the Coulomb term is turned on
   Number of AuxJ basis functions       .... 1905
   RIJ-COSX (HFX calculated with COS-X)).... on


General Settings:
 Integral files         IntName         .... inpS
 Hartree-Fock type      HFTyp           .... RHF
 Total Charge           Charge          ....    0
 Multiplicity           Mult            ....    1
 Number of Electrons    NEL             ....  220
 Basis Dimension        Dim             ....  626
 Nuclear Repulsion      ENuc            ....   2776.0829741791 Eh

Convergence Acceleration:
 AO-DIIS                CNVDIIS         .... on
   Start iteration      DIISMaxIt       ....    12
   Startup error        DIISStart       ....  0.200000
   # of expansion vecs  DIISMaxEq       ....     5
   Bias factor          DIISBfac        ....   1.050
   Max. coefficient     DIISMaxC        ....  10.000
 MO-DIIS                CNVKDIIS        .... off
 Trust-Rad. Augm. Hess. CNVTRAH         .... auto
   Auto Start mean grad. ratio tolernc. ....  1.125000
   Auto Start start iteration           ....    50
   Auto Start num. interpolation iter.  ....    10
   Max. Number of Micro iterations      ....    24
   Max. Number of Macro iterations      .... Maxiter - #DIIS iter
   Number of Davidson start vectors     ....     2
   Converg. threshold    (grad. norm)   ....   1.000e-04
   Grad. Scal. Fac. for Micro threshold ....   0.100
   Minimum threshold for Micro iter.    ....   1.000e-02
   NR start threshold (gradient norm)   ....   1.000e-04
   Initial trust radius                 ....   0.400
   Minimum AH scaling param. (alpha)    ....   1.000
   Maximum AH scaling param. (alpha)    .... 1000.000
   Quad. conv. algorithm                .... NR
   White noise on init. David. guess    .... on
   Maximum white noise                  ....   0.010
   Pseudo random numbers                .... off
   Inactive MOs                         .... canonical
   Orbital update algorithm             .... Taylor
   Preconditioner                       .... Diag
   Full preconditioner red. dimension   ....   250
 SOSCF                  CNVSOSCF        .... off
 Level Shifting         CNVShift        .... on
   Level shift para.    LevelShift      ....    0.2500
   Turn off err/grad.   ShiftErr        ....    0.0010
 Zerner damping         CNVZerner       .... off
 Static damping         CNVDamp         .... on
   Fraction old density DampFac         ....    0.7000
   Max. Damping (<1)    DampMax         ....    0.9800
   Min. Damping (>=0)   DampMin         ....    0.0000
   Turn off err/grad.   DampErr         ....    0.1000

SCF Procedure:
 Maximum # iterations   MaxIter         ....   125
 SCF integral mode      SCFMode         .... Direct
   Integral package                     .... SHARK and LIBINT hybrid scheme
 Reset frequency        DirectResetFreq ....    20
 Integral Threshold     Thresh          ....  3.000e-11 Eh
 Primitive CutOff       TCut            ....  1.000e-12 Eh

Convergence Tolerance:
 Convergence Check Mode ConvCheckMode   .... Total+1el-Energy
 Convergence forced     ConvForced      .... 0
 Energy Change          TolE            ....  1.000e-07 Eh
 1-El. energy change                    ....  1.000e-04 Eh
 DIIS Error             TolErr          ....  1.000e-07

------------------------------
INITIAL GUESS: MODEL POTENTIAL
------------------------------
Loading Hartree-Fock densities                     ... done
Calculating cut-offs                               ... done
Initializing the effective Hamiltonian             ... done
Setting up the integral package (SHARK)            ... done
Starting the Coulomb interaction                   ... done (   0.6 sec)
Making the grid                                    ... done (   0.5 sec)
Mapping shells                                     ... done
Starting the XC term evaluation                    ... done (   0.3 sec)
  promolecular density results
     # of electrons  =    219.990855266
     EX              =   -109.112980049
     EC              =     -8.880844220
     EX+EC           =   -117.993824269
Transforming the Hamiltonian                       ... done (   0.0 sec)
Diagonalizing the Hamiltonian                      ... done (   0.1 sec)
Back transforming the eigenvectors                 ... done (   0.0 sec)
Now organizing SCF variables                       ... done
                      ------------------
                      INITIAL GUESS DONE (   1.4 sec)
                      ------------------
             **** ENERGY FILE WAS UPDATED (inpS.en.tmp) ****
Finished Guess after   1.6 sec
Maximum memory used throughout the entire GUESS-calculation: 56.4 MB


           ************************************************************
           *        Program running with 4 parallel MPI-processes     *
           *              working on a common directory               *
           ************************************************************

-------------------------------------------------------------------------------------------
                                      ORCA LEAN-SCF
                              memory conserving SCF solver
-------------------------------------------------------------------------------------------

--------------------
CPCM SOLVATION MODEL
--------------------
CPCM parameters:
  Epsilon                                         ...       4.8030
  Refrac                                          ...       1.4459
  Rsolv                                           ...       1.3000
  Surface type                                    ... GAUSSIAN VDW
  Discretization scheme                           ... Constant charge density
    Threshold for H atoms                         ...       5.0000 (charges/Ang^2)
    Threshold for non-H atoms                     ...       5.0000 (charges/Ang^2)
  Epsilon function type                           ...         CPCM
Solvent:                                          ... CHLOROFORM
Radii:
  Scheme                                          ... Element-dependent radii
  Radius for C  used is    3.8550 Bohr (=   2.0400 Ang.)
  Radius for H  used is    2.4944 Bohr (=   1.3200 Ang.)
  Radius for O  used is    3.4469 Bohr (=   1.8240 Ang.)
Calculating surface                               ...        done! (  0.0s)
Cavity surface points                             ...         5405
Cavity Volume                                     ...    3610.0414
Cavity Surface-area                               ...    1797.9440
Calculating surface distance matrix               ...        done! (  0.2s)
Performing Cholesky decomposition & store         ...        done! (  1.0s)
Overall time for CPCM initialization              ...                 1.2s

----------------------------------------D-I-I-S--------------------------------------------
Iteration    Energy (Eh)           Delta-E    RMSDP     MaxDP     DIISErr   Damp  Time(sec)
-------------------------------------------------------------------------------------------
               ***  Starting incremental Fock matrix formation  ***
    1    -1168.2253611748683397     0.00e+00  7.30e-04  5.61e-02  5.64e-02  0.700  24.2

  HOMO= 109 E= -7.291 eV LUMO=  8.320 eV gap=  15.611 eV
    2    -1168.2681386448170997    -4.28e-02  6.17e-04  4.71e-02  3.92e-02  0.700  11.1

  HOMO= 109 E= -7.466 eV LUMO=  8.230 eV gap=  15.695 eV
                               ***Turning on AO-DIIS***
    3    -1168.2954810421465481    -2.73e-02  4.91e-04  3.78e-02  2.70e-02  0.700  11.0

  HOMO= 109 E= -7.810 eV LUMO=  8.026 eV gap=  15.836 eV
    4    -1168.3138098688223181    -1.83e-02  1.28e-03  9.56e-02  1.91e-02  0.000  10.7

  HOMO= 109 E= -7.855 eV LUMO=  8.026 eV gap=  15.881 eV
    5    -1168.3581529085608963    -4.43e-02  1.32e-04  5.99e-03  3.48e-03  0.000  11.6

  HOMO= 109 E= -7.862 eV LUMO=  8.069 eV gap=  15.931 eV
    6    -1168.3585115675032284    -3.59e-04  5.15e-05  2.51e-03  2.04e-03  0.000   9.8

  HOMO= 109 E= -7.863 eV LUMO=  8.088 eV gap=  15.951 eV
    7    -1168.3585754203450051    -6.39e-05  2.62e-05  1.23e-03  1.27e-03  0.000   9.1

  HOMO= 109 E= -7.876 eV LUMO=  8.089 eV gap=  15.965 eV
    8    -1168.3585952111052393    -1.98e-05  1.20e-05  6.23e-04  6.77e-04  0.000   8.5

  HOMO= 109 E= -7.877 eV LUMO=  8.095 eV gap=  15.972 eV
               *** Restarting incremental Fock matrix formation ***
                             ****Resetting DIIS****
    9    -1168.3586244519533466    -2.92e-05  6.90e-06  4.25e-04  3.59e-04  0.000  23.9

  HOMO= 109 E= -7.878 eV LUMO=  1.292 eV gap=   9.170 eV
   10    -1168.3586259744279232    -1.52e-06  3.34e-06  2.23e-04  1.56e-04  0.000  13.4

  HOMO= 109 E= -7.880 eV LUMO=  1.294 eV gap=   9.173 eV
   11    -1168.3586262533590343    -2.79e-07  1.40e-06  8.44e-05  1.12e-04  0.000  11.1

  HOMO= 109 E= -7.881 eV LUMO=  1.294 eV gap=   9.175 eV
   12    -1168.3586263341194353    -8.08e-08  3.19e-07  1.59e-05  1.82e-05  0.000   9.1
                 **** Energy Check signals convergence ****

  HOMO= 109 E= -7.881 eV LUMO=  1.295 eV gap=   9.175 eV

               *****************************************************
               *                     SUCCESS                       *
               *           SCF CONVERGED AFTER  12 CYCLES          *
               *****************************************************

Recomputing exchange energy using gridx3       ... done (   41.195 sec)
Old exchange energy                            :    -56.782338971 Eh
New exchange energy                            :    -56.782315917 Eh
Exchange energy change after final integration :      0.000023053 Eh
Total energy after final integration           :  -1168.358603281 Eh
             **** ENERGY FILE WAS UPDATED (inpS.en.tmp) ****

----------------
TOTAL SCF ENERGY
----------------

Total Energy       :      -1168.35860328075046 Eh          -31792.65390 eV

Components:
Nuclear Repulsion  :       2776.08297417914901 Eh           75541.05816 eV
Electronic Energy  :      -3944.43086044649817 Eh         -107333.42044 eV
One Electron Energy:      -7097.49834019996251 Eh         -193132.74852 eV
Two Electron Energy:       3153.06747975346434 Eh           85799.32808 eV
CPCM Dielectric    :         -0.01074006677030 Eh              -0.29225 eV

Virial components:
Potential Energy   :      -2321.66888442563322 Eh          -63175.82214 eV
Kinetic Energy     :       1153.31028114488299 Eh           31383.16824 eV
Virial Ratio       :          2.01304793894747

DFT components:
N(Alpha)           :      110.000163795018 electrons
N(Beta)            :      110.000163795018 electrons
N(Total)           :      220.000327590036 electrons
E(X)               :     -111.768459536890 Eh       
E(C)               :       -8.950355217613 Eh       
E(XC)              :     -120.718814754504 Eh       

CPCM Solvation Model Properties:
Surface-charge          :         -0.04157897287522
Corrected charge        :         -0.00000000000000
Outlying charge corr.   :          0.00006048945299 Eh               0.00165 eV
Free-energy (cav+disp)  :  This term is not implemented in the current solvation scheme

---------------
SCF CONVERGENCE
---------------

  Last Energy change         ...    8.0760e-08  Tolerance :   1.0000e-07
  Last MAX-Density change    ...    1.5921e-05  Tolerance :   1.0000e-05
  Last RMS-Density change    ...    3.1895e-07  Tolerance :   1.0000e-06
  Last DIIS Error            ...    1.8196e-05  Tolerance :   1.0000e-07


----------------
ORBITAL ENERGIES
----------------

  NO   OCC          E(Eh)            E(eV) 
   0   2.0000     -19.213643      -522.8298 
   1   2.0000     -10.329709      -281.0857 
   2   2.0000     -10.293346      -280.0962 
   3   2.0000     -10.290112      -280.0082 
   4   2.0000     -10.285908      -279.8938 
   5   2.0000     -10.285729      -279.8889 
   6   2.0000     -10.285044      -279.8703 
   7   2.0000     -10.283898      -279.8391 
   8   2.0000     -10.281926      -279.7854 
   9   2.0000     -10.281530      -279.7746 
  10   2.0000     -10.281040      -279.7613 
  11   2.0000     -10.280759      -279.7537 
  12   2.0000     -10.279391      -279.7165 
  13   2.0000     -10.278406      -279.6897 
  14   2.0000     -10.276822      -279.6466 
  15   2.0000     -10.276691      -279.6430 
  16   2.0000     -10.276668      -279.6424 
  17   2.0000     -10.276470      -279.6370 
  18   2.0000     -10.274588      -279.5858 
  19   2.0000     -10.272200      -279.5208 
  20   2.0000     -10.271798      -279.5098 
  21   2.0000     -10.271663      -279.5062 
  22   2.0000     -10.271143      -279.4920 
  23   2.0000     -10.270114      -279.4640 
  24   2.0000     -10.269594      -279.4499 
  25   2.0000     -10.269328      -279.4426 
  26   2.0000     -10.267397      -279.3901 
  27   2.0000     -10.267182      -279.3842 
  28   2.0000     -10.266756      -279.3726 
  29   2.0000      -1.131561       -30.7913 
  30   2.0000      -0.997816       -27.1520 
  31   2.0000      -0.979066       -26.6418 
  32   2.0000      -0.956361       -26.0239 
  33   2.0000      -0.941906       -25.6306 
  34   2.0000      -0.916899       -24.9501 
  35   2.0000      -0.910112       -24.7654 
  36   2.0000      -0.889096       -24.1935 
  37   2.0000      -0.887081       -24.1387 
  38   2.0000      -0.872822       -23.7507 
  39   2.0000      -0.852737       -23.2041 
  40   2.0000      -0.836355       -22.7584 
  41   2.0000      -0.829762       -22.5790 
  42   2.0000      -0.808358       -21.9965 
  43   2.0000      -0.801471       -21.8091 
  44   2.0000      -0.794546       -21.6207 
  45   2.0000      -0.786805       -21.4101 
  46   2.0000      -0.758929       -20.6515 
  47   2.0000      -0.751534       -20.4503 
  48   2.0000      -0.724780       -19.7223 
  49   2.0000      -0.712776       -19.3956 
  50   2.0000      -0.712141       -19.3783 
  51   2.0000      -0.700381       -19.0583 
  52   2.0000      -0.689175       -18.7534 
  53   2.0000      -0.678875       -18.4731 
  54   2.0000      -0.654730       -17.8161 
  55   2.0000      -0.637605       -17.3501 
  56   2.0000      -0.630732       -17.1631 
  57   2.0000      -0.620463       -16.8836 
  58   2.0000      -0.604932       -16.4610 
  59   2.0000      -0.597719       -16.2647 
  60   2.0000      -0.590294       -16.0627 
  61   2.0000      -0.583568       -15.8797 
  62   2.0000      -0.569523       -15.4975 
  63   2.0000      -0.566785       -15.4230 
  64   2.0000      -0.563428       -15.3317 
  65   2.0000      -0.559960       -15.2373 
  66   2.0000      -0.550894       -14.9906 
  67   2.0000      -0.547200       -14.8901 
  68   2.0000      -0.545739       -14.8503 
  69   2.0000      -0.541751       -14.7418 
  70   2.0000      -0.535816       -14.5803 
  71   2.0000      -0.527474       -14.3533 
  72   2.0000      -0.522985       -14.2311 
  73   2.0000      -0.518533       -14.1100 
  74   2.0000      -0.518074       -14.0975 
  75   2.0000      -0.513177       -13.9643 
  76   2.0000      -0.503435       -13.6992 
  77   2.0000      -0.501040       -13.6340 
  78   2.0000      -0.497085       -13.5264 
  79   2.0000      -0.493718       -13.4348 
  80   2.0000      -0.490087       -13.3360 
  81   2.0000      -0.487988       -13.2788 
  82   2.0000      -0.485142       -13.2014 
  83   2.0000      -0.478589       -13.0231 
  84   2.0000      -0.478190       -13.0122 
  85   2.0000      -0.472914       -12.8686 
  86   2.0000      -0.465409       -12.6644 
  87   2.0000      -0.464035       -12.6270 
  88   2.0000      -0.461691       -12.5632 
  89   2.0000      -0.454098       -12.3566 
  90   2.0000      -0.448952       -12.2166 
  91   2.0000      -0.445250       -12.1159 
  92   2.0000      -0.440633       -11.9902 
  93   2.0000      -0.430334       -11.7100 
  94   2.0000      -0.426258       -11.5991 
  95   2.0000      -0.424517       -11.5517 
  96   2.0000      -0.421775       -11.4771 
  97   2.0000      -0.420986       -11.4556 
  98   2.0000      -0.414217       -11.2714 
  99   2.0000      -0.412085       -11.2134 
 100   2.0000      -0.411895       -11.2082 
 101   2.0000      -0.404557       -11.0086 
 102   2.0000      -0.401335       -10.9209 
 103   2.0000      -0.397439       -10.8149 
 104   2.0000      -0.394198       -10.7267 
 105   2.0000      -0.379864       -10.3366 
 106   2.0000      -0.371784       -10.1168 
 107   2.0000      -0.357000        -9.7145 
 108   2.0000      -0.336297        -9.1511 
 109   2.0000      -0.289602        -7.8805 
 110   0.0000       0.047573         1.2945 
 111   0.0000       0.100372         2.7312 
 112   0.0000       0.108594         2.9550 
 113   0.0000       0.133786         3.6405 
 114   0.0000       0.138088         3.7576 
 115   0.0000       0.147544         4.0149 
 116   0.0000       0.152428         4.1478 
 117   0.0000       0.155445         4.2299 
 118   0.0000       0.158888         4.3236 
 119   0.0000       0.163252         4.4423 
 120   0.0000       0.167883         4.5683 
*Only the first 10 virtual orbitals were printed.

                    ********************************
                    * MULLIKEN POPULATION ANALYSIS *
                    ********************************

-----------------------
MULLIKEN ATOMIC CHARGES
-----------------------
   0 C :   -0.127148
   1 C :    0.144179
   2 C :    0.081638
   3 H :    0.016712
   4 H :    0.013294
   5 C :   -0.184427
   6 C :    0.111246
   7 C :    0.006490
   8 H :    0.029746
   9 H :    0.012194
  10 H :    0.023635
  11 H :    0.011370
  12 O :   -0.355201
  13 H :    0.014152
  14 C :   -0.024734
  15 C :   -0.044642
  16 H :    0.036375
  17 H :    0.029227
  18 C :   -0.060683
  19 H :   -0.006909
  20 C :   -0.116126
  21 H :    0.000729
  22 C :    0.114612
  23 C :   -0.000339
  24 H :    0.012793
  25 H :    0.017514
  26 C :    0.105345
  27 H :    0.012612
  28 H :    0.014852
  29 C :   -0.410087
  30 H :    0.008741
  31 H :   -0.002887
  32 C :   -0.040509
  33 H :    0.010940
  34 C :    0.115627
  35 H :    0.181685
  36 C :    0.074473
  37 H :    0.006818
  38 H :    0.015394
  39 C :   -0.039776
  40 H :    0.008592
  41 H :   -0.000086
  42 H :   -0.008764
  43 C :   -0.042565
  44 C :    0.092532
  45 H :    0.022965
  46 H :    0.018564
  47 H :    0.019697
  48 H :    0.000186
  49 C :    0.052947
  50 C :   -0.051845
  51 C :   -0.073417
  52 H :    0.020528
  53 H :    0.004878
  54 C :   -0.040761
  55 C :    0.017639
  56 C :   -0.152019
  57 H :    0.016874
  58 H :    0.009658
  59 C :    0.022030
  60 C :    0.035317
  61 H :    0.020575
  62 H :    0.023915
  63 H :    0.019502
  64 H :    0.016824
  65 H :    0.019047
  66 H :    0.011914
  67 H :    0.015831
  68 H :    0.014507
  69 H :    0.016660
  70 H :    0.016165
  71 H :    0.030706
  72 H :    0.012483
Sum of atomic charges:   -0.0000000

--------------------------------
MULLIKEN REDUCED ORBITAL CHARGES
--------------------------------
  0 C s       :     3.077830  s :     3.077830
      pz      :     1.004790  p :     3.006479
      px      :     0.999186
      py      :     1.002502
      dz2     :     0.003188  d :     0.042839
      dxz     :     0.007035
      dyz     :     0.006175
      dx2y2   :     0.014718
      dxy     :     0.011724

  1 C s       :     2.932379  s :     2.932379
      pz      :     0.980323  p :     2.888999
      px      :     0.940940
      py      :     0.967737
      dz2     :     0.006806  d :     0.034443
      dxz     :     0.009210
      dyz     :     0.004995
      dx2y2   :     0.009102
      dxy     :     0.004331

  2 C s       :     3.075276  s :     3.075276
      pz      :     1.041839  p :     2.771935
      px      :     0.755418
      py      :     0.974678
      dz2     :     0.011459  d :     0.071150
      dxz     :     0.016072
      dyz     :     0.009517
      dx2y2   :     0.019471
      dxy     :     0.014631

  3 H s       :     0.960097  s :     0.960097
      pz      :     0.010891  p :     0.023192
      px      :     0.007657
      py      :     0.004644

  4 H s       :     0.963916  s :     0.963916
      pz      :     0.004457  p :     0.022790
      px      :     0.003817
      py      :     0.014516

  5 C s       :     3.111890  s :     3.111890
      pz      :     1.002551  p :     3.027745
      px      :     0.974451
      py      :     1.050743
      dz2     :     0.011220  d :     0.044793
      dxz     :     0.006685
      dyz     :     0.012053
      dx2y2   :     0.008260
      dxy     :     0.006575

  6 C s       :     2.949073  s :     2.949073
      pz      :     0.974970  p :     2.904206
      px      :     0.966566
      py      :     0.962670
      dz2     :     0.006712  d :     0.035474
      dxz     :     0.009330
      dyz     :     0.005317
      dx2y2   :     0.009258
      dxy     :     0.004857

  7 C s       :     3.013233  s :     3.013233
      pz      :     0.990492  p :     2.945254
      px      :     0.987573
      py      :     0.967189
      dz2     :     0.005158  d :     0.035023
      dxz     :     0.008274
      dyz     :     0.006914
      dx2y2   :     0.009657
      dxy     :     0.005021

  8 H s       :     0.946964  s :     0.946964
      pz      :     0.011503  p :     0.023290
      px      :     0.007203
      py      :     0.004584

  9 H s       :     0.964985  s :     0.964985
      pz      :     0.004689  p :     0.022821
      px      :     0.003749
      py      :     0.014383

 10 H s       :     0.953675  s :     0.953675
      pz      :     0.010949  p :     0.022690
      px      :     0.005066
      py      :     0.006674

 11 H s       :     0.965940  s :     0.965940
      pz      :     0.011048  p :     0.022690
      px      :     0.007197
      py      :     0.004445

 12 O s       :     3.726319  s :     3.726319
      pz      :     1.529158  p :     4.616680
      px      :     1.245132
      py      :     1.842390
      dz2     :     0.002634  d :     0.012203
      dxz     :     0.004258
      dyz     :     0.001537
      dx2y2   :     0.001852
      dxy     :     0.001922

 13 H s       :     0.965626  s :     0.965626
      pz      :     0.011210  p :     0.020222
      px      :     0.004955
      py      :     0.004057

 14 C s       :     3.197259  s :     3.197259
      pz      :     0.988534  p :     2.791242
      px      :     0.886750
      py      :     0.915959
      dz2     :     0.002681  d :     0.036233
      dxz     :     0.007543
      dyz     :     0.003462
      dx2y2   :     0.012094
      dxy     :     0.010453

 15 C s       :     3.122882  s :     3.122882
      pz      :     0.979446  p :     2.895511
      px      :     1.001478
      py      :     0.914588
      dz2     :     0.007176  d :     0.026249
      dxz     :     0.004275
      dyz     :     0.007208
      dx2y2   :     0.004732
      dxy     :     0.002856

 16 H s       :     0.939079  s :     0.939079
      pz      :     0.010483  p :     0.024545
      px      :     0.006061
      py      :     0.008001

 17 H s       :     0.946146  s :     0.946146
      pz      :     0.004104  p :     0.024626
      px      :     0.004699
      py      :     0.015823

 18 C s       :     3.200958  s :     3.200958
      pz      :     1.028740  p :     2.824422
      px      :     0.876019
      py      :     0.919663
      dz2     :     0.002786  d :     0.035303
      dxz     :     0.006925
      dyz     :     0.003242
      dx2y2   :     0.012361
      dxy     :     0.009990

 19 H s       :     0.982593  s :     0.982593
      pz      :     0.004762  p :     0.024316
      px      :     0.004449
      py      :     0.015104

 20 C s       :     3.099660  s :     3.099660
      pz      :     0.955952  p :     2.972461
      px      :     0.993574
      py      :     1.022935
      dz2     :     0.003413  d :     0.044004
      dxz     :     0.007111
      dyz     :     0.007048
      dx2y2   :     0.014747
      dxy     :     0.011685

 21 H s       :     0.974747  s :     0.974747
      pz      :     0.004633  p :     0.024524
      px      :     0.004368
      py      :     0.015523

 22 C s       :     2.924494  s :     2.924494
      pz      :     1.000551  p :     2.925329
      px      :     0.976334
      py      :     0.948444
      dz2     :     0.009273  d :     0.035564
      dxz     :     0.004254
      dyz     :     0.006271
      dx2y2   :     0.009952
      dxy     :     0.005815

 23 C s       :     3.000722  s :     3.000722
      pz      :     1.010448  p :     2.963176
      px      :     0.968007
      py      :     0.984720
      dz2     :     0.009658  d :     0.036442
      dxz     :     0.007827
      dyz     :     0.003197
      dx2y2   :     0.010273
      dxy     :     0.005487

 24 H s       :     0.963967  s :     0.963967
      pz      :     0.004752  p :     0.023240
      px      :     0.013944
      py      :     0.004544

 25 H s       :     0.959174  s :     0.959174
      pz      :     0.013296  p :     0.023312
      px      :     0.004930
      py      :     0.005086

 26 C s       :     2.970816  s :     2.970816
      pz      :     0.967595  p :     2.888487
      px      :     0.974027
      py      :     0.946865
      dz2     :     0.006656  d :     0.035352
      dxz     :     0.006719
      dyz     :     0.005985
      dx2y2   :     0.008779
      dxy     :     0.007214

 27 H s       :     0.964508  s :     0.964508
      pz      :     0.013368  p :     0.022879
      px      :     0.004568
      py      :     0.004943

 28 H s       :     0.962505  s :     0.962505
[...]
 Total          139.582          173.609          192.135  iso=     168.442

 Orientation: 
  X           0.2751336   -0.5118249    0.8138407
  Y          -0.1877444   -0.8588168   -0.4766400
  Z           0.9428963   -0.0216544   -0.3323817

 --------------
 Nucleus  39C :
 --------------

Diamagnetic contribution to the shielding tensor (ppm) : 
           264.339          4.812        -7.229
             4.821        259.641         8.026
            -7.444          6.178       264.469

Paramagnetic contribution to the shielding tensor (ppm): 
           -98.464         -1.312         8.785
             2.774       -125.681        -2.655
            13.662         -3.432      -134.527

Total shielding tensor (ppm): 
           165.876          3.501         1.556
             7.594        133.960         5.371
             6.218          2.746       129.942


 Diagonalized sT*s matrix:
 
 sDSO           256.934          267.075          264.441  iso=     262.817
 sPSO          -129.515         -132.073          -97.083  iso=    -119.557
        ---------------  ---------------  ---------------
 Total          127.419          135.002          167.357  iso=     143.259

 Orientation: 
  X          -0.0082371   -0.2041763   -0.9788995
  Y          -0.5251872    0.8339313   -0.1695199
  Z           0.8509468    0.5127092   -0.1141000

 --------------
 Nucleus  43C :
 --------------

Diamagnetic contribution to the shielding tensor (ppm) : 
           257.757         -0.579        -5.930
            -3.118        244.306         9.831
           -10.661         13.824       249.154

Paramagnetic contribution to the shielding tensor (ppm): 
           -94.604         -1.756         6.131
             7.735        -95.082        -8.546
            12.712        -13.165       -96.544

Total shielding tensor (ppm): 
           163.153         -2.335         0.202
             4.618        149.224         1.285
             2.051          0.658       152.610


 Diagonalized sT*s matrix:
 
 sDSO           239.083          256.426          255.707  iso=     250.405
 sPSO           -90.165         -103.736          -92.328  iso=     -95.410
        ---------------  ---------------  ---------------
 Total          148.918          152.690          163.379  iso=     154.996

 Orientation: 
  X          -0.0483167   -0.1236703   -0.9911464
  Y           0.9694559    0.2330820   -0.0763421
  Z          -0.2404597    0.9645613   -0.1086312

 --------------
 Nucleus  44C :
 --------------

Diamagnetic contribution to the shielding tensor (ppm) : 
           251.057          0.912         1.779
            -1.255        255.986        -2.468
            -0.273          1.998       272.875

Paramagnetic contribution to the shielding tensor (ppm): 
           -72.020         -5.125        -2.014
            -1.047        -76.235        -1.109
             0.042         -5.629       -80.147

Total shielding tensor (ppm): 
           179.037         -4.213        -0.235
            -2.302        179.751        -3.577
            -0.231         -3.631       192.728


 Diagonalized sT*s matrix:
 
 sDSO           253.954          254.083          271.881  iso=     259.973
 sPSO           -78.250          -71.957          -78.194  iso=     -76.134
        ---------------  ---------------  ---------------
 Total          175.704          182.125          193.687  iso=     183.839

 Orientation: 
  X           0.6977137   -0.7151632    0.0416808
  Y           0.6987588    0.6665777   -0.2596351
  Z           0.1578979    0.2102758    0.9648069

 --------------
 Nucleus  49C :
 --------------

Diamagnetic contribution to the shielding tensor (ppm) : 
           241.792         -6.228        -2.450
           -17.723        256.272         6.008
           -10.202          8.291       245.081

Paramagnetic contribution to the shielding tensor (ppm): 
           -68.607          2.144        -3.458
            17.246        -69.418         2.898
             5.506         -1.901       -77.123

Total shielding tensor (ppm): 
           173.184         -4.083        -5.908
            -0.477        186.854         8.906
            -4.697          6.390       167.957


 Diagonalized sT*s matrix:
 
 sDSO           239.982          238.503          264.660  iso=     247.715
 sPSO           -76.665          -64.310          -74.174  iso=     -71.716
        ---------------  ---------------  ---------------
 Total          163.316          174.193          190.487  iso=     175.999

 Orientation: 
  X           0.4141093   -0.8821109    0.2244858
  Y          -0.2500723   -0.3473924   -0.9037601
  Z           0.8752013    0.3181178   -0.3644500

 --------------
 Nucleus  50C :
 --------------

Diamagnetic contribution to the shielding tensor (ppm) : 
           266.523         12.777         8.291
            13.924        256.053        -2.366
            13.717        -13.389       258.208

Paramagnetic contribution to the shielding tensor (ppm): 
          -200.095        -33.056       -92.981
           -44.227       -159.049        37.363
           -88.375         57.020      -236.717

Total shielding tensor (ppm): 
            66.428        -20.279       -84.690
           -30.303         97.004        34.997
           -74.658         43.631        21.491


 Diagonalized sT*s matrix:
 
 sDSO           273.915          267.877          238.992  iso=     260.261
 sPSO          -306.526         -209.002          -80.331  iso=    -198.620
        ---------------  ---------------  ---------------
 Total          -32.611           58.874          158.661  iso=      61.641

 Orientation: 
  X          -0.7007553    0.3599530   -0.6159349
  Y          -0.0988121    0.8060828    0.5834952
  Z          -0.7065254   -0.4697492    0.5292991

 --------------
 Nucleus  51C :
 --------------

Diamagnetic contribution to the shielding tensor (ppm) : 
           263.048         15.475         7.801
            17.595        258.897        -8.960
           -13.105          0.223       274.316

Paramagnetic contribution to the shielding tensor (ppm): 
          -188.671        -30.051       -88.177
           -29.699       -155.863        36.786
           -63.160         29.829      -249.276

Total shielding tensor (ppm): 
            74.377        -14.575       -80.377
           -12.104        103.033        27.826
           -76.265         30.053        25.040


 Diagonalized sT*s matrix:
 
 sDSO           266.402          276.675          253.184  iso=     265.420
 sPSO          -300.521         -189.231         -104.059  iso=    -197.937
        ---------------  ---------------  ---------------
 Total          -34.119           87.444          149.125  iso=      67.483

 Orientation: 
  X          -0.5905036    0.4832914   -0.6463242
  Y           0.1045034    0.8399106    0.5325685
  Z          -0.8002403   -0.2469406    0.5464758

 --------------
 Nucleus  54C :
 --------------

Diamagnetic contribution to the shielding tensor (ppm) : 
           252.806          5.355         3.423
            15.491        232.955       -11.448
             1.645         -5.599       253.253

Paramagnetic contribution to the shielding tensor (ppm): 
           -93.756        -10.419         1.677
           -19.435        -78.519        15.880
            -1.436          2.668       -86.551

Total shielding tensor (ppm): 
           159.050         -5.064         5.101
            -3.944        154.436         4.432
             0.209         -2.931       166.702


 Diagonalized sT*s matrix:
 
 sDSO           249.788          233.948          255.278  iso=     246.338
 sPSO           -98.376          -72.737          -87.712  iso=     -86.275
        ---------------  ---------------  ---------------
 Total          151.411          161.210          167.566  iso=     160.063

 Orientation: 
  X          -0.5397633    0.7803215    0.3158385
  Y          -0.8331632   -0.5488478   -0.0678613
  Z           0.1203936   -0.2997740    0.9463831

 --------------
 Nucleus  55C :
 --------------

Diamagnetic contribution to the shielding tensor (ppm) : 
           251.593          0.872        -5.204
             1.479        231.168        -6.362
           -23.007         -3.594       234.031

Paramagnetic contribution to the shielding tensor (ppm): 
           -64.829          9.147        -4.104
             5.383        -70.187         8.013
            10.818          0.952       -55.993

Total shielding tensor (ppm): 
           186.764         10.019        -9.308
             6.862        160.981         1.651
           -12.189         -2.641       178.038


 Diagonalized sT*s matrix:
 
 sDSO           232.768          224.459          259.564  iso=     238.931
 sPSO           -74.713          -52.296          -64.000  iso=     -63.670
        ---------------  ---------------  ---------------
 Total          158.055          172.163          195.564  iso=     175.261

 Orientation: 
  X           0.3356607    0.4422440   -0.8317163
  Y          -0.9297021    0.2976405   -0.2169426
  Z           0.1516109    0.8460676    0.5110614

 --------------
 Nucleus  56C :
 --------------

Diamagnetic contribution to the shielding tensor (ppm) : 
           243.507         -6.823         0.421
             2.305        241.515        -6.430
            13.303         -5.730       243.723

Paramagnetic contribution to the shielding tensor (ppm): 
           -80.267          9.410         3.978
             0.866        -83.575         2.987
           -11.972          6.626       -68.174

Total shielding tensor (ppm): 
           163.240          2.588         4.399
             3.171        157.940        -3.443
             1.331          0.896       175.549


 Diagonalized sT*s matrix:
 
 sDSO           241.700          240.226          246.819  iso=     242.915
 sPSO           -85.310          -76.091          -70.615  iso=     -77.338
        ---------------  ---------------  ---------------
 Total          156.390          164.136          176.204  iso=     165.576

 Orientation: 
  X          -0.4271784    0.8810192    0.2032826
  Y           0.8967433    0.4415763   -0.0293577
  Z           0.1156294   -0.1697513    0.9786799

 --------------
 Nucleus  59C :
 --------------

Diamagnetic contribution to the shielding tensor (ppm) : 
           246.665         -6.751         3.004
           -17.918        238.327        -8.371
            14.696         -3.907       232.915

Paramagnetic contribution to the shielding tensor (ppm): 
           -65.702          0.055        -3.645
             7.183        -49.643        10.645
           -13.241          1.491       -55.698

Total shielding tensor (ppm): 
           180.963         -6.696        -0.640
           -10.735        188.684         2.274
             1.456         -2.417       177.218


 Diagonalized sT*s matrix:
 
 sDSO           231.688          233.849          252.370  iso=     239.302
 sPSO           -56.443          -56.589          -58.011  iso=     -57.014
        ---------------  ---------------  ---------------
 Total          175.245          177.260          194.359  iso=     182.288

 Orientation: 
  X           0.8271753    0.1150292   -0.5500449
  Y           0.5432022    0.0870098    0.8350812
  Z          -0.1439180    0.9895441   -0.0094883

 --------------
 Nucleus  60C :
 --------------

Diamagnetic contribution to the shielding tensor (ppm) : 
           245.729         -2.123        -7.621
             7.616        250.529        -2.683
            16.231         -1.908       261.825

Paramagnetic contribution to the shielding tensor (ppm): 
           -68.921        -11.956        -4.355
           -18.319        -80.878         3.041
           -27.824          6.960       -80.733

Total shielding tensor (ppm): 
           176.808        -14.079       -11.975
           -10.703        169.651         0.357
           -11.593          5.052       181.092


 Diagonalized sT*s matrix:
 
 sDSO           252.396          259.019          246.667  iso=     252.694
 sPSO           -93.436          -85.639          -51.458  iso=     -76.844
        ---------------  ---------------  ---------------
 Total          158.960          173.380          195.209  iso=     175.850

 Orientation: 
  X           0.6660540   -0.3358651   -0.6660081
  Y           0.6981806    0.5949711    0.3981874
  Z           0.2625183   -0.7302082    0.6307774



--------------------------------
CHEMICAL SHIELDING SUMMARY (ppm)
--------------------------------


  Nucleus  Element    Isotropic     Anisotropy
  -------  -------  ------------   ------------
      0       C           59.664        148.133 
      1       C          151.173         30.079 
      2       C          128.850         55.190 
      5       C           51.529        179.221 
      6       C          165.002         22.950 
      7       C          161.628         22.590 
     14       C           74.665        128.376 
     15       C           83.024        121.224 
     18       C           79.573        134.224 
     20       C           52.399        174.932 
     22       C          169.240          8.619 
     23       C          174.527         12.520 
     26       C          158.609         23.820 
     29       C          154.521         16.909 
     32       C          142.841         28.877 
     34       C          174.928         23.384 
     36       C          168.442         35.539 
     39       C          143.259         36.147 
     43       C          154.996         12.575 
     44       C          183.839         14.772 
     49       C          175.999         21.732 
     50       C           61.641        145.529 
     51       C           67.483        122.463 
     54       C          160.063         11.255 
     55       C          175.261         30.455 
     56       C          165.576         15.941 
     59       C          182.288         18.106 
     60       C          175.850         29.039 


NMR shielding tensor and spin rotation calculation done in   1.1 sec 

Maximum memory used throughout the entire PROP-calculation: 51.9 MB

--------------------------------
SUGGESTED CITATIONS FOR THIS RUN
--------------------------------

Below you find a list of papers that are relevant to this ORCA run
We neither can nor want to force you to cite these papers, but we appreciate if you do
You receive ORCA, which is the product of decades of hard work by many enthusiastic individuals, for free
The only thing we kindly ask in return is that you cite our papers,
We deeply appreciate it, if you show your appreciation for ORCA by not just citing the generic ORCA reference.

Please note that relegating all ORCA citations to the supporting information does *not* help us.
SI sections are not indexed - citations you put there will not count into any citation statistics
But we need these citations in order to attract the funding resources that allow us to do what we are doing

Therefore, if you are a happy ORCA user, please consider citing a few of the papers listed below in the main body of your paper

In addition to the list printed below, the program has created the file inpS.bibtex that contains the list in bibtex format
You can import this file easily into all common literature databanks and citation aid programs


List of essential papers. We consider these as the minimum necessary citations

  1. Neese,F.
     Software update: the ORCA program system, version 5.0
     WIRES Comput. Molec. Sci., 2022 12(1)e1606
     doi.org/10.1002/wcms.1606

List of papers to cite with high priority. The work reported in these papers was absolutely
necessary for this run to complete.
Our perspective: the developers of density functionals and basis sets usually get cited in chemistry papers
Good! But without the algorithms to do something with them, the functionals or basis sets would not do anything.
Hence, in our opinion, the algorithm design and method developments papers are equally worthy of getting cited

  1. Neese,F.
     An improvement of the resolution of the identity approximation for the formation of the Coulomb matrix
     J. Comp. Chem., 2003 24(14)1740-1747
     doi.org/10.1002/jcc.10318
  2. Neese,F.; Wennmohs,F.; Hansen,A.; Becker,U.
     Efficient, approximate and parallel Hartree-Fock and hybrid DFT calculations. A 'chain-of-spheres' algorithm for the Hartree-Fock exchange
     Chem. Phys., 2009 356(1-3)98-109
     doi.org/10.1016/j.chemphys.2008.10.036
  3. Stoychev,G.L.; Auer,A.A.; Izsak,R.; Neese,F.
     Self-Consistent Field Calculation of Nuclear Magnetic Resonance Chemical Shielding Constants Using Gauge-Including Atomic Orbitals and Approximate Two-Electron Integrals
     J. Chem. Theory Comput., 2018 14(2)619-637
     doi.org/10.1021/acs.jctc.7b01006
  4. Garcia-Rates,M.; Neese,F.
     Effect of the Solute Cavity on the Solvation Energy and its Derivatives within the Framework of the Gaussian Charge Scheme
     J. Comput. Chem., 2020 41 922-939
     doi.org/10.1002/jcc.26139
  5. Helmich-Paris,B.; de Souza,B.; Neese,F.; Izsák,R.
     An improved chain of spheres for exchange algorithm
     J. Chem. Phys., 2021 155 104109
     doi.org/doi: 10.1063/5.0058766.
  6. Neese,F.
     The SHARK Integral Generation and Digestion System
     J. Comp. Chem., 2022  1-16
     doi.org/10.1002/jcc.26942
  7. Caldeweyher,E.; Bannwarth,C.; Grimme,S.
     Extension of the D3 dispersion coefficient model
     J. Chem. Phys., 2017 147 034112-XXXX
     doi.org/10.1063/1.4993215
  8. Caldeweyher,E.; Ehlert,S.; Hansen,A.; Neugebauer,H.; Spicher,S.; Bannwarth,C.; Grimme,S.
     A generally applicable atomic-charge dependent London dispersion correction
     J. Chem. Phys., 2019 150 154122-XXXX
     doi.org/10.1063/1.5090222
  9. Caldeweyher,E.; Mewes,J.; Ehlert,S.; Grimme,S.
     Extension and evaluation of the D4 London-dispersion model for periodic systems
     Phys. Chem. Chem. Phys., 2020 22(16)8499-8512
     doi.org/10.1039/D0CP00502A

List of suggested additional citations. These are papers that are important in the 'surrounding' of 
of this run, or papers that preceded the highly important papers. If you like your results we are grateful for a citation.

  1. Izsak,R.; Neese,F.
     An overlap fitted chain of spheres exchange method
     J. Chem. Phys., 2011 135 144105
     doi.org/10.1063/1.3646921
  2. Izsak,R.; Hansen,A.; Neese,F.
     The resolution of identity and chain of spheres approximations for the LPNO-CCSD singles Fock term
     Molec. Phys., 2012 110 2413-2417
     doi.org/10.1080/00268976.2012.687466
  3. Neese,F.
     The ORCA program system
     WIRES Comput. Molec. Sci., 2012 2(1)73-78
     doi.org/10.1002/wcms.81
  4. Izsak,R.; Neese,F.; Klopper,W.
     Robust fitting techniques in the chain of spheres approximation to the Fock exchange: The role of the complementary space
     J. Chem. Phys., 2013 139 
     doi.org/10.1063/1.4819264
  5. Neese,F.
     Software update: the ORCA program system, version 4.0
     WIRES Comput. Molec. Sci., 2018 8(1)1-6
     doi.org/10.1002/wcms.1327
  6. Neese,F.; Wennmohs,F.; Becker,U.; Riplinger,C.
     The ORCA quantum chemistry program package
     J. Chem. Phys., 2020 152 Art. No. L224108
     doi.org/10.1063/5.0004608

Timings for individual modules:

Sum of individual times          ...      303.909 sec (=   5.065 min)
Startup calculation              ...        4.709 sec (=   0.078 min)   1.5 %
SCF iterations                   ...      198.705 sec (=   3.312 min)  65.4 %
Property integrals               ...       60.710 sec (=   1.012 min)  20.0 %
SCF Response                     ...       38.447 sec (=   0.641 min)  12.7 %
Property calculations            ...        1.338 sec (=   0.022 min)   0.4 %
                             ****ORCA TERMINATED NORMALLY****
TOTAL RUN TIME: 0 days 0 hours 5 minutes 4 seconds 213 msec
