
                                 *****************
                                 * O   R   C   A *
                                 *****************

                                            #,                                       
                                            ###                                      
                                            ####                                     
                                            #####                                    
                                            ######                                   
                                           ########,                                 
                                     ,,################,,,,,                         
                               ,,#################################,,                 
                          ,,##########################################,,             
                       ,#########################################, ''#####,          
                    ,#############################################,,   '####,        
                  ,##################################################,,,,####,       
                ,###########''''           ''''###############################       
              ,#####''   ,,,,##########,,,,          '''####'''          '####       
            ,##' ,,,,###########################,,,                        '##       
           ' ,,###''''                  '''############,,,                           
         ,,##''                                '''############,,,,        ,,,,,,###''
      ,#''                                            '''#######################'''  
     '                                                          ''''####''''         
             ,#######,   #######,   ,#######,      ##                                
            ,#'     '#,  ##    ##  ,#'     '#,    #''#        ,####,   ,####,        
            ##       ##  ##   ,#'  ##            #'  '#       #'       #'  '#        
            ##       ##  #######   ##           ,######,      #####,   #    #        
            '#,     ,#'  ##    ##  '#,     ,#' ,#      #,     #,   #   #,  ,#        
             '#######'   ##     ##  '#######'  #'      '#     '####' # '####'        



                #########################################################
                #                        -***-                          #
                #          Department of theory and spectroscopy        #
                #                                                       #
                #                      Frank Neese                      #
                #                                                       #
                #     Directorship, Architecture, Infrastructure        #
                #                    SHARK, DRIVERS                     #
                #        Core code/Algorithms in most modules           #
                #                                                       #
                #        Max Planck Institute fuer Kohlenforschung      #
                #                Kaiser Wilhelm Platz 1                 #
                #                 D-45470 Muelheim/Ruhr                 #
                #                      Germany                          #
                #                                                       #
                #                  All rights reserved                  #
                #                        -***-                          #
                #########################################################


                         Program Version 6.0.0  -   RELEASE  -


 With contributions from (in alphabetic order):
   Daniel Aravena         : Magnetic Suceptibility
   Michael Atanasov       : Ab Initio Ligand Field Theory (pilot matlab implementation)
   Alexander A. Auer      : GIAO ZORA, VPT2 properties, NMR spectrum
   Ute Becker             : All parallelization in ORCA, NUMFREQ, NUMCALC
   Giovanni Bistoni       : ED, misc. LED, open-shell LED, HFLD
   Martin Brehm           : Molecular dynamics
   Dmytro Bykov           : pre 5.0 version of the SCF Hessian
   Marcos Casanova-Páez   : Triplet and SCS-CIS(D). UHF-(DLPNO)-IP/EA/STEOM-CCSD. UHF-CVS-IP/STEOM-CCSD
   Vijay G. Chilkuri      : MRCI spin determinant printing, contributions to CSF-ICE
   Pauline Colinet        : FMM embedding
   Dipayan Datta          : RHF DLPNO-CCSD density
   Achintya Kumar Dutta   : EOM-CC, STEOM-CC
   Nicolas Foglia         : Exact transition moments, OPA infrastructure, MCD improvements
   Dmitry Ganyushin       : Spin-Orbit,Spin-Spin,Magnetic field MRCI
   Miquel Garcia          : C-PCM and meta-GGA Hessian, CCSD/C-PCM, Gaussian charge scheme
   Tiago L. C. Gouveia    : GS-ROHF, GS-ROCIS
   Yang Guo               : DLPNO-NEVPT2, F12-NEVPT2, CIM, IAO-localization
   Andreas Hansen         : Spin unrestricted coupled pair/coupled cluster methods
   Ingolf Harden          : AUTO-CI MPn and infrastructure 
   Benjamin Helmich-Paris : MC-RPA, TRAH-(SCF,CASSCF), AVAS, COSX integrals, SCF dyn. polar.
   Lee Huntington         : MR-EOM, pCC
   Robert Izsak           : Overlap fitted RIJCOSX, COSX-SCS-MP3, EOM
   Riya Kayal             : Wick's Theorem for AUTO-CI, AUTO-CI UHF-CCSDT
   Emily Kempfer          : AUTO-CI, RHF CISDT and CCSDT
   Christian Kollmar      : KDIIS, OOCD, Brueckner-CCSD(T), CCSD density, CASPT2, CASPT2-K, improved NEVPT2
   Axel Koslowski         : Symmetry handling
   Simone Kossmann        : Meta GGA functionals, TD-DFT gradient, OOMP2, (MP2 Hessian; deprecated post 5.0)
   Lucas Lang             : DCDCAS
   Marvin Lechner         : AUTO-CI (C++ implementation), FIC-MRCC
   Spencer Leger          : CASSCF response
   Dagmar Lenk            : GEPOL surface, SMD, ORCA-2-JSON
   Dimitrios Liakos       : Extrapolation schemes; Compound Job, initial MDCI parallelization
   Dimitrios Manganas     : Further ROCIS development; embedding schemes. LFT, Crystal Embedding
   Dimitrios Pantazis     : SARC Basis sets
   Anastasios Papadopoulos: AUTO-CI, single reference methods and gradients
   Taras Petrenko         : pre 6.0 DFT Hessian and TD-DFT gradient, (ASA, deprecated), ECA, 1-Electron XAS/XES, NRVS
   Peter Pinski           : DLPNO-MP2, DLPNO-MP2 Gradient
   Christoph Reimann      : Effective Core Potentials
   Marius Retegan         : Local ZFS, SOC
   Christoph Riplinger    : Optimizer, TS searches, QM/MM, DLPNO-CCSD(T), (RO)-DLPNO pert. Triples
   Michael Roemelt        : Original ROCIS implementation
   Masaaki Saitow         : Open-shell DLPNO-CCSD energy and density
   Barbara Sandhoefer     : DKH picture change effects
   Kantharuban Sivalingam : CASSCF convergence/infrastructure, NEVPT2 and variants, FIC-MRCI
   Bernardo de Souza      : ESD, SOC TD-DFT
   Georgi Stoychev        : AutoAux, RI-MP2 NMR, DLPNO-MP2 response, X2C
   Van Anh Tran           : RI-MP2 g-tensors
   Willem Van den Heuvel  : Paramagnetic NMR
   Zikuan Wang            : NOTCH, Electric field optimization 
   Frank Wennmohs         : Technical directorship and infrastructure
   Hang Xu                : AUTO-CI-Response properties 


 We gratefully acknowledge several colleagues who have allowed us to
 interface, adapt or use parts of their codes:
   Stefan Grimme, W. Hujo, H. Kruse, P. Pracht,  : VdW corrections, initial TS optimization,
                  C. Bannwarth, S. Ehlert,         DFT functionals, gCP, sTDA/sTD-DF
                  L. Wittmann, M. Mueller
   Ed Valeev, F. Pavosevic, A. Kumar             : LibInt (2-el integral package), F12 methods
   Garnet Chan, S. Sharma, J. Yang, R. Olivares  : DMRG
   Ulf Ekstrom                                   : XCFun DFT Library
   Mihaly Kallay                                 : mrcc  (arbitrary order and MRCC methods)
   Frank Weinhold                                : gennbo (NPA and NBO analysis)
   Simon Mueller                                 : openCOSMO-RS
   Christopher J. Cramer and Donald G. Truhlar   : smd solvation model
   Lars Goerigk                                  : TD-DFT with DH, B97 family of functionals
   V. Asgeirsson, H. Jonsson                     : NEB implementation
   FAccTs GmbH                                   : IRC, NEB, NEB-TS, DLPNO-Multilevel, CI-OPT
                                                   MM, QMMM, 2- and 3-layer-ONIOM, Crystal-QMMM,
                                                   LR-CPCM, SF, NACMEs, symmetry and pop. for TD-DFT,
                                                   nearIR, NL-DFT gradient (VV10), updates on ESD,
                                                   ML-optimized integration grids, MBIS, APM,
                                                   GOAT, DOCKER, SOLVATOR, interface openCOSMO-RS
   S Lehtola, MJT Oliveira, MAL Marques          : LibXC Library
   Liviu Ungur et al                             : ANISO software


 Your calculation uses the libint2 library for the computation of 2-el integrals
 For citations please refer to: http://libint.valeyev.net

 Your ORCA version has been built with support for libXC version: 6.2.2
 For citations please refer to: https://libxc.gitlab.io

 This ORCA versions uses:
   CBLAS   interface :  Fast vector & matrix operations
   LAPACKE interface :  Fast linear algebra routines
   SCALAPACK package :  Parallel linear algebra routines
   Shared memory     :  Shared parallel matrices
   BLAS/LAPACK       :  OpenBLAS 0.3.27  USE64BITINT DYNAMIC_ARCH NO_AFFINITY Zen SINGLE_THREADED
        Core in use  :  Zen
   Copyright (c) 2011-2014, The OpenBLAS Project


NOTE: MaxCore=8000 MB was set to SCF,MP2,MDCI,CIPSI,MRCI and CIS
      => If you want to overwrite this, your respective input block should be placed after the MaxCore statement
Your calculation utilizes the atom-pairwise dispersion correction
based on EEQ partial charges (D4)


================================================================================

----- Orbital basis set information -----
Your calculation utilizes the basis: pcJ-0
   F. Jensen, Theor. Chem. Acc. 126, 371 (2010).

----- AuxJ basis set information -----
Your calculation utilizes the auxiliary basis: def2/J
   F. Weigend, Phys. Chem. Chem. Phys. 8, 1057 (2006).

================================================================================
                                        WARNINGS
                       Please study these warnings very carefully!
================================================================================


================================================================================
                                       INPUT FILE
================================================================================
NAME = inpJ
|  1> ! pbe0
|  2> ! D4
|  3> ! pcJ-0
|  4> ! def2/J RIJCOSX
|  5> ! DEFGRID2
|  6> ! scfconv7
|  7> ! smallprint printgap noloewdin
|  8> ! NOSOSCF
|  9> %MaxCore 8000
| 10> %output
| 11>        print[P_BondOrder_M] 1
| 12>        print[P_Mayer] 1
| 13>        print[P_basis] 2
| 14> end
| 15> %pal
| 16>     nprocs 4
| 17> end
| 18> ! CPCM(chloroform)
| 19> *xyz 0 1
| 20> C   -5.0516992600   0.3152708800   0.3181971200
| 21> C   -6.4658130800  -0.0792751000  -0.0372494200
| 22> C   -7.0039495400   0.7367043100  -1.2189554700
| 23> H   -7.1275913100   0.1177204600   0.8233337300
| 24> H   -6.5234458800  -1.1493577700  -0.2649682000
| 25> C   -4.8529720000   1.7703467300   0.4884143300
| 26> C   -5.4343420900   2.6150098400  -0.6228408400
| 27> C   -6.8879049100   2.2288551100  -0.9283482500
| 28> H   -4.8343677600   2.4537028700  -1.5313143200
| 29> H   -5.3622999700   3.6775610500  -0.3678662600
| 30> H   -7.2614157900   2.8022345000  -1.7849406700
| 31> H   -7.5236201700   2.4692575700  -0.0627825500
| 32> O   -8.3491457100   0.3591106000  -1.5406446700
| 33> H   -6.4199045900   0.4935495600  -2.1176059700
| 34> C   -4.0739717900  -0.6163990200   0.4167798600
| 35> C   -4.2521630200   2.3116015600   1.5543325900
| 36> H   -3.8632153100   1.6941943600   2.3592625200
| 37> H   -4.1464472400   3.3897481500   1.6487943700
| 38> C   -2.6713627200  -0.3665885900   0.6560466400
| 39> H   -4.3781153800  -1.6503191400   0.2593704800
| 40> C   -1.7101580800  -1.2980158700   0.8350623400
| 41> H   -2.3728077600   0.6788982600   0.6830918800
| 42> C   -1.9272512800  -2.7895756600   0.8787122800
| 43> C   -0.9919160900  -3.5332611300  -0.0930539500
| 44> H   -2.9665720900  -3.0641848800   0.6789231800
| 45> H   -1.7000207200  -3.1309598300   1.9014150100
| 46> C    0.4785183100  -3.1267725400   0.0739095900
| 47> H   -1.3163182500  -3.3369208000  -1.1228296500
| 48> H   -1.0944187700  -4.6138833800   0.0649844500
| 49> C    0.6648497500  -1.6068113400  -0.0296152300
| 50> H    1.0801787000  -3.6539215200  -0.6737349600
| 51> H    0.8347746500  -3.4546108200   1.0622580700
| 52> C   -0.2674391900  -0.9472265500   1.0352219800
| 53> H    0.0340838400  -1.4138698800   1.9914251400
| 54> C    0.1900217500   0.5078242000   1.0832177000
| 55> H   -8.9009747400   0.5652569500  -0.7742805300
| 56> C    1.7210360300   0.4144427500   0.8699204400
| 57> H   -0.0806545300   0.9936221800   2.0266322200
| 58> H   -0.2742764200   1.0870029300   0.2771747200
| 59> C    2.0362493500  -1.0509544100   0.4442712700
| 60> H    2.2779230100   0.6819555500   1.7737149300
| 61> H    2.0506292800   1.1097705400   0.0890017900
| 62> H    2.3099140900  -1.6251751100   1.3449669800
| 63> C    3.2412585700  -1.1142360100  -0.5164552600
| 64> C    0.3307731500  -1.1053510000  -1.4412320800
| 65> H   -0.7331385500  -1.2250356800  -1.6680583900
| 66> H    0.9009891900  -1.6618765200  -2.1934066000
| 67> H    0.5722838400  -0.0443925200  -1.5603758300
| 68> H    3.0003594400  -0.5254436200  -1.4141441700
| 69> C    3.6049311000  -2.5431175800  -0.9466670100
| 70> C    4.4344818000  -0.4789852000   0.1487174000
| 71> C    5.0842652300   0.5846102600  -0.3226049900
| 72> H    4.7486126100  -0.9609450800   1.0736204700
| 73> H    4.7144812100   1.0119148600  -1.2604521100
| 74> C    6.2879031600   1.3156176200   0.2199154800
| 75> C    7.4141509100   1.2617474100  -0.8289456200
| 76> C    6.8063880300   0.9597126400   1.6323793800
| 77> H    5.9816316100   2.3740872300   0.2847763500
| 78> H    7.6066124800   1.6937087900   1.8175238200
| 79> C    7.4579150000  -0.4227354200   1.7572655400
| 80> C    5.7525100600   1.1855842600   2.7226535600
| 81> H    7.0812924100   1.6969238800  -1.7773483300
| 82> H    7.7193952500   0.2291536700  -1.0278324000
| 83> H    8.2919221800   1.8217183900  -0.4858726400
| 84> H    7.8573710400  -0.5534943700   2.7695129400
| 85> H    8.2910980900  -0.5410284100   1.0574204400
| 86> H    6.7512385300  -1.2371944200   1.5742446700
| 87> H    4.9649876300   0.4271060900   2.7000060500
| 88> H    5.2741146000   2.1652145900   2.6076186100
| 89> H    6.2180933900   1.1510679200   3.7140909600
| 90> H    4.5392156500  -2.5394998700  -1.5182945100
| 91> H    2.8287045600  -2.9873284600  -1.5748467300
| 92> H    3.7455328700  -3.1884782500  -0.0707912400
| 93> *
| 94> %eprnmr
| 95>  Nuclei = all C { ssfc }
| 96>  SpinSpinRThresh 8.0
| 97> end
| 98> 
| 99>                          ****END OF INPUT****
================================================================================

                       ****************************
                       * Single Point Calculation *
                       ****************************

---------------------------------
CARTESIAN COORDINATES (ANGSTROEM)
---------------------------------
  C     -5.051699    0.315271    0.318197
  C     -6.465813   -0.079275   -0.037249
  C     -7.003950    0.736704   -1.218955
  H     -7.127591    0.117720    0.823334
  H     -6.523446   -1.149358   -0.264968
  C     -4.852972    1.770347    0.488414
  C     -5.434342    2.615010   -0.622841
  C     -6.887905    2.228855   -0.928348
  H     -4.834368    2.453703   -1.531314
  H     -5.362300    3.677561   -0.367866
  H     -7.261416    2.802234   -1.784941
  H     -7.523620    2.469258   -0.062783
  O     -8.349146    0.359111   -1.540645
  H     -6.419905    0.493550   -2.117606
  C     -4.073972   -0.616399    0.416780
  C     -4.252163    2.311602    1.554333
  H     -3.863215    1.694194    2.359263
  H     -4.146447    3.389748    1.648794
  C     -2.671363   -0.366589    0.656047
  H     -4.378115   -1.650319    0.259370
  C     -1.710158   -1.298016    0.835062
  H     -2.372808    0.678898    0.683092
  C     -1.927251   -2.789576    0.878712
  C     -0.991916   -3.533261   -0.093054
  H     -2.966572   -3.064185    0.678923
  H     -1.700021   -3.130960    1.901415
  C      0.478518   -3.126773    0.073910
  H     -1.316318   -3.336921   -1.122830
  H     -1.094419   -4.613883    0.064984
  C      0.664850   -1.606811   -0.029615
  H      1.080179   -3.653922   -0.673735
  H      0.834775   -3.454611    1.062258
  C     -0.267439   -0.947227    1.035222
  H      0.034084   -1.413870    1.991425
  C      0.190022    0.507824    1.083218
  H     -8.900975    0.565257   -0.774281
  C      1.721036    0.414443    0.869920
  H     -0.080655    0.993622    2.026632
  H     -0.274276    1.087003    0.277175
  C      2.036249   -1.050954    0.444271
  H      2.277923    0.681956    1.773715
  H      2.050629    1.109771    0.089002
  H      2.309914   -1.625175    1.344967
  C      3.241259   -1.114236   -0.516455
  C      0.330773   -1.105351   -1.441232
  H     -0.733139   -1.225036   -1.668058
  H      0.900989   -1.661877   -2.193407
  H      0.572284   -0.044393   -1.560376
  H      3.000359   -0.525444   -1.414144
  C      3.604931   -2.543118   -0.946667
  C      4.434482   -0.478985    0.148717
  C      5.084265    0.584610   -0.322605
  H      4.748613   -0.960945    1.073620
  H      4.714481    1.011915   -1.260452
  C      6.287903    1.315618    0.219915
  C      7.414151    1.261747   -0.828946
  C      6.806388    0.959713    1.632379
  H      5.981632    2.374087    0.284776
  H      7.606612    1.693709    1.817524
  C      7.457915   -0.422735    1.757266
  C      5.752510    1.185584    2.722654
  H      7.081292    1.696924   -1.777348
  H      7.719395    0.229154   -1.027832
  H      8.291922    1.821718   -0.485873
  H      7.857371   -0.553494    2.769513
  H      8.291098   -0.541028    1.057420
  H      6.751239   -1.237194    1.574245
  H      4.964988    0.427106    2.700006
  H      5.274115    2.165215    2.607619
  H      6.218093    1.151068    3.714091
  H      4.539216   -2.539500   -1.518295
  H      2.828705   -2.987328   -1.574847
  H      3.745533   -3.188478   -0.070791

----------------------------
CARTESIAN COORDINATES (A.U.)
----------------------------
  NO LB      ZA    FRAG     MASS         X           Y           Z
   0 C     6.0000    0    12.011   -9.546328    0.595776    0.601305
   1 C     6.0000    0    12.011  -12.218616   -0.149808   -0.070391
   2 C     6.0000    0    12.011  -13.235546    1.392169   -2.303492
   3 H     1.0000    0     1.008  -13.469196    0.222459    1.555875
   4 H     1.0000    0     1.008  -12.327526   -2.171971   -0.500717
   5 C     6.0000    0    12.011   -9.170788    3.345470    0.922969
   6 C     6.0000    0    12.011  -10.269418    4.941652   -1.176999
   7 C     6.0000    0    12.011  -13.016254    4.211926   -1.754324
   8 H     1.0000    0     1.008   -9.135631    4.636826   -2.893765
   9 H     1.0000    0     1.008  -10.133278    6.949583   -0.695166
  10 H     1.0000    0     1.008  -13.722087    5.295456   -3.373049
  11 H     1.0000    0     1.008  -14.217582    4.666221   -0.118642
  12 O     8.0000    0    15.999  -15.777599    0.678621   -2.911396
  13 H     1.0000    0     1.008  -12.131861    0.932674   -4.001695
  14 C     6.0000    0    12.011   -7.698691   -1.164825    0.787600
  15 C     6.0000    0    12.011   -8.035424    4.368294    2.937263
  16 H     1.0000    0     1.008   -7.300419    3.201563    4.458360
  17 H     1.0000    0     1.008   -7.835650    6.405696    3.115770
  18 C     6.0000    0    12.011   -5.048144   -0.692752    1.239748
  19 H     1.0000    0     1.008   -8.273439   -3.118651    0.490139
  20 C     6.0000    0    12.011   -3.231730   -2.452895    1.578039
  21 H     1.0000    0     1.008   -4.483957    1.282932    1.290857
  22 C     6.0000    0    12.011   -3.641977   -5.271534    1.660526
  23 C     6.0000    0    12.011   -1.874450   -6.676896   -0.175846
  24 H     1.0000    0     1.008   -5.606009   -5.790470    1.282979
  25 H     1.0000    0     1.008   -3.212574   -5.916657    3.593154
  26 C     6.0000    0    12.011    0.904269   -5.908744    0.139669
  27 H     1.0000    0     1.008   -2.487481   -6.305866   -2.121841
  28 H     1.0000    0     1.008   -2.068152   -8.718976    0.122803
  29 C     6.0000    0    12.011    1.256384   -3.036433   -0.055965
  30 H     1.0000    0     1.008    2.041242   -6.904911   -1.273175
  31 H     1.0000    0     1.008    1.577495   -6.528268    2.007377
  32 C     6.0000    0    12.011   -0.505387   -1.789999    1.956286
  33 H     1.0000    0     1.008    0.064409   -2.671827    3.763248
  34 C     6.0000    0    12.011    0.359089    0.959649    2.046985
  35 H     1.0000    0     1.008  -16.820405    1.068181   -1.463178
  36 C     6.0000    0    12.011    3.252287    0.783183    1.643911
  37 H     1.0000    0     1.008   -0.152415    1.877674    3.829780
  38 H     1.0000    0     1.008   -0.518307    2.054138    0.523784
  39 C     6.0000    0    12.011    3.847954   -1.986016    0.839551
  40 H     1.0000    0     1.008    4.304651    1.288709    3.351835
  41 H     1.0000    0     1.008    3.875128    2.097162    0.168189
  42 H     1.0000    0     1.008    4.365105   -3.071136    2.541619
  43 C     6.0000    0    12.011    6.125091   -2.105601   -0.975959
  44 C     6.0000    0    12.011    0.625071   -2.088811   -2.723534
  45 H     1.0000    0     1.008   -1.385431   -2.314982   -3.152174
  46 H     1.0000    0     1.008    1.702623   -3.140491   -4.144938
  47 H     1.0000    0     1.008    1.081460   -0.083890   -2.948683
  48 H     1.0000    0     1.008    5.669858   -0.992945   -2.672345
  49 C     6.0000    0    12.011    6.812333   -4.805796   -1.788941
  50 C     6.0000    0    12.011    8.379956   -0.905151    0.281035
  51 C     6.0000    0    12.011    9.607869    1.104753   -0.609635
  52 H     1.0000    0     1.008    8.973577   -1.815923    2.028849
  53 H     1.0000    0     1.008    8.909078    1.912242   -2.381909
  54 C     6.0000    0    12.011   11.882415    2.486157    0.415580
  55 C     6.0000    0    12.011   14.010715    2.384357   -1.566480
  56 C     6.0000    0    12.011   12.862209    1.813594    3.084750
  57 H     1.0000    0     1.008   11.303646    4.486375    0.538149
  58 H     1.0000    0     1.008   14.374414    3.200646    3.434622
  59 C     6.0000    0    12.011   14.093417   -0.798854    3.320751
  60 C     6.0000    0    12.011   10.870669    2.240430    5.145070
  61 H     1.0000    0     1.008   13.381703    3.206721   -3.358702
  62 H     1.0000    0     1.008   14.587543    0.433038   -1.942322
  63 H     1.0000    0     1.008   15.669462    3.442549   -0.918166
  64 H     1.0000    0     1.008   14.848279   -1.045953    5.233621
  65 H     1.0000    0     1.008   15.667905   -1.022396    1.998235
  66 H     1.0000    0     1.008   12.757992   -2.337959    2.974891
  67 H     1.0000    0     1.008    9.382467    0.807114    5.102272
  68 H     1.0000    0     1.008    9.966632    4.091663    4.927685
  69 H     1.0000    0     1.008   11.750494    2.175203    7.018615
  70 H     1.0000    0     1.008    8.577874   -4.798959   -2.869161
  71 H     1.0000    0     1.008    5.345477   -5.645233   -2.976029
  72 H     1.0000    0     1.008    7.078031   -6.025351   -0.133776

--------------------------------
INTERNAL COORDINATES (ANGSTROEM)
--------------------------------
 C      0   0   0     0.000000000000     0.00000000     0.00000000
 C      1   0   0     1.510538536101     0.00000000     0.00000000
 C      2   1   0     1.533571790211   111.76796753     0.00000000
 H      2   1   3     1.103340851426   109.34978233   241.47609576
 H      2   1   3     1.095561181785   110.68804383   122.91394416
 C      1   2   3     1.478415419191   114.20503144    50.40763764
 C      6   1   2     1.512063161311   114.42484420   312.07660306
 C      3   2   1     1.524609104790   110.31397366   305.07571849
 H      7   6   1     1.100596746812   108.37077389   290.05571996
 H      7   6   1     1.095087748709   110.21893938   172.82759086
 H      8   3   2     1.096368950836   109.69368064   179.16959026
 H      8   3   2     1.100514068782   108.64749235   296.61863740
 O      3   2   1     1.433741150630   111.22270484   180.38030388
 H      3   2   1     1.099002027850   109.01882310    65.20867238
 C      1   2   3     1.354133806086   120.88819378   232.50077433
 C      6   1   2     1.337949908796   123.38353778   129.84050065
 H     16   6   1     1.086454860515   121.40678854     0.67171629
 H     16   6   1     1.087427663594   120.92718336   181.35063944
 C     15   1   2     1.444633533528   126.44928658   175.40245846
 H     15   1   2     1.089161076605   116.16628568   358.00870422
 C     19  15   1     1.350376895068   126.42573664   175.67899560
 H     19  15   1     1.087616321443   115.90382724   355.08218317
 C     21  19  15     1.507907617161   125.70659923   357.19314634
 C     23  21  19     1.540210895206   111.83397863   128.05188349
 H     23  21  19     1.093395470215   112.33307451     3.90109726
 H     23  21  19     1.101861040637   107.67659087   246.67611537
 C     24  23  21     1.534694471937   112.66356799    50.91162783
 H     24  23  21     1.097371531847   109.03553683   288.80665758
 H     24  23  21     1.096917217695   109.14892261   172.85282050
 C     27  24  23     1.534835119286   111.79455446   306.10912788
 H     27  24  23     1.094921752983   108.94655166   182.62119485
 H     27  24  23     1.100558601594   109.20518985    66.10776304
 C     21  19  15     1.498183841881   122.79690808   177.99728441
 H     33  21  19     1.105891775106   106.21700345   123.75390422
 C     33  21  19     1.526023193087   121.07306067     1.61168058
 H     13   3   2     0.966605188817   107.55250522    62.79734918
 C     35  33  21     1.548618914353   103.56439775   196.46915092
 H     35  33  21     1.095123866270   112.08433453    74.42459507
 H     35  33  21     1.095776472442   110.72109524   314.86843883
 C     30  27  24     1.553796062677   116.15835671   166.35827630
 H     37  35  33     1.094774262947   111.99054996   248.95964683
 H     37  35  33     1.096333153704   110.92089845   130.41638260
 H     40  30  27     1.102667023285   106.37230674   320.54525119
 C     40  30  27     1.542416042003   119.00556516    81.38855256
 C     30  27  24     1.534839333111   111.04878356   294.21412005
 H     45  30  27     1.094386907328   111.49954744    66.66355697
 H     45  30  27     1.095734226545   110.61791061   306.53249690
 H     45  30  27     1.094602915596   111.63914336   186.71393322
 H     44  40  30     1.100251902290   108.37214795    60.91440315
 C     44  40  30     1.535917445698   113.42935334   300.06797386
 C     44  40  30     1.506578884702   109.05347460   178.17564412
 C     51  44  40     1.332515892495   124.51359175   240.49650376
 H     51  44  40     1.089224118635   114.62939420    60.62355555
 H     52  51  44     1.094936830653   116.72911727   359.79539025
 C     52  51  44     1.509120434981   130.42156378   180.61131658
 C     55  52  51     1.539949869638   108.75444592   120.06574455
 C     55  52  51     1.546140091975   118.97129826   350.77109841
 H     55  52  51     1.103796679688   105.32666248   233.38329434
 H     57  55  52     1.101538915452   104.10944669   185.52918373
 C     57  55  52     1.533377508703   115.11401831    69.75413708
 C     57  55  52     1.533093132183   112.65865005   300.34278755
 H     56  55  52     1.095281261320   110.70799650    57.57678008
 H     56  55  52     1.094979401746   111.13569536   298.07675546
 H     56  55  52     1.096243116505   110.76765801   177.53448342
 H     60  57  55     1.096041892313   109.73265610   175.86886921
 H     60  57  55     1.094518367566   111.64212612    56.82785251
 H     60  57  55     1.093723792732   112.53241901   295.55400970
 H     61  57  55     1.093614933068   112.21656863    73.23549373
 H     61  57  55     1.096253090908   110.91703877   312.77835678
 H     61  57  55     1.095859175725   110.28558792   193.21669867
 H     50  44  40     1.095289325681   110.18690098   187.33846197
 H     50  44  40     1.092913861167   111.77409505    67.38351585
 H     50  44  40     1.097003927333   110.73244826   306.78035771

---------------------------
INTERNAL COORDINATES (A.U.)
---------------------------
 C      0   0   0     0.000000000000     0.00000000     0.00000000
 C      1   0   0     2.854504147966     0.00000000     0.00000000
 C      2   1   0     2.898030690207   111.76796753     0.00000000
 H      2   1   3     2.085012041563   109.34978233   241.47609576
 H      2   1   3     2.070310596529   110.68804383   122.91394416
 C      1   2   3     2.793800254437   114.20503144    50.40763764
 C      6   1   2     2.857385272069   114.42484420   312.07660306
 C      3   2   1     2.881093669336   110.31397366   305.07571849
 H      7   6   1     2.079826435359   108.37077389   290.05571996
 H      7   6   1     2.069415937673   110.21893938   172.82759086
 H      8   3   2     2.071837058814   109.69368064   179.16959026
 H      8   3   2     2.079670196526   108.64749235   296.61863740
 O      3   2   1     2.709378121625   111.22270484   180.38030388
 H      3   2   1     2.076812853261   109.01882310    65.20867238
 C      1   2   3     2.558942042187   120.88819378   232.50077433
 C      6   1   2     2.528358908530   123.38353778   129.84050065
 H     16   6   1     2.053102143240   121.40678854     0.67171629
 H     16   6   1     2.054940474643   120.92718336   181.35063944
 C     15   1   2     2.729961742248   126.44928658   175.40245846
 H     15   1   2     2.058216150510   116.16628568   358.00870422
 C     19  15   1     2.551842509253   126.42573664   175.67899560
 H     19  15   1     2.055296986311   115.90382724   355.08218317
 C     21  19  15     2.849532431689   125.70659923   357.19314634
 C     23  21  19     2.910576780420   111.83397863   128.05188349
 H     23  21  19     2.066217994777   112.33307451     3.90109726
 H     23  21  19     2.082215604442   107.67659087   246.67611537
 C     24  23  21     2.900152251203   112.66356799    50.91162783
 H     24  23  21     2.073731662352   109.03553683   288.80665758
 H     24  23  21     2.072873133027   109.14892261   172.85282050
 C     27  24  23     2.900418036175   111.79455446   306.10912788
 H     27  24  23     2.069102251210   108.94655166   182.62119485
 H     27  24  23     2.079754351343   109.20518985    66.10776304
 C     21  19  15     2.831157159421   122.79690808   177.99728441
 H     33  21  19     2.089832588707   106.21700345   123.75390422
 C     33  21  19     2.883765908947   121.07306067     1.61168058
 H     13   3   2     1.826619086490   107.55250522    62.79734918
 C     35  33  21     2.926465633937   103.56439775   196.46915092
 H     35  33  21     2.069484189971   112.08433453    74.42459507
 H     35  33  21     2.070717436909   110.72109524   314.86843883
 C     30  27  24     2.936249026425   116.15835671   166.35827630
 H     37  35  33     2.068823535436   111.99054996   248.95964683
 H     37  35  33     2.071769412038   110.92089845   130.41638260
 H     40  30  27     2.083738690915   106.37230674   320.54525119
 C     40  30  27     2.914743903953   119.00556516    81.38855256
 C     30  27  24     2.900425999150   111.04878356   294.21412005
 H     45  30  27     2.068091539400   111.49954744    66.66355697
 H     45  30  27     2.070637603734   110.61791061   306.53249690
 H     45  30  27     2.068499735869   111.63914336   186.71393322
 H     44  40  30     2.079174773655   108.37214795    60.91440315
 C     44  40  30     2.902463336682   113.42935334   300.06797386
 C     44  40  30     2.847021491235   109.05347460   178.17564412
 C     51  44  40     2.518090105912   124.51359175   240.49650376
 H     51  44  40     2.058335282682   114.62939420    60.62355555
 H     52  51  44     2.069130743878   116.72911727   359.79539025
 C     52  51  44     2.851824325219   130.42156378   180.61131658
 C     55  52  51     2.910083513584   108.75444592   120.06574455
 C     55  52  51     2.921781338508   118.97129826   350.77109841
 H     55  52  51     2.085873432142   105.32666248   233.38329434
 H     57  55  52     2.081606876061   104.10944669   185.52918373
 C     57  55  52     2.897663551362   115.11401831    69.75413708
 C     57  55  52     2.897126157622   112.65865005   300.34278755
 H     56  55  52     2.069781623511   110.70799650    57.57678008
 H     56  55  52     2.069211191585   111.13569536   298.07675546
 H     56  55  52     2.071599266392   110.76765801   177.53448342
 H     60  57  55     2.071219007776   109.73265610   175.86886921
 H     60  57  55     2.068339963246   111.64212612    56.82785251
 H     60  57  55     2.066838434417   112.53241901   295.55400970
 H     61  57  55     2.066632719465   112.21656863    73.23549373
 H     61  57  55     2.071618115281   110.91703877   312.77835678
 H     61  57  55     2.070873723464   110.28558792   193.21669867
 H     50  44  40     2.069796862944   110.18690098   187.33846197
 H     50  44  40     2.065307885571   111.77409505    67.38351585
 H     50  44  40     2.073036990495   110.73244826   306.78035771

---------------------
BASIS SET INFORMATION
---------------------
There are 3 groups of distinct atoms

 Group   1 Type C   : 7s4p contracted to 4s3p pattern {4111/211}
 Group   2 Type H   : 5s contracted to 3s pattern {311}
 Group   3 Type O   : 7s4p contracted to 4s3p pattern {4111/211}

Atom   0C    basis set group =>   1
Atom   1C    basis set group =>   1
Atom   2C    basis set group =>   1
Atom   3H    basis set group =>   2
Atom   4H    basis set group =>   2
Atom   5C    basis set group =>   1
Atom   6C    basis set group =>   1
Atom   7C    basis set group =>   1
Atom   8H    basis set group =>   2
Atom   9H    basis set group =>   2
Atom  10H    basis set group =>   2
Atom  11H    basis set group =>   2
Atom  12O    basis set group =>   3
Atom  13H    basis set group =>   2
Atom  14C    basis set group =>   1
Atom  15C    basis set group =>   1
Atom  16H    basis set group =>   2
Atom  17H    basis set group =>   2
Atom  18C    basis set group =>   1
Atom  19H    basis set group =>   2
Atom  20C    basis set group =>   1
Atom  21H    basis set group =>   2
Atom  22C    basis set group =>   1
Atom  23C    basis set group =>   1
Atom  24H    basis set group =>   2
Atom  25H    basis set group =>   2
Atom  26C    basis set group =>   1
Atom  27H    basis set group =>   2
Atom  28H    basis set group =>   2
Atom  29C    basis set group =>   1
Atom  30H    basis set group =>   2
Atom  31H    basis set group =>   2
Atom  32C    basis set group =>   1
Atom  33H    basis set group =>   2
Atom  34C    basis set group =>   1
Atom  35H    basis set group =>   2
Atom  36C    basis set group =>   1
Atom  37H    basis set group =>   2
Atom  38H    basis set group =>   2
Atom  39C    basis set group =>   1
Atom  40H    basis set group =>   2
Atom  41H    basis set group =>   2
Atom  42H    basis set group =>   2
Atom  43C    basis set group =>   1
Atom  44C    basis set group =>   1
Atom  45H    basis set group =>   2
Atom  46H    basis set group =>   2
Atom  47H    basis set group =>   2
Atom  48H    basis set group =>   2
Atom  49C    basis set group =>   1
Atom  50C    basis set group =>   1
Atom  51C    basis set group =>   1
Atom  52H    basis set group =>   2
Atom  53H    basis set group =>   2
Atom  54C    basis set group =>   1
Atom  55C    basis set group =>   1
Atom  56C    basis set group =>   1
Atom  57H    basis set group =>   2
Atom  58H    basis set group =>   2
Atom  59C    basis set group =>   1
Atom  60C    basis set group =>   1
Atom  61H    basis set group =>   2
Atom  62H    basis set group =>   2
Atom  63H    basis set group =>   2
Atom  64H    basis set group =>   2
Atom  65H    basis set group =>   2
Atom  66H    basis set group =>   2
Atom  67H    basis set group =>   2
Atom  68H    basis set group =>   2
Atom  69H    basis set group =>   2
Atom  70H    basis set group =>   2
Atom  71H    basis set group =>   2
Atom  72H    basis set group =>   2

-------------------------
BASIS SET IN INPUT FORMAT
-------------------------

 # Basis set for element : H 
 NewGTO H 
 S 3 
   1    1357.7500000000      0.0012928364
   2      54.3100000000      0.0588280685
   3       4.3448000000      0.9761499708
 S 1 
   1       0.6604910000      1.0000000000
 S 1 
   1       0.1366870000      1.0000000000
  end;

 # Basis set for element : C 
 NewGTO C 
 S 4 
   1  139534.0000000000      0.0001655246
   2    5581.3600000000      0.0074486101
   3     446.5090000000      0.1285821065
   4      67.4620000000      0.9218029311
 S 1 
   1      15.0674000000      1.0000000000
 S 1 
   1       3.9387600000      1.0000000000
 S 1 
   1       0.2999150000      1.0000000000
 P 2 
   1      28.3900000000      0.0816325586
   2       4.3676900000      0.9660360576
 P 1 
   1       0.8698170000      1.0000000000
 P 1 
   1       0.1889340000      1.0000000000
  end;

 # Basis set for element : O 
 NewGTO O 
 S 4 
   1  253789.0000000000      0.0001641076
   2   10151.6000000000      0.0074010921
   3     812.1250000000      0.1277711901
   4     122.6930000000      0.9223372164
 S 1 
   1      27.5608000000      1.0000000000
 S 1 
   1       7.3172600000      1.0000000000
 S 1 
   1       0.5792400000      1.0000000000
 P 2 
   1      53.4157000000      0.0793786106
   2       8.2177900000      0.9670506337
 P 1 
   1       1.6754400000      1.0000000000
 P 1 
   1       0.3506720000      1.0000000000
  end;

---------------------------------
AUXILIARY/J BASIS SET INFORMATION
---------------------------------
There are 3 groups of distinct atoms

 Group   1 Type C   : 12s5p4d2f1g contracted to 6s4p3d1f1g pattern {711111/2111/211/2/1}
 Group   2 Type H   : 5s2p1d contracted to 3s1p1d pattern {311/2/1}
 Group   3 Type O   : 12s5p4d2f1g contracted to 6s4p3d1f1g pattern {711111/2111/211/2/1}

Atom   0C    basis set group =>   1
Atom   1C    basis set group =>   1
Atom   2C    basis set group =>   1
Atom   3H    basis set group =>   2
Atom   4H    basis set group =>   2
Atom   5C    basis set group =>   1
Atom   6C    basis set group =>   1
Atom   7C    basis set group =>   1
Atom   8H    basis set group =>   2
Atom   9H    basis set group =>   2
Atom  10H    basis set group =>   2
Atom  11H    basis set group =>   2
Atom  12O    basis set group =>   3
Atom  13H    basis set group =>   2
Atom  14C    basis set group =>   1
Atom  15C    basis set group =>   1
Atom  16H    basis set group =>   2
Atom  17H    basis set group =>   2
Atom  18C    basis set group =>   1
Atom  19H    basis set group =>   2
Atom  20C    basis set group =>   1
Atom  21H    basis set group =>   2
Atom  22C    basis set group =>   1
Atom  23C    basis set group =>   1
Atom  24H    basis set group =>   2
Atom  25H    basis set group =>   2
Atom  26C    basis set group =>   1
Atom  27H    basis set group =>   2
Atom  28H    basis set group =>   2
Atom  29C    basis set group =>   1
Atom  30H    basis set group =>   2
Atom  31H    basis set group =>   2
Atom  32C    basis set group =>   1
Atom  33H    basis set group =>   2
Atom  34C    basis set group =>   1
Atom  35H    basis set group =>   2
Atom  36C    basis set group =>   1
Atom  37H    basis set group =>   2
Atom  38H    basis set group =>   2
Atom  39C    basis set group =>   1
Atom  40H    basis set group =>   2
Atom  41H    basis set group =>   2
Atom  42H    basis set group =>   2
Atom  43C    basis set group =>   1
Atom  44C    basis set group =>   1
Atom  45H    basis set group =>   2
Atom  46H    basis set group =>   2
Atom  47H    basis set group =>   2
Atom  48H    basis set group =>   2
Atom  49C    basis set group =>   1
Atom  50C    basis set group =>   1
Atom  51C    basis set group =>   1
Atom  52H    basis set group =>   2
Atom  53H    basis set group =>   2
Atom  54C    basis set group =>   1
Atom  55C    basis set group =>   1
Atom  56C    basis set group =>   1
Atom  57H    basis set group =>   2
Atom  58H    basis set group =>   2
Atom  59C    basis set group =>   1
Atom  60C    basis set group =>   1
Atom  61H    basis set group =>   2
Atom  62H    basis set group =>   2
Atom  63H    basis set group =>   2
Atom  64H    basis set group =>   2
Atom  65H    basis set group =>   2
Atom  66H    basis set group =>   2
Atom  67H    basis set group =>   2
Atom  68H    basis set group =>   2
Atom  69H    basis set group =>   2
Atom  70H    basis set group =>   2
Atom  71H    basis set group =>   2
Atom  72H    basis set group =>   2

-------------------------------------
AUXILIARY/J BASIS SET IN INPUT FORMAT
-------------------------------------

 # Auxiliary/J basis set for element : H 
 NewAuxJGTO H 
 S 3 
   1      15.6752927000      0.1007184237
   2       3.6063578000      0.3404257499
   3       1.2080016000      0.6491996172
 S 1 
   1       0.4726794000      1.0000000000
 S 1 
   1       0.2018100000      1.0000000000
 P 2 
   1       2.0281365000      0.5596620919
   2       0.5358730000      0.5596620919
 D 1 
   1       2.2165124000      1.0000000000
  end;

 # Auxiliary/J basis set for element : C 
 NewAuxJGTO C 
 S 7 
   1    1861.0916331000      0.0134602335
   2     642.9939764000      0.0299160374
   3     235.1105725000      0.1008649584
   4      90.7028894000      0.2370970548
   5      36.7794552000      0.3924037254
   6      15.6046273000      0.3195862154
   7       6.8907294000      0.0530104441
 S 1 
   1       3.1478850000     -1.0000000000
 S 1 
   1       1.4777287000      1.0000000000
 S 1 
   1       0.7076466000      1.0000000000
 S 1 
   1       0.3430122000      1.0000000000
 S 1 
   1       0.1669453000      1.0000000000
 P 2 
   1      13.5472892000     -0.6769313712
   2       5.4669419000     -0.3779500978
 P 1 
   1       2.1751721000      1.0000000000
 P 1 
   1       0.8582194000      1.0000000000
 P 1 
   1       0.3376720000      1.0000000000
 D 2 
   1       5.9287253000     -0.3533329857
   2       1.9809209000     -0.7456525731
 D 1 
   1       0.8055417000     -1.0000000000
 D 1 
   1       0.3531244000     -1.0000000000
 F 2 
   1       1.6755626000      0.6311076882
   2       0.5997536000      0.4968166032
 G 1 
   1       1.0024600000     -1.0000000000
  end;

 # Auxiliary/J basis set for element : O 
 NewAuxJGTO O 
 S 7 
   1    2876.8216605000      0.0168151159
   2    1004.7443032000      0.0340137548
   3     369.7579954000      0.1194951309
   4     142.9442404000      0.2664627624
   5      57.8366425000      0.4202764046
   6      24.3864983000      0.2765077335
   7      10.6622662000      0.0057008815
 S 1 
   1       4.8070437000     -1.0000000000
 S 1 
   1       2.2210770000      1.0000000000
 S 1 
   1       1.0447795000      1.0000000000
 S 1 
   1       0.4968425000      1.0000000000
 S 1 
   1       0.2371384000      1.0000000000
 P 2 
   1      64.2613382000     -0.2731534179
   2      16.3006076000     -0.8168011598
 P 1 
   1       4.3550542000      1.0000000000
 P 1 
   1       1.2019554000      1.0000000000
 P 1 
   1       0.3354196000      1.0000000000
 D 2 
   1       9.2146611000     -0.4661230638
   2       2.8435251000     -0.6600908911
 D 1 
   1       0.9955759000     -1.0000000000
 D 1 
   1       0.3649441000     -1.0000000000
 F 2 
   1       2.6420115000      0.5931563945
   2       0.7345613000      0.5931563945
 G 1 
   1       1.3931000000     -1.0000000000
  end;



           ************************************************************
           *        Program running with 4 parallel MPI-processes     *
           *              working on a common directory               *
           ************************************************************
------------------------------------------------------------------------------
                             ORCA STARTUP CALCULATIONS
                           -- RI-GTO INTEGRALS CHOSEN --
------------------------------------------------------------------------------
------------------------------------------------------------------------------
                   ___                                                        
                  /   \      - P O W E R E D   B Y -                         
                 /     \                                                     
                 |  |  |   _    _      __       _____    __    __             
                 |  |  |  | |  | |    /  \     |  _  \  |  |  /  |          
                  \  \/   | |  | |   /    \    | | | |  |  | /  /          
                 / \  \   | |__| |  /  /\  \   | |_| |  |  |/  /          
                |  |  |   |  __  | /  /__\  \  |    /   |      \           
                |  |  |   | |  | | |   __   |  |    \   |  |\   \          
                \     /   | |  | | |  |  |  |  | |\  \  |  | \   \       
                 \___/    |_|  |_| |__|  |__|  |_| \__\ |__|  \__/        
                                                                              
                      - O R C A' S   B I G   F R I E N D -                    
                                      &                                       
                       - I N T E G R A L  F E E D E R -                       
                                                                              
 v1 FN, 2020, v2 2021, v3 2022-2024                                           
------------------------------------------------------------------------------


----------------------
SHARK INTEGRAL PACKAGE
----------------------

Number of atoms                             ...     73
Number of basis functions                   ...    509
Number of shells                            ...    335
Maximum angular momentum                    ...      1
Integral batch strategy                     ... SHARK/LIBINT Hybrid
RI-J (if used) integral strategy            ... SPLIT-RIJ (Revised 2003 algorithm where possible)
Printlevel                                  ...      1
Contraction scheme used                     ... SEGMENTED contraction
Prescreening option                         ... SCHWARTZ
   Thresh                                   ... 3.000e-11
   Tcut                                     ... 1.000e-12
   Tpresel                                  ... 1.000e-12 
Coulomb Range Separation                    ... NOT USED
Exchange Range Separation                   ... NOT USED
Multipole approximations                    ... NOT USED
Finite Nucleus Model                        ... NOT USED
CABS basis                                  ... NOT available
Auxiliary Coulomb fitting basis             ... AVAILABLE
   # of basis functions in Aux-J            ...   1905
   # of shells in Aux-J                     ...    655
   Maximum angular momentum in Aux-J        ...      4
Auxiliary J/K fitting basis                 ... NOT available
Auxiliary Correlation fitting basis         ... NOT available
Auxiliary 'external' fitting basis          ... NOT available

Checking pre-screening integrals            ... done (  0.0 sec) Dimension = 335
Check shell pair data                       ... done (  0.0 sec)
Shell pair information
Shell pair cut-off parameter TPreSel        ...   1.0e-12
Total number of shell pairs                 ...     56280
Shell pairs after pre-screening             ...     21868
Total number of primitive shell pairs       ...    145865
Primitive shell pairs kept                  ...     37556
          la=0 lb=0:  11014 shell pairs
          la=1 lb=0:   8985 shell pairs
          la=1 lb=1:   1869 shell pairs

Calculating one electron integrals          ... done (  0.0 sec)
Calculating RI/J V-Matrix + Cholesky decomp.... done (  0.2 sec)
Calculating Nuclear repulsion               ... done (  0.0 sec) ENN=   2776.082974179149 Eh

Diagonalization of the overlap matrix:
Smallest eigenvalue                        ... 7.553e-03
Time for diagonalization                   ...    0.029 sec
Threshold for overlap eigenvalues          ... 1.000e-07
Number of eigenvalues below threshold      ... 0
Time for construction of square roots      ...    0.017 sec
Total time needed                          ...    0.049 sec

-------------------
DFT GRID GENERATION
-------------------

General Integration Accuracy     IntAcc      ... 4.388
Radial Grid Type                 RadialGrid  ... OptM3 with GC (2021)
Angular Grid (max. ang.)         AngularGrid ... 4 (Lebedev-302)
Angular grid pruning method      GridPruning ... 4 (adaptive)
Weight generation scheme         WeightScheme... mBecke (2022)
Basis function cutoff            BFCut       ... 1.0000e-11
Integration weight cutoff        WCut        ... 1.0000e-14
Partially contracted basis set               ... off
Rotationally invariant grid construction     ... off
Angular grids for H and He will be reduced by one unit

Total number of grid points                  ...   309870
Total number of batches                      ...     4875
Average number of points per batch           ...       63
Average number of grid points per atom       ...     4245

--------------------
COSX GRID GENERATION
--------------------

GRIDX 1
-------
General Integration Accuracy     IntAcc      ... 3.816
Radial Grid Type                 RadialGrid  ... OptM3 with GC (2021)
Angular Grid (max. ang.)         AngularGrid ... 1 (Lebedev-50)
Angular grid pruning method      GridPruning ... 4 (adaptive)
Weight generation scheme         WeightScheme... mBecke (2022)
Basis function cutoff            BFCut       ... 1.0000e-11
Integration weight cutoff        WCut        ... 1.0000e-14
Partially contracted basis set               ... on
Rotationally invariant grid construction     ... off
Angular grids for H and He will be reduced by one unit

Total number of grid points                  ...    39425
Total number of batches                      ...      353
Average number of points per batch           ...      111
Average number of grid points per atom       ...      540
UseSFitting                                  ... on

GRIDX 2
-------
General Integration Accuracy     IntAcc      ... 4.020
Radial Grid Type                 RadialGrid  ... OptM3 with GC (2021)
Angular Grid (max. ang.)         AngularGrid ... 2 (Lebedev-110)
Angular grid pruning method      GridPruning ... 4 (adaptive)
Weight generation scheme         WeightScheme... mBecke (2022)
Basis function cutoff            BFCut       ... 1.0000e-11
Integration weight cutoff        WCut        ... 1.0000e-14
Partially contracted basis set               ... on
Rotationally invariant grid construction     ... off
Angular grids for H and He will be reduced by one unit

Total number of grid points                  ...    81411
Total number of batches                      ...      678
Average number of points per batch           ...      120
Average number of grid points per atom       ...     1115
UseSFitting                                  ... on

GRIDX 3
-------
General Integration Accuracy     IntAcc      ... 4.338
Radial Grid Type                 RadialGrid  ... OptM3 with GC (2021)
Angular Grid (max. ang.)         AngularGrid ... 3 (Lebedev-194)
Angular grid pruning method      GridPruning ... 4 (adaptive)
Weight generation scheme         WeightScheme... mBecke (2022)
Basis function cutoff            BFCut       ... 1.0000e-11
Integration weight cutoff        WCut        ... 1.0000e-14
Partially contracted basis set               ... on
Rotationally invariant grid construction     ... off
Angular grids for H and He will be reduced by one unit

Total number of grid points                  ...   176306
Total number of batches                      ...     1417
Average number of points per batch           ...      124
Average number of grid points per atom       ...     2415
UseSFitting                                  ... on
Initializing property integral containers    ... done (  0.0 sec)

SHARK setup successfully completed in   4.0 seconds

Maximum memory used throughout the entire STARTUP-calculation: 85.3 MB


           ************************************************************
           *        Program running with 4 parallel MPI-processes     *
           *              working on a common directory               *
           ************************************************************
-------------------------------------------------------------------------------
                                 ORCA GUESS
                   Start orbitals & Density for SCF / CASSCF
-------------------------------------------------------------------------------

------------
SCF SETTINGS
------------
Hamiltonian:
 Density Functional     Method          .... DFT(GTOs)
 Exchange Functional    Exchange        .... PBE
   PBE kappa parameter   XKappa         ....  0.804000
   PBE mue parameter    XMuePBE         ....  0.219520
 Correlation Functional Correlation     .... PBE
   PBE beta parameter  CBetaPBE         ....  0.066725
 LDA part of GGA corr.  LDAOpt          .... PW91-LDA
 Gradients option       PostSCFGGA      .... off
 Hybrid DFT is turned on
   Fraction HF Exchange ScalHFX         ....  0.250000
   Scaling of DF-GGA-X  ScalDFX         ....  0.750000
   Scaling of DF-GGA-C  ScalDFC         ....  1.000000
   Scaling of DF-LDA-C  ScalLDAC        ....  1.000000
   Perturbative correction              ....  0.000000
   NL short-range parameter             ....  6.900000
 RI-approximation to the Coulomb term is turned on
   Number of AuxJ basis functions       .... 1905
   RIJ-COSX (HFX calculated with COS-X)).... on


General Settings:
 Integral files         IntName         .... inpJ
 Hartree-Fock type      HFTyp           .... RHF
 Total Charge           Charge          ....    0
 Multiplicity           Mult            ....    1
 Number of Electrons    NEL             ....  220
 Basis Dimension        Dim             ....  509
 Nuclear Repulsion      ENuc            ....   2776.0829741791 Eh

Convergence Acceleration:
 AO-DIIS                CNVDIIS         .... on
   Start iteration      DIISMaxIt       ....    12
   Startup error        DIISStart       ....  0.200000
   # of expansion vecs  DIISMaxEq       ....     5
   Bias factor          DIISBfac        ....   1.050
   Max. coefficient     DIISMaxC        ....  10.000
 MO-DIIS                CNVKDIIS        .... off
 Trust-Rad. Augm. Hess. CNVTRAH         .... auto
   Auto Start mean grad. ratio tolernc. ....  1.125000
   Auto Start start iteration           ....    50
   Auto Start num. interpolation iter.  ....    10
   Max. Number of Micro iterations      ....    24
   Max. Number of Macro iterations      .... Maxiter - #DIIS iter
   Number of Davidson start vectors     ....     2
   Converg. threshold    (grad. norm)   ....   1.000e-04
   Grad. Scal. Fac. for Micro threshold ....   0.100
   Minimum threshold for Micro iter.    ....   1.000e-02
   NR start threshold (gradient norm)   ....   1.000e-04
   Initial trust radius                 ....   0.400
   Minimum AH scaling param. (alpha)    ....   1.000
   Maximum AH scaling param. (alpha)    .... 1000.000
   Quad. conv. algorithm                .... NR
   White noise on init. David. guess    .... on
   Maximum white noise                  ....   0.010
   Pseudo random numbers                .... off
   Inactive MOs                         .... canonical
   Orbital update algorithm             .... Taylor
   Preconditioner                       .... Diag
   Full preconditioner red. dimension   ....   250
 SOSCF                  CNVSOSCF        .... off
 Level Shifting         CNVShift        .... on
   Level shift para.    LevelShift      ....    0.2500
   Turn off err/grad.   ShiftErr        ....    0.0010
 Zerner damping         CNVZerner       .... off
 Static damping         CNVDamp         .... on
   Fraction old density DampFac         ....    0.7000
   Max. Damping (<1)    DampMax         ....    0.9800
   Min. Damping (>=0)   DampMin         ....    0.0000
   Turn off err/grad.   DampErr         ....    0.1000

SCF Procedure:
 Maximum # iterations   MaxIter         ....   125
 SCF integral mode      SCFMode         .... Direct
   Integral package                     .... SHARK and LIBINT hybrid scheme
 Reset frequency        DirectResetFreq ....    20
 Integral Threshold     Thresh          ....  3.000e-11 Eh
 Primitive CutOff       TCut            ....  1.000e-12 Eh

Convergence Tolerance:
 Convergence Check Mode ConvCheckMode   .... Total+1el-Energy
 Convergence forced     ConvForced      .... 0
 Energy Change          TolE            ....  1.000e-07 Eh
 1-El. energy change                    ....  1.000e-04 Eh
 DIIS Error             TolErr          ....  1.000e-07

------------------------------
INITIAL GUESS: MODEL POTENTIAL
------------------------------
Loading Hartree-Fock densities                     ... done
Calculating cut-offs                               ... done
Initializing the effective Hamiltonian             ... done
Setting up the integral package (SHARK)            ... done
Starting the Coulomb interaction                   ... done (   0.3 sec)
Making the grid                                    ... done (   0.5 sec)
Mapping shells                                     ... done
Starting the XC term evaluation                    ... done (   0.1 sec)
  promolecular density results
     # of electrons  =    219.990855266
     EX              =   -164.430874399
     EC              =     -7.323879250
     EX+EC           =   -171.754753649
Transforming the Hamiltonian                       ... done (   0.0 sec)
Diagonalizing the Hamiltonian                      ... done (   0.0 sec)
Back transforming the eigenvectors                 ... done (   0.0 sec)
Now organizing SCF variables                       ... done
                      ------------------
                      INITIAL GUESS DONE (   1.0 sec)
                      ------------------
             **** ENERGY FILE WAS UPDATED (inpJ.en.tmp) ****
Finished Guess after   1.2 sec
Maximum memory used throughout the entire GUESS-calculation: 45.7 MB


           ************************************************************
           *        Program running with 4 parallel MPI-processes     *
           *              working on a common directory               *
           ************************************************************

-------------------------------------------------------------------------------------------
                                      ORCA LEAN-SCF
                              memory conserving SCF solver
-------------------------------------------------------------------------------------------

--------------------
CPCM SOLVATION MODEL
--------------------
CPCM parameters:
  Epsilon                                         ...       4.8030
  Refrac                                          ...       1.4459
  Rsolv                                           ...       1.3000
  Surface type                                    ... GAUSSIAN VDW
  Discretization scheme                           ... Constant charge density
    Threshold for H atoms                         ...       5.0000 (charges/Ang^2)
    Threshold for non-H atoms                     ...       5.0000 (charges/Ang^2)
  Epsilon function type                           ...         CPCM
Solvent:                                          ... CHLOROFORM
Radii:
  Scheme                                          ... Element-dependent radii
  Radius for C  used is    3.8550 Bohr (=   2.0400 Ang.)
  Radius for H  used is    2.4944 Bohr (=   1.3200 Ang.)
  Radius for O  used is    3.4469 Bohr (=   1.8240 Ang.)
Calculating surface                               ...        done! (  0.0s)
Cavity surface points                             ...         5405
Cavity Volume                                     ...    3610.0414
Cavity Surface-area                               ...    1797.9440
Calculating surface distance matrix               ...        done! (  0.3s)
Performing Cholesky decomposition & store         ...        done! (  1.2s)
Overall time for CPCM initialization              ...                 1.5s

----------------------------------------D-I-I-S--------------------------------------------
Iteration    Energy (Eh)           Delta-E    RMSDP     MaxDP     DIISErr   Damp  Time(sec)
-------------------------------------------------------------------------------------------
               ***  Starting incremental Fock matrix formation  ***
    1    -1165.0042376182141197     0.00e+00  1.50e-03  9.76e-02  1.94e-01  0.700   6.8

  HOMO= 109 E= -3.894 eV LUMO=  7.781 eV gap=  11.674 eV
    2    -1165.2225321072864972    -2.18e-01  1.11e-03  6.54e-02  9.43e-02  0.700   3.9

  HOMO= 109 E= -4.741 eV LUMO=  7.087 eV gap=  11.828 eV
                               ***Turning on AO-DIIS***
    3    -1165.3233626881974487    -1.01e-01  4.53e-04  2.22e-02  3.77e-02  0.700   4.0

  HOMO= 109 E= -5.745 eV LUMO=  6.145 eV gap=  11.890 eV
    4    -1165.3812304532489179    -5.79e-02  7.64e-04  3.20e-02  2.69e-02  0.000   3.7

  HOMO= 109 E= -5.911 eV LUMO=  5.982 eV gap=  11.893 eV
    5    -1165.5037063052641315    -1.22e-01  1.06e-04  6.29e-03  3.23e-03  0.000   3.8

  HOMO= 109 E= -5.960 eV LUMO=  5.938 eV gap=  11.897 eV
    6    -1165.5039282709653889    -2.22e-04  3.15e-05  1.94e-03  8.91e-04  0.000   3.5

  HOMO= 109 E= -5.924 eV LUMO=  5.978 eV gap=  11.902 eV
               *** Restarting incremental Fock matrix formation ***
                             ****Resetting DIIS****
    7    -1165.5040364000396949    -1.08e-04  1.53e-05  1.14e-03  3.00e-04  0.000   6.9

  HOMO= 109 E= -5.917 eV LUMO= -0.818 eV gap=   5.099 eV
    8    -1165.5040377368418376    -1.34e-06  7.03e-06  6.80e-04  4.44e-04  0.000   4.1

  HOMO= 109 E= -5.919 eV LUMO= -0.820 eV gap=   5.100 eV
    9    -1165.5040387028757323    -9.66e-07  2.70e-06  2.49e-04  2.02e-04  0.000   3.4

  HOMO= 109 E= -5.920 eV LUMO= -0.820 eV gap=   5.100 eV
   10    -1165.5040388901306869    -1.87e-07  8.89e-07  8.51e-05  5.52e-05  0.000   3.3

  HOMO= 109 E= -5.920 eV LUMO= -0.819 eV gap=   5.100 eV
   11    -1165.5040388982210970    -8.09e-09  2.79e-07  2.80e-05  1.42e-05  0.000   2.7
                 **** Energy Check signals convergence ****

  HOMO= 109 E= -5.920 eV LUMO= -0.819 eV gap=   5.100 eV

               *****************************************************
               *                     SUCCESS                       *
               *           SCF CONVERGED AFTER  11 CYCLES          *
               *****************************************************

Recomputing exchange energy using gridx3       ... done (    8.198 sec)
Old exchange energy                            :    -42.066727066 Eh
New exchange energy                            :    -42.066813557 Eh
Exchange energy change after final integration :     -0.000086491 Eh
Total energy after final integration           :  -1165.504125389 Eh
             **** ENERGY FILE WAS UPDATED (inpJ.en.tmp) ****

----------------
TOTAL SCF ENERGY
----------------

Total Energy       :      -1165.50412538896262 Eh          -31714.97961 eV

Components:
Nuclear Repulsion  :       2776.08297417914901 Eh           75541.05816 eV
Electronic Energy  :      -3941.57132298627857 Eh         -107255.60847 eV
One Electron Energy:      -7094.28559384773780 Eh         -193045.32524 eV
Two Electron Energy:       3152.71427086145923 Eh           85789.71678 eV
CPCM Dielectric    :         -0.01569009109133 Eh              -0.42695 eV

Virial components:
Potential Energy   :      -2322.40306141967085 Eh          -63195.80011 eV
Kinetic Energy     :       1156.89893603070823 Eh           31480.82050 eV
Virial Ratio       :          2.00743815132874

DFT components:
N(Alpha)           :      110.000232998205 electrons
N(Beta)            :      110.000232998205 electrons
N(Total)           :      220.000465996410 electrons
E(X)               :     -125.744479433228 Eh       
E(C)               :       -7.325481663200 Eh       
E(XC)              :     -133.069961096427 Eh       

CPCM Solvation Model Properties:
Surface-charge          :         -0.03318977488173
Corrected charge        :         -0.00000000000000
Outlying charge corr.   :          0.00003854257774 Eh               0.00105 eV
Free-energy (cav+disp)  :  This term is not implemented in the current solvation scheme

---------------
SCF CONVERGENCE
---------------

  Last Energy change         ...    8.0904e-09  Tolerance :   1.0000e-07
  Last MAX-Density change    ...    2.8041e-05  Tolerance :   1.0000e-05
  Last RMS-Density change    ...    2.7891e-07  Tolerance :   1.0000e-06
  Last DIIS Error            ...    1.4188e-05  Tolerance :   1.0000e-07


----------------
ORBITAL ENERGIES
----------------

  NO   OCC          E(Eh)            E(eV) 
   0   2.0000     -19.215112      -522.8698 
   1   2.0000     -10.301361      -280.3143 
   2   2.0000     -10.269502      -279.4474 
   3   2.0000     -10.266791      -279.3736 
   4   2.0000     -10.261764      -279.2368 
   5   2.0000     -10.256074      -279.0820 
   6   2.0000     -10.253425      -279.0099 
   7   2.0000     -10.252784      -278.9924 
   8   2.0000     -10.249386      -278.9000 
   9   2.0000     -10.249260      -278.8965 
  10   2.0000     -10.249223      -278.8955 
  11   2.0000     -10.246099      -278.8105 
  12   2.0000     -10.245203      -278.7862 
  13   2.0000     -10.245135      -278.7843 
  14   2.0000     -10.244513      -278.7674 
  15   2.0000     -10.243892      -278.7505 
  16   2.0000     -10.243044      -278.7274 
  17   2.0000     -10.241945      -278.6975 
  18   2.0000     -10.241826      -278.6943 
  19   2.0000     -10.241077      -278.6739 
  20   2.0000     -10.239121      -278.6206 
  21   2.0000     -10.233736      -278.4741 
  22   2.0000     -10.233606      -278.4706 
  23   2.0000     -10.232303      -278.4351 
  24   2.0000     -10.227757      -278.3114 
  25   2.0000     -10.225601      -278.2528 
  26   2.0000     -10.223270      -278.1893 
  27   2.0000     -10.223127      -278.1854 
  28   2.0000     -10.220229      -278.1066 
  29   2.0000      -1.045802       -28.4577 
  30   2.0000      -0.900517       -24.5043 
  31   2.0000      -0.883663       -24.0457 
  32   2.0000      -0.858793       -23.3690 
  33   2.0000      -0.845099       -22.9963 
  34   2.0000      -0.821849       -22.3636 
  35   2.0000      -0.813448       -22.1351 
  36   2.0000      -0.794806       -21.6278 
  37   2.0000      -0.794724       -21.6255 
  38   2.0000      -0.776710       -21.1353 
  39   2.0000      -0.757456       -20.6114 
  40   2.0000      -0.742150       -20.1949 
  41   2.0000      -0.735739       -20.0205 
  42   2.0000      -0.713559       -19.4169 
  43   2.0000      -0.703525       -19.1439 
  44   2.0000      -0.698971       -19.0200 
  45   2.0000      -0.693352       -18.8671 
  46   2.0000      -0.668888       -18.2014 
  47   2.0000      -0.657261       -17.8850 
  48   2.0000      -0.631902       -17.1949 
  49   2.0000      -0.621672       -16.9166 
  50   2.0000      -0.619421       -16.8553 
  51   2.0000      -0.608143       -16.5484 
  52   2.0000      -0.596614       -16.2347 
  53   2.0000      -0.587705       -15.9923 
  54   2.0000      -0.561021       -15.2662 
  55   2.0000      -0.549083       -14.9413 
  56   2.0000      -0.539328       -14.6759 
  57   2.0000      -0.529708       -14.4141 
  58   2.0000      -0.515046       -14.0151 
  59   2.0000      -0.506184       -13.7740 
  60   2.0000      -0.499328       -13.5874 
  61   2.0000      -0.490767       -13.3544 
  62   2.0000      -0.480165       -13.0659 
  63   2.0000      -0.477896       -13.0042 
  64   2.0000      -0.475730       -12.9453 
  65   2.0000      -0.469087       -12.7645 
  66   2.0000      -0.460505       -12.5310 
  67   2.0000      -0.457754       -12.4561 
  68   2.0000      -0.456783       -12.4297 
  69   2.0000      -0.451317       -12.2810 
  70   2.0000      -0.448091       -12.1932 
  71   2.0000      -0.437665       -11.9095 
  72   2.0000      -0.433559       -11.7977 
  73   2.0000      -0.430676       -11.7193 
  74   2.0000      -0.429080       -11.6759 
  75   2.0000      -0.423143       -11.5143 
  76   2.0000      -0.415788       -11.3142 
  77   2.0000      -0.413410       -11.2494 
  78   2.0000      -0.407741       -11.0952 
  79   2.0000      -0.403724       -10.9859 
  80   2.0000      -0.401899       -10.9362 
  81   2.0000      -0.399654       -10.8751 
  82   2.0000      -0.396992       -10.8027 
  83   2.0000      -0.390349       -10.6219 
  84   2.0000      -0.389887       -10.6094 
  85   2.0000      -0.385131       -10.4800 
  86   2.0000      -0.377935       -10.2841 
  87   2.0000      -0.375357       -10.2140 
  88   2.0000      -0.369562       -10.0563 
  89   2.0000      -0.367323        -9.9954 
  90   2.0000      -0.363411        -9.8889 
  91   2.0000      -0.358950        -9.7675 
  92   2.0000      -0.353134        -9.6093 
  93   2.0000      -0.343534        -9.3480 
  94   2.0000      -0.340914        -9.2767 
  95   2.0000      -0.339466        -9.2373 
  96   2.0000      -0.338204        -9.2030 
  97   2.0000      -0.332812        -9.0563 
  98   2.0000      -0.329845        -8.9755 
  99   2.0000      -0.328298        -8.9335 
 100   2.0000      -0.326185        -8.8759 
 101   2.0000      -0.318781        -8.6745 
 102   2.0000      -0.316086        -8.6011 
 103   2.0000      -0.312630        -8.5071 
 104   2.0000      -0.311425        -8.4743 
 105   2.0000      -0.298563        -8.1243 
 106   2.0000      -0.280009        -7.6194 
 107   2.0000      -0.274784        -7.4773 
 108   2.0000      -0.255851        -6.9621 
 109   2.0000      -0.217541        -5.9196 
 110   0.0000      -0.030103        -0.8191 
 111   0.0000       0.021275         0.5789 
 112   0.0000       0.028530         0.7764 
 113   0.0000       0.079445         2.1618 
 114   0.0000       0.089101         2.4245 
 115   0.0000       0.101161         2.7527 
 116   0.0000       0.102883         2.7996 
 117   0.0000       0.106934         2.9098 
 118   0.0000       0.108830         2.9614 
 119   0.0000       0.117325         3.1926 
 120   0.0000       0.118628         3.2280 
*Only the first 10 virtual orbitals were printed.

                    ********************************
                    * MULLIKEN POPULATION ANALYSIS *
                    ********************************

-----------------------
MULLIKEN ATOMIC CHARGES
-----------------------
   0 C :    0.107782
   1 C :   -0.499759
   2 C :   -0.054934
   3 H :    0.207214
   4 H :    0.222146
   5 C :    0.135602
   6 C :   -0.475718
   7 C :   -0.451698
   8 H :    0.214225
   9 H :    0.224083
  10 H :    0.229111
  11 H :    0.204639
  12 O :   -0.487397
  13 H :    0.233873
  14 C :   -0.283374
  15 C :   -0.516696
  16 H :    0.201296
  17 H :    0.196732
  18 C :   -0.260199
  19 H :    0.217621
  20 C :    0.151120
  21 H :    0.219060
  22 C :   -0.479990
  23 C :   -0.427256
  24 H :    0.211641
  25 H :    0.206456
  26 C :   -0.397284
  27 H :    0.208133
  28 H :    0.216740
  29 C :    0.003745
  30 H :    0.221358
  31 H :    0.194097
  32 C :   -0.229006
  33 H :    0.226684
  34 C :   -0.433104
  35 H :    0.343168
  36 C :   -0.418109
  37 H :    0.206944
  38 H :    0.197971
  39 C :   -0.186379
  40 H :    0.208830
  41 H :    0.205830
  42 H :    0.209015
  43 C :   -0.252656
  44 C :   -0.626567
  45 H :    0.208136
  46 H :    0.200002
  47 H :    0.205490
  48 H :    0.218053
  49 C :   -0.619255
  50 C :   -0.189278
  51 C :   -0.172331
  52 H :    0.215207
  53 H :    0.208322
  54 C :   -0.230585
  55 C :   -0.617482
  56 C :   -0.206257
  57 H :    0.223046
  58 H :    0.218888
  59 C :   -0.621953
  60 C :   -0.611516
  61 H :    0.205524
  62 H :    0.202537
  63 H :    0.202729
  64 H :    0.198840
  65 H :    0.205933
  66 H :    0.201454
  67 H :    0.206126
  68 H :    0.198673
  69 H :    0.198357
  70 H :    0.202224
  71 H :    0.211306
  72 H :    0.192825
Sum of atomic charges:   -0.0000000

--------------------------------
MULLIKEN REDUCED ORBITAL CHARGES
--------------------------------
  0 C s       :     3.355774  s :     3.355774
      pz      :     1.007482  p :     2.536445
      px      :     0.795301
      py      :     0.733661

  1 C s       :     3.383656  s :     3.383656
      pz      :     1.030410  p :     3.116103
      px      :     0.945565
      py      :     1.140128

  2 C s       :     3.306286  s :     3.306286
      pz      :     1.067170  p :     2.748649
      px      :     0.790907
      py      :     0.890572

  3 H s       :     0.792786  s :     0.792786

  4 H s       :     0.777854  s :     0.777854

  5 C s       :     3.345291  s :     3.345291
      pz      :     0.822114  p :     2.519107
      px      :     0.938910
      py      :     0.758083

  6 C s       :     3.368290  s :     3.368290
      pz      :     1.041710  p :     3.107428
      px      :     0.945916
      py      :     1.119802

  7 C s       :     3.340448  s :     3.340448
      pz      :     1.184790  p :     3.111250
      px      :     0.985667
      py      :     0.940793

  8 H s       :     0.785775  s :     0.785775

  9 H s       :     0.775917  s :     0.775917

 10 H s       :     0.770889  s :     0.770889

 11 H s       :     0.795361  s :     0.795361

 12 O s       :     3.685506  s :     3.685506
      pz      :     1.640341  p :     4.801891
      px      :     1.281547
      py      :     1.880003

 13 H s       :     0.766127  s :     0.766127

 14 C s       :     3.392426  s :     3.392426
      pz      :     1.010655  p :     2.890948
      px      :     0.809869
      py      :     1.070424

 15 C s       :     3.386925  s :     3.386925
      pz      :     0.990185  p :     3.129771
      px      :     1.010760
      py      :     1.128826

 16 H s       :     0.798704  s :     0.798704

 17 H s       :     0.803268  s :     0.803268

 18 C s       :     3.396685  s :     3.396685
      pz      :     1.032103  p :     2.863514
      px      :     0.759569
      py      :     1.071841

 19 H s       :     0.782379  s :     0.782379

 20 C s       :     3.350460  s :     3.350460
      pz      :     0.957349  p :     2.498420
      px      :     0.754023
      py      :     0.787048

 21 H s       :     0.780940  s :     0.780940

 22 C s       :     3.372447  s :     3.372447
      pz      :     1.095202  p :     3.107543
      px      :     1.124758
      py      :     0.887584

 23 C s       :     3.327079  s :     3.327079
      pz      :     1.084032  p :     3.100177
      px      :     0.897719
      py      :     1.118427

 24 H s       :     0.788359  s :     0.788359

 25 H s       :     0.793544  s :     0.793544

 26 C s       :     3.349769  s :     3.349769
      pz      :     1.178599  p :     3.047515
      px      :     0.954388
      py      :     0.914528

 27 H s       :     0.791867  s :     0.791867

 28 H s       :     0.783260  s :     0.783260

 29 C s       :     3.317417  s :     3.317417
      pz      :     0.867089  p :     2.678838
      px      :     0.905152
      py      :     0.906597

 30 H s       :     0.778642  s :     0.778642

 31 H s       :     0.805903  s :     0.805903

 32 C s       :     3.362723  s :     3.362723
      pz      :     1.065518  p :     2.866284
      px      :     0.867308
      py      :     0.933458

 33 H s       :     0.773316  s :     0.773316

 34 C s       :     3.344546  s :     3.344546
      pz      :     1.187519  p :     3.088558
      px      :     0.932646
      py      :     0.968393

 35 H s       :     0.656832  s :     0.656832

 36 C s       :     3.336056  s :     3.336056
      pz      :     1.163432  p :     3.082054
      px      :     0.942752
      py      :     0.975870

 37 H s       :     0.793056  s :     0.793056

 38 H s       :     0.802029  s :     0.802029

 39 C s       :     3.337223  s :     3.337223
      pz      :     1.050576  p :     2.849156
      px      :     0.863378
      py      :     0.935202

 40 H s       :     0.791170  s :     0.791170

 41 H s       :     0.794170  s :     0.794170

 42 H s       :     0.790985  s :     0.790985

 43 C s       :     3.344440  s :     3.344440
      pz      :     1.063736  p :     2.908216
      px      :     0.881928
      py      :     0.962553

 44 C s       :     3.365942  s :     3.365942
      pz      :     0.964377  p :     3.260625
      px      :     1.157814
      py      :     1.138435

 45 H s       :     0.791864  s :     0.791864

 46 H s       :     0.799998  s :     0.799998

 47 H s       :     0.794510  s :     0.794510

 48 H s       :     0.781947  s :     0.781947

 49 C s       :     3.347239  s :     3.347239
      pz      :     1.142107  p :     3.272017
      px      :     1.157020
      py      :     0.972889

 50 C s       :     3.347251  s :     3.347251
      pz      :     1.053768  p :     2.842027
      px      :     0.896874
      py      :     0.891385

 51 C s       :     3.348703  s :     3.348703
      pz      :     1.063936  p :     2.823629
      px      :     0.883363
      py      :     0.876330

 52 H s       :     0.784793  s :     0.784793

 53 H s       :     0.791678  s :     0.791678

 54 C s       :     3.340658  s :     3.340658
      pz      :     0.889775  p :     2.889927
      px      :     0.894394
      py      :     1.105758

 55 C s       :     3.343306  s :     3.343306
      pz      :     1.067310  p :     3.274176
      px      :     1.038636
      py      :     1.168230

 56 C s       :     3.319144  s :     3.319144
      pz      :     0.888133  p :     2.887113
      px      :     1.012582
      py      :     0.986398

 57 H s       :     0.776954  s :     0.776954

 58 H s       :     0.781112  s :     0.781112

 59 C s       :     3.347997  s :     3.347997
      pz      :     1.155548  p :     3.273956
      px      :     1.129445
      py      :     0.988963

 60 C s       :     3.344375  s :     3.344375
      pz      :     1.048309  p :     3.267141
      px      :     1.056694
      py      :     1.162138

 61 H s       :     0.794476  s :     0.794476

 62 H s       :     0.797463  s :     0.797463

 63 H s       :     0.797271  s :     0.797271

 64 H s       :     0.801160  s :     0.801160

 65 H s       :     0.794067  s :     0.794067

 66 H s       :     0.798546  s :     0.798546

 67 H s       :     0.793874  s :     0.793874

 68 H s       :     0.801327  s :     0.801327

 69 H s       :     0.801643  s :     0.801643

 70 H s       :     0.797776  s :     0.797776

 71 H s       :     0.788694  s :     0.788694

 72 H s       :     0.807175  s :     0.807175


------------------------
MULLIKEN OVERLAP CHARGES
------------------------
B(  0-C ,  1-C ) :   0.4959 B(  0-C ,  2-C ) :  -0.1306 B(  0-C ,  3-H ) :  -0.0877 
B(  0-C ,  4-H ) :  -0.0673 B(  0-C ,  5-C ) :   0.4214 B(  0-C ,  6-C ) :  -0.1564 
B(  0-C , 14-C ) :   0.9464 B(  0-C , 15-C ) :  -0.2027 B(  0-C , 18-C ) :  -0.1835 
B(  0-C , 19-H ) :  -0.0752 B(  1-C ,  2-C ) :   0.5269 B(  1-C ,  3-H ) :   0.7958 
B(  1-C ,  4-H ) :   0.8137 B(  1-C ,  5-C ) :  -0.1484 B(  1-C ,  7-C ) :  -0.1691 
[...]
        0.0000         2.9484        0.0000
        0.0000         0.0000        2.9484

 Diagonalized JT*J matrix:
 
 J[55,60](FC)             2.948            2.948            2.948  iso=      2.948
                ---------------  ---------------  ---------------  ---------------
 J[55,60](Total)          2.948            2.948            2.948  iso=      2.948



-----------------------------------------------------------
 NUCLEUS A = C   56 NUCLEUS B = C   59 
 ( 13C  gnA =  1.405  13C  gnB =  1.405) r(AB) =     1.5334
-----------------------------------------------------------

Fermi-contact contribution to J (Hz):
       25.8844         0.0000        0.0000
        0.0000        25.8844        0.0000
        0.0000         0.0000       25.8844

Total spin-spin coupling tensor J (Hz):
       25.8844         0.0000        0.0000
        0.0000        25.8844        0.0000
        0.0000         0.0000       25.8844

 Diagonalized JT*J matrix:
 
 J[56,59](FC)            25.884           25.884           25.884  iso=     25.884
                ---------------  ---------------  ---------------  ---------------
 J[56,59](Total)         25.884           25.884           25.884  iso=     25.884



-----------------------------------------------------------
 NUCLEUS A = C   56 NUCLEUS B = C   60 
 ( 13C  gnA =  1.405  13C  gnB =  1.405) r(AB) =     1.5331
-----------------------------------------------------------

Fermi-contact contribution to J (Hz):
       26.4598         0.0000        0.0000
        0.0000        26.4598        0.0000
        0.0000         0.0000       26.4598

Total spin-spin coupling tensor J (Hz):
       26.4598         0.0000        0.0000
        0.0000        26.4598        0.0000
        0.0000         0.0000       26.4598

 Diagonalized JT*J matrix:
 
 J[56,60](FC)            26.460           26.460           26.460  iso=     26.460
                ---------------  ---------------  ---------------  ---------------
 J[56,60](Total)         26.460           26.460           26.460  iso=     26.460



-----------------------------------------------------------
 NUCLEUS A = C   59 NUCLEUS B = C   60 
 ( 13C  gnA =  1.405  13C  gnB =  1.405) r(AB) =     2.5352
-----------------------------------------------------------

Fermi-contact contribution to J (Hz):
       -1.0532         0.0000        0.0000
        0.0000        -1.0532        0.0000
        0.0000         0.0000       -1.0532

Total spin-spin coupling tensor J (Hz):
       -1.0532         0.0000        0.0000
        0.0000        -1.0532        0.0000
        0.0000         0.0000       -1.0532

 Diagonalized JT*J matrix:
 
 J[59,60](FC)            -1.053           -1.053           -1.053  iso=     -1.053
                ---------------  ---------------  ---------------  ---------------
 J[59,60](Total)         -1.053           -1.053           -1.053  iso=     -1.053



-----------------------------------------------------------------------------
                SUMMARY OF ISOTROPIC COUPLING CONSTANTS J (Hz)                
-----------------------------------------------------------------------------
                  0 C        1 C        2 C        5 C        6 C        7 C  
      0 C        0.000     32.403     -2.385     42.191     -0.175      0.892
      1 C       32.403      0.000     25.309     -1.185      0.378     -0.379
      2 C       -2.385     25.309      0.000      2.004     -1.359     25.798
      5 C       42.191     -1.185      2.004      0.000     30.974     -2.900
      6 C       -0.175      0.378     -1.359     30.974      0.000     23.054
      7 C        0.892     -0.379     25.798     -2.900     23.054      0.000
     14 C       70.187     -0.380      3.570     -3.179      2.746     -0.707
     15 C       -3.290      2.725     -0.837     64.298     -0.907      2.828
     18 C       -2.641      4.228     -1.071      3.288     -1.016      0.208
     20 C        6.947     -1.153      1.255     -1.505      0.784     -0.148
     22 C       -0.940      0.333     -0.380      0.446     -0.237      0.046
     23 C        0.790     -0.268      0.290     -0.330      0.189      0.000
     26 C       -0.076      0.030      0.000      0.041      0.000      0.000
     29 C        1.123     -0.360      0.000     -0.486      0.258      0.000
     32 C       -1.149      0.555     -0.412      0.513     -0.277      0.058
     34 C        0.021     -0.015      0.016     -0.017      0.009     -0.002
     36 C       -0.013      0.000      0.000      0.015     -0.009      0.000
     39 C       -0.079      0.000      0.000      0.033      0.000      0.000
     43 C        0.000      0.000      0.000      0.000      0.000      0.000
     44 C        0.005     -0.002      0.003     -0.005      0.003     -0.001
     49 C        0.000      0.000      0.000      0.000      0.000      0.000
     50 C        0.000      0.000      0.000      0.000      0.000      0.000
     51 C        0.000      0.000      0.000      0.000      0.000      0.000
     54 C        0.000      0.000      0.000      0.000      0.000      0.000
     55 C        0.000      0.000      0.000      0.000      0.000      0.000
     56 C        0.000      0.000      0.000      0.000      0.000      0.000
     59 C        0.000      0.000      0.000      0.000      0.000      0.000
     60 C        0.000      0.000      0.000      0.000      0.000      0.000
                 14 C       15 C       18 C       20 C       22 C       23 C  
      0 C       70.187     -3.290     -2.641      6.947     -0.940      0.790
      1 C       -0.380      2.725      4.228     -1.153      0.333     -0.268
      2 C        3.570     -0.837     -1.071      1.255     -0.380      0.290
      5 C       -3.179     64.298      3.288     -1.505      0.446     -0.330
      6 C        2.746     -0.907     -1.016      0.784     -0.237      0.189
      7 C       -0.707      2.828      0.208     -0.148      0.046      0.000
     14 C        0.000      3.066     54.452     -2.786      3.881     -0.884
     15 C        3.066      0.000     -1.126      1.071     -0.275      0.235
     18 C       54.452     -1.126      0.000     70.037     -2.155      2.467
     20 C       -2.786      1.071     70.037      0.000     32.206     -2.856
     22 C        3.881     -0.275     -2.155     32.206      0.000     24.472
     23 C       -0.884      0.235      2.467     -2.856     24.472      0.000
     26 C        0.115     -0.020     -0.365      1.019     -1.916     25.435
     29 C       -1.151      0.341      2.402     -2.357      1.102     -2.183
     32 C        4.409     -0.337     -1.317     36.930     -0.207      1.519
     34 C        0.065      0.005      2.453     -1.356      1.618     -0.252
     36 C        0.011     -0.014     -0.148      3.388      0.072      0.180
     39 C        0.266     -0.023     -0.044      2.901     -0.334      2.525
     43 C        0.014      0.000      0.301      0.196     -0.000     -0.112
     44 C        0.005      0.002     -0.081      0.694     -0.133      0.626
     49 C        0.000      0.000     -0.010     -0.052      0.138      0.046
     50 C        0.000      0.000      0.025      0.128     -0.006      0.118
     51 C        0.000      0.000      0.017      0.049      0.001     -0.003
     54 C        0.000      0.000      0.000      0.000      0.000      0.000
     55 C        0.000      0.000      0.000      0.000      0.000      0.000
     56 C        0.000      0.000      0.000      0.000      0.000      0.000
     59 C        0.000      0.000      0.000      0.000      0.000      0.000
     60 C        0.000      0.000      0.000      0.000      0.000      0.000
                 26 C       29 C       32 C       34 C       36 C       39 C  
      0 C       -0.076      1.123     -1.149      0.021     -0.013     -0.079
      1 C        0.030     -0.360      0.555     -0.015      0.000      0.000
      2 C        0.000      0.000     -0.412      0.016      0.000      0.000
      5 C        0.041     -0.486      0.513     -0.017      0.015      0.033
      6 C        0.000      0.258     -0.277      0.009     -0.009      0.000
      7 C        0.000      0.000      0.058     -0.002      0.000      0.000
     14 C        0.115     -1.151      4.409      0.065      0.011      0.266
     15 C       -0.020      0.341     -0.337      0.005     -0.014     -0.023
     18 C       -0.365      2.402     -1.317      2.453     -0.148     -0.044
     20 C        1.019     -2.357     36.930     -1.356      3.388      2.901
     22 C       -1.916      1.102     -0.207      1.618      0.072     -0.334
     23 C       25.435     -2.183      1.519     -0.252      0.180      2.525
     26 C        0.000     27.824     -0.929      2.299      3.029     -0.617
     29 C       27.824      0.000     23.398      0.782      0.793     28.369
     32 C       -0.929     23.398      0.000     27.891      1.158      3.362
     34 C        2.299      0.782     27.891      0.000     25.914      0.215
     36 C        3.029      0.793      1.158     25.914      0.000     27.029
     39 C       -0.617     28.369      3.362      0.215     27.029      0.000
     43 C       -0.024     -0.618      2.718      1.847      0.387     28.842
     44 C       -0.572     27.259     -0.972      0.790      0.318     -1.167
     49 C        0.363      0.056     -0.029      0.043      3.216     -1.211
     50 C       -0.117      3.563     -0.090     -0.043      0.643     -1.828
     51 C       -0.023      0.235      0.121      0.072     -0.002      3.271
     54 C       -0.000      0.075     -0.015     -0.001     -0.032     -0.533
     55 C        0.000      0.025      0.000      0.004      0.028      0.831
     56 C       -0.000      0.002      0.000     -0.001      0.004      0.014
     59 C        0.000     -0.002     -0.001      0.000     -0.002     -0.005
     60 C        0.000     -0.001     -0.002      0.002      0.006     -0.017
                 43 C       44 C       49 C       50 C       51 C       54 C  
      0 C        0.000      0.005      0.000      0.000      0.000      0.000
      1 C        0.000     -0.002      0.000      0.000      0.000      0.000
      2 C        0.000      0.003      0.000      0.000      0.000      0.000
      5 C        0.000     -0.005      0.000      0.000      0.000      0.000
      6 C        0.000      0.003      0.000      0.000      0.000      0.000
      7 C        0.000     -0.001      0.000      0.000      0.000      0.000
     14 C        0.014      0.005      0.000      0.000      0.000      0.000
     15 C        0.000      0.002      0.000      0.000      0.000      0.000
     18 C        0.301     -0.081     -0.010      0.025      0.017      0.000
     20 C        0.196      0.694     -0.052      0.128      0.049      0.000
     22 C       -0.000     -0.133      0.138     -0.006      0.001      0.000
     23 C       -0.112      0.626      0.046      0.118     -0.003      0.000
     26 C       -0.024     -0.572      0.363     -0.117     -0.023     -0.000
     29 C       -0.618     27.259      0.056      3.563      0.235      0.075
     32 C        2.718     -0.972     -0.029     -0.090      0.121     -0.015
     34 C        1.847      0.790      0.043     -0.043      0.072     -0.001
     36 C        0.387      0.318      3.216      0.643     -0.002     -0.032
     39 C       28.842     -1.167     -1.211     -1.828      3.271     -0.533
     43 C        0.000      1.419     25.925     36.060     -0.463      3.770
     44 C        1.419      0.000     -0.106     -0.168     -0.008     -0.001
     49 C       25.925     -0.106      0.000     -2.893      3.554     -0.731
     50 C       36.060     -0.168     -2.893      0.000     67.750     -2.086
     51 C       -0.463     -0.008      3.554     67.750      0.000     35.312
     54 C        3.770     -0.001     -0.731     -2.086     35.312      0.000
     55 C       -0.870      0.001      1.386      3.582     -2.472     25.934
     56 C       -0.202     -0.001      0.028      1.053     -1.942     27.258
     59 C        0.038      0.002     -0.020      0.080      0.495     -1.784
     60 C        0.038     -0.000     -0.042      0.192      0.528     -0.758
                 55 C       56 C       59 C       60 C  
      0 C        0.000      0.000      0.000      0.000
      1 C        0.000      0.000      0.000      0.000
      2 C        0.000      0.000      0.000      0.000
      5 C        0.000      0.000      0.000      0.000
      6 C        0.000      0.000      0.000      0.000
      7 C        0.000      0.000      0.000      0.000
     14 C        0.000      0.000      0.000      0.000
     15 C        0.000      0.000      0.000      0.000
     18 C        0.000      0.000      0.000      0.000
     20 C        0.000      0.000      0.000      0.000
     22 C        0.000      0.000      0.000      0.000
     23 C        0.000      0.000      0.000      0.000
     26 C        0.000     -0.000      0.000      0.000
     29 C        0.025      0.002     -0.002     -0.001
     32 C        0.000      0.000     -0.001     -0.002
     34 C        0.004     -0.001      0.000      0.002
     36 C        0.028      0.004     -0.002      0.006
     39 C        0.831      0.014     -0.005     -0.017
     43 C       -0.870     -0.202      0.038      0.038
     44 C        0.001     -0.001      0.002     -0.000
     49 C        1.386      0.028     -0.020     -0.042
     50 C        3.582      1.053      0.080      0.192
     51 C       -2.472     -1.942      0.495      0.528
     54 C       25.934     27.258     -1.784     -0.758
     55 C        0.000     -0.548      0.971      2.948
     56 C       -0.548      0.000     25.884     26.460
     59 C        0.971     25.884      0.000     -1.053
     60 C        2.948     26.460     -1.053      0.000

NMR spin-spin coupling calculation done in   0.3 sec 

Maximum memory used throughout the entire PROP-calculation: 34.2 MB

--------------------------------
SUGGESTED CITATIONS FOR THIS RUN
--------------------------------

Below you find a list of papers that are relevant to this ORCA run
We neither can nor want to force you to cite these papers, but we appreciate if you do
You receive ORCA, which is the product of decades of hard work by many enthusiastic individuals, for free
The only thing we kindly ask in return is that you cite our papers,
We deeply appreciate it, if you show your appreciation for ORCA by not just citing the generic ORCA reference.

Please note that relegating all ORCA citations to the supporting information does *not* help us.
SI sections are not indexed - citations you put there will not count into any citation statistics
But we need these citations in order to attract the funding resources that allow us to do what we are doing

Therefore, if you are a happy ORCA user, please consider citing a few of the papers listed below in the main body of your paper

In addition to the list printed below, the program has created the file inpJ.bibtex that contains the list in bibtex format
You can import this file easily into all common literature databanks and citation aid programs


List of essential papers. We consider these as the minimum necessary citations

  1. Neese,F.
     Software update: the ORCA program system, version 5.0
     WIRES Comput. Molec. Sci., 2022 12(1)e1606
     doi.org/10.1002/wcms.1606

List of papers to cite with high priority. The work reported in these papers was absolutely
necessary for this run to complete.
Our perspective: the developers of density functionals and basis sets usually get cited in chemistry papers
Good! But without the algorithms to do something with them, the functionals or basis sets would not do anything.
Hence, in our opinion, the algorithm design and method developments papers are equally worthy of getting cited

  1. Neese,F.
     An improvement of the resolution of the identity approximation for the formation of the Coulomb matrix
     J. Comp. Chem., 2003 24(14)1740-1747
     doi.org/10.1002/jcc.10318
  2. Neese,F.; Wennmohs,F.; Hansen,A.; Becker,U.
     Efficient, approximate and parallel Hartree-Fock and hybrid DFT calculations. A 'chain-of-spheres' algorithm for the Hartree-Fock exchange
     Chem. Phys., 2009 356(1-3)98-109
     doi.org/10.1016/j.chemphys.2008.10.036
  3. Stoychev,G.L.; Auer,A.A.; Izsak,R.; Neese,F.
     Self-Consistent Field Calculation of Nuclear Magnetic Resonance Chemical Shielding Constants Using Gauge-Including Atomic Orbitals and Approximate Two-Electron Integrals
     J. Chem. Theory Comput., 2018 14(2)619-637
     doi.org/10.1021/acs.jctc.7b01006
  4. Garcia-Rates,M.; Neese,F.
     Effect of the Solute Cavity on the Solvation Energy and its Derivatives within the Framework of the Gaussian Charge Scheme
     J. Comput. Chem., 2020 41 922-939
     doi.org/10.1002/jcc.26139
  5. Helmich-Paris,B.; de Souza,B.; Neese,F.; Izsák,R.
     An improved chain of spheres for exchange algorithm
     J. Chem. Phys., 2021 155 104109
     doi.org/doi: 10.1063/5.0058766.
  6. Neese,F.
     The SHARK Integral Generation and Digestion System
     J. Comp. Chem., 2022  1-16
     doi.org/10.1002/jcc.26942
  7. Grimme,S.; Bannwarth,C.; Dohm,S.; Hansen,A.; Pisarek,J.; Pracht,P.; Seibert,J.; Neese,F.
     Fully Automated Quantum-Chemistry-Based Computation of Spin-Spin-Coupled Nuclear Magnetic Resonance Spectra
     Angew. Chem., Int. Ed., 2017 56 14763-14769
     doi.org/10.1002/anie.201708266
  8. Caldeweyher,E.; Bannwarth,C.; Grimme,S.
     Extension of the D3 dispersion coefficient model
     J. Chem. Phys., 2017 147 034112-XXXX
     doi.org/10.1063/1.4993215
  9. Caldeweyher,E.; Ehlert,S.; Hansen,A.; Neugebauer,H.; Spicher,S.; Bannwarth,C.; Grimme,S.
     A generally applicable atomic-charge dependent London dispersion correction
     J. Chem. Phys., 2019 150 154122-XXXX
     doi.org/10.1063/1.5090222
 10. Caldeweyher,E.; Mewes,J.; Ehlert,S.; Grimme,S.
     Extension and evaluation of the D4 London-dispersion model for periodic systems
     Phys. Chem. Chem. Phys., 2020 22(16)8499-8512
     doi.org/10.1039/D0CP00502A

List of suggested additional citations. These are papers that are important in the 'surrounding' of 
of this run, or papers that preceded the highly important papers. If you like your results we are grateful for a citation.

  1. Izsak,R.; Neese,F.
     An overlap fitted chain of spheres exchange method
     J. Chem. Phys., 2011 135 144105
     doi.org/10.1063/1.3646921
  2. Izsak,R.; Hansen,A.; Neese,F.
     The resolution of identity and chain of spheres approximations for the LPNO-CCSD singles Fock term
     Molec. Phys., 2012 110 2413-2417
     doi.org/10.1080/00268976.2012.687466
  3. Neese,F.
     The ORCA program system
     WIRES Comput. Molec. Sci., 2012 2(1)73-78
     doi.org/10.1002/wcms.81
  4. Izsak,R.; Neese,F.; Klopper,W.
     Robust fitting techniques in the chain of spheres approximation to the Fock exchange: The role of the complementary space
     J. Chem. Phys., 2013 139 
     doi.org/10.1063/1.4819264
  5. Neese,F.
     Software update: the ORCA program system, version 4.0
     WIRES Comput. Molec. Sci., 2018 8(1)1-6
     doi.org/10.1002/wcms.1327
  6. Neese,F.; Wennmohs,F.; Becker,U.; Riplinger,C.
     The ORCA quantum chemistry program package
     J. Chem. Phys., 2020 152 Art. No. L224108
     doi.org/10.1063/5.0004608

Timings for individual modules:

Sum of individual times          ...      158.879 sec (=   2.648 min)
Startup calculation              ...        4.190 sec (=   0.070 min)   2.6 %
SCF iterations                   ...       57.791 sec (=   0.963 min)  36.4 %
Property integrals               ...        0.635 sec (=   0.011 min)   0.4 %
SCF Response                     ...       95.640 sec (=   1.594 min)  60.2 %
Property calculations            ...        0.622 sec (=   0.010 min)   0.4 %
                             ****ORCA TERMINATED NORMALLY****
TOTAL RUN TIME: 0 days 0 hours 2 minutes 39 seconds 201 msec
