
                                 *****************
                                 * O   R   C   A *
                                 *****************

                                            #,                                       
                                            ###                                      
                                            ####                                     
                                            #####                                    
                                            ######                                   
                                           ########,                                 
                                     ,,################,,,,,                         
                               ,,#################################,,                 
                          ,,##########################################,,             
                       ,#########################################, ''#####,          
                    ,#############################################,,   '####,        
                  ,##################################################,,,,####,       
                ,###########''''           ''''###############################       
              ,#####''   ,,,,##########,,,,          '''####'''          '####       
            ,##' ,,,,###########################,,,                        '##       
           ' ,,###''''                  '''############,,,                           
         ,,##''                                '''############,,,,        ,,,,,,###''
      ,#''                                            '''#######################'''  
     '                                                          ''''####''''         
             ,#######,   #######,   ,#######,      ##                                
            ,#'     '#,  ##    ##  ,#'     '#,    #''#        ,####,   ,####,        
            ##       ##  ##   ,#'  ##            #'  '#       #'       #'  '#        
            ##       ##  #######   ##           ,######,      #####,   #    #        
            '#,     ,#'  ##    ##  '#,     ,#' ,#      #,     #,   #   #,  ,#        
             '#######'   ##     ##  '#######'  #'      '#     '####' # '####'        



                #########################################################
                #                        -***-                          #
                #          Department of theory and spectroscopy        #
                #                                                       #
                #                      Frank Neese                      #
                #                                                       #
                #     Directorship, Architecture, Infrastructure        #
                #                    SHARK, DRIVERS                     #
                #        Core code/Algorithms in most modules           #
                #                                                       #
                #        Max Planck Institute fuer Kohlenforschung      #
                #                Kaiser Wilhelm Platz 1                 #
                #                 D-45470 Muelheim/Ruhr                 #
                #                      Germany                          #
                #                                                       #
                #                  All rights reserved                  #
                #                        -***-                          #
                #########################################################


                         Program Version 6.0.0  -   RELEASE  -


 With contributions from (in alphabetic order):
   Daniel Aravena         : Magnetic Suceptibility
   Michael Atanasov       : Ab Initio Ligand Field Theory (pilot matlab implementation)
   Alexander A. Auer      : GIAO ZORA, VPT2 properties, NMR spectrum
   Ute Becker             : All parallelization in ORCA, NUMFREQ, NUMCALC
   Giovanni Bistoni       : ED, misc. LED, open-shell LED, HFLD
   Martin Brehm           : Molecular dynamics
   Dmytro Bykov           : pre 5.0 version of the SCF Hessian
   Marcos Casanova-Páez   : Triplet and SCS-CIS(D). UHF-(DLPNO)-IP/EA/STEOM-CCSD. UHF-CVS-IP/STEOM-CCSD
   Vijay G. Chilkuri      : MRCI spin determinant printing, contributions to CSF-ICE
   Pauline Colinet        : FMM embedding
   Dipayan Datta          : RHF DLPNO-CCSD density
   Achintya Kumar Dutta   : EOM-CC, STEOM-CC
   Nicolas Foglia         : Exact transition moments, OPA infrastructure, MCD improvements
   Dmitry Ganyushin       : Spin-Orbit,Spin-Spin,Magnetic field MRCI
   Miquel Garcia          : C-PCM and meta-GGA Hessian, CCSD/C-PCM, Gaussian charge scheme
   Tiago L. C. Gouveia    : GS-ROHF, GS-ROCIS
   Yang Guo               : DLPNO-NEVPT2, F12-NEVPT2, CIM, IAO-localization
   Andreas Hansen         : Spin unrestricted coupled pair/coupled cluster methods
   Ingolf Harden          : AUTO-CI MPn and infrastructure 
   Benjamin Helmich-Paris : MC-RPA, TRAH-(SCF,CASSCF), AVAS, COSX integrals, SCF dyn. polar.
   Lee Huntington         : MR-EOM, pCC
   Robert Izsak           : Overlap fitted RIJCOSX, COSX-SCS-MP3, EOM
   Riya Kayal             : Wick's Theorem for AUTO-CI, AUTO-CI UHF-CCSDT
   Emily Kempfer          : AUTO-CI, RHF CISDT and CCSDT
   Christian Kollmar      : KDIIS, OOCD, Brueckner-CCSD(T), CCSD density, CASPT2, CASPT2-K, improved NEVPT2
   Axel Koslowski         : Symmetry handling
   Simone Kossmann        : Meta GGA functionals, TD-DFT gradient, OOMP2, (MP2 Hessian; deprecated post 5.0)
   Lucas Lang             : DCDCAS
   Marvin Lechner         : AUTO-CI (C++ implementation), FIC-MRCC
   Spencer Leger          : CASSCF response
   Dagmar Lenk            : GEPOL surface, SMD, ORCA-2-JSON
   Dimitrios Liakos       : Extrapolation schemes; Compound Job, initial MDCI parallelization
   Dimitrios Manganas     : Further ROCIS development; embedding schemes. LFT, Crystal Embedding
   Dimitrios Pantazis     : SARC Basis sets
   Anastasios Papadopoulos: AUTO-CI, single reference methods and gradients
   Taras Petrenko         : pre 6.0 DFT Hessian and TD-DFT gradient, (ASA, deprecated), ECA, 1-Electron XAS/XES, NRVS
   Peter Pinski           : DLPNO-MP2, DLPNO-MP2 Gradient
   Christoph Reimann      : Effective Core Potentials
   Marius Retegan         : Local ZFS, SOC
   Christoph Riplinger    : Optimizer, TS searches, QM/MM, DLPNO-CCSD(T), (RO)-DLPNO pert. Triples
   Michael Roemelt        : Original ROCIS implementation
   Masaaki Saitow         : Open-shell DLPNO-CCSD energy and density
   Barbara Sandhoefer     : DKH picture change effects
   Kantharuban Sivalingam : CASSCF convergence/infrastructure, NEVPT2 and variants, FIC-MRCI
   Bernardo de Souza      : ESD, SOC TD-DFT
   Georgi Stoychev        : AutoAux, RI-MP2 NMR, DLPNO-MP2 response, X2C
   Van Anh Tran           : RI-MP2 g-tensors
   Willem Van den Heuvel  : Paramagnetic NMR
   Zikuan Wang            : NOTCH, Electric field optimization 
   Frank Wennmohs         : Technical directorship and infrastructure
   Hang Xu                : AUTO-CI-Response properties 


 We gratefully acknowledge several colleagues who have allowed us to
 interface, adapt or use parts of their codes:
   Stefan Grimme, W. Hujo, H. Kruse, P. Pracht,  : VdW corrections, initial TS optimization,
                  C. Bannwarth, S. Ehlert,         DFT functionals, gCP, sTDA/sTD-DF
                  L. Wittmann, M. Mueller
   Ed Valeev, F. Pavosevic, A. Kumar             : LibInt (2-el integral package), F12 methods
   Garnet Chan, S. Sharma, J. Yang, R. Olivares  : DMRG
   Ulf Ekstrom                                   : XCFun DFT Library
   Mihaly Kallay                                 : mrcc  (arbitrary order and MRCC methods)
   Frank Weinhold                                : gennbo (NPA and NBO analysis)
   Simon Mueller                                 : openCOSMO-RS
   Christopher J. Cramer and Donald G. Truhlar   : smd solvation model
   Lars Goerigk                                  : TD-DFT with DH, B97 family of functionals
   V. Asgeirsson, H. Jonsson                     : NEB implementation
   FAccTs GmbH                                   : IRC, NEB, NEB-TS, DLPNO-Multilevel, CI-OPT
                                                   MM, QMMM, 2- and 3-layer-ONIOM, Crystal-QMMM,
                                                   LR-CPCM, SF, NACMEs, symmetry and pop. for TD-DFT,
                                                   nearIR, NL-DFT gradient (VV10), updates on ESD,
                                                   ML-optimized integration grids, MBIS, APM,
                                                   GOAT, DOCKER, SOLVATOR, interface openCOSMO-RS
   S Lehtola, MJT Oliveira, MAL Marques          : LibXC Library
   Liviu Ungur et al                             : ANISO software


 Your calculation uses the libint2 library for the computation of 2-el integrals
 For citations please refer to: http://libint.valeyev.net

 Your ORCA version has been built with support for libXC version: 6.2.2
 For citations please refer to: https://libxc.gitlab.io

 This ORCA versions uses:
   CBLAS   interface :  Fast vector & matrix operations
   LAPACKE interface :  Fast linear algebra routines
   SCALAPACK package :  Parallel linear algebra routines
   Shared memory     :  Shared parallel matrices
   BLAS/LAPACK       :  OpenBLAS 0.3.27  USE64BITINT DYNAMIC_ARCH NO_AFFINITY Zen SINGLE_THREADED
        Core in use  :  Zen
   Copyright (c) 2011-2014, The OpenBLAS Project


NOTE: MaxCore=8000 MB was set to SCF,MP2,MDCI,CIPSI,MRCI and CIS
      => If you want to overwrite this, your respective input block should be placed after the MaxCore statement
Your calculation utilizes the atom-pairwise dispersion correction
based on EEQ partial charges (D4)


================================================================================

----- Orbital basis set information -----
Your calculation utilizes the basis: pcJ-0
   F. Jensen, Theor. Chem. Acc. 126, 371 (2010).

----- AuxJ basis set information -----
Your calculation utilizes the auxiliary basis: def2/J
   F. Weigend, Phys. Chem. Chem. Phys. 8, 1057 (2006).

================================================================================
                                        WARNINGS
                       Please study these warnings very carefully!
================================================================================

WARNING: Old DensityContainer found on disk!
         Will remove this file - 
         If you want to keep old densities, please start your calculation with a different basename. 


================================================================================
                                       INPUT FILE
================================================================================
NAME = inpJ
|  1> ! pbe0
|  2> ! D4
|  3> ! pcJ-0
|  4> ! def2/J RIJCOSX
|  5> ! DEFGRID2
|  6> ! scfconv7
|  7> ! smallprint printgap noloewdin
|  8> ! NOSOSCF
|  9> %MaxCore 8000
| 10> %output
| 11>        print[P_BondOrder_M] 1
| 12>        print[P_Mayer] 1
| 13>        print[P_basis] 2
| 14> end
| 15> %pal
| 16>     nprocs 4
| 17> end
| 18> ! CPCM(chloroform)
| 19> *xyz 0 1
| 20> C   -5.0849278100   0.1873012400  -0.6740374500
| 21> C   -6.5206266800  -0.2484841000  -0.8453213100
| 22> C   -7.4642048800   0.7273605200  -0.1304283900
| 23> H   -6.6676306900  -1.2636620100  -0.4595378000
| 24> H   -6.7852896700  -0.2496715400  -1.9130910800
| 25> C   -4.8291624100   1.5833343500  -1.0940460300
| 26> C   -5.7914058100   2.5961678500  -0.5143643900
| 27> C   -7.2526959000   2.1475275100  -0.6571478900
| 28> H   -5.6405468000   3.5738796600  -0.9841868100
| 29> H   -5.5636720200   2.7157760000   0.5558591200
| 30> H   -7.5422787300   2.1690659300  -1.7166097800
| 31> H   -7.9127564600   2.8391102400  -0.1208092700
| 32> O   -7.2828493400   0.6560472300   1.2937022500
| 33> H   -8.5041592500   0.4241130200  -0.3039551200
| 34> C   -4.1624145900  -0.6323217400  -0.1160487300
| 35> C   -3.8568341400   1.9230286900  -1.9471250800
| 36> H   -3.1865307500   1.1771150800  -2.3657216600
| 37> H   -3.7162779100   2.9572403700  -2.2525851200
| 38> C   -2.7935083200  -0.2860531300   0.1896772600
| 39> H   -4.5028804600  -1.6322975400   0.1502462500
| 40> C   -1.8371512800  -1.1184187600   0.6534312200
| 41> H   -2.5246692400   0.7565271800   0.0351216800
| 42> C   -2.0021876400  -2.5948365600   0.9090842000
| 43> C   -0.9357906800  -3.4240793600   0.1668547200
| 44> H   -2.9998660800  -2.9534888700   0.6415169900
| 45> H   -1.8774266400  -2.7663471300   1.9902193400
| 46> C    0.4901466400  -2.9131644400   0.4145814600
| 47> H   -1.1541383300  -3.4073078400  -0.9084251800
| 48> H   -1.0111047300  -4.4715703500   0.4834835300
| 49> C    0.6249690900  -1.4176265400   0.0963523500
| 50> H    1.1904553100  -3.5118589500  -0.1771712300
| 51> H    0.7518991700  -3.0664216700   1.4724542400
| 52> C   -0.4421270800  -0.6609532200   0.9492472000
| 53> H   -0.2286269600  -0.9623974000   1.9917020000
| 54> C   -0.0481578300   0.8051240100   0.8124797400
| 55> H   -6.3318030200   0.6019672900   1.4652659000
| 56> C    1.4988861500   0.7605456300   0.8208990800
| 57> H   -0.4588819000   1.4219311900   1.6187991700
| 58> H   -0.4176248500   1.2199013200  -0.1320724400
| 59> C    1.9201939500  -0.7285464100   0.6150492500
| 60> H    1.8984915900   1.1517587300   1.7603734900
| 61> H    1.9189504500   1.3843294700   0.0230409600
| 62> H    2.1259804900  -1.1794238200   1.5986719600
| 63> C    3.1907132900  -0.8483560000  -0.2375910700
| 64> C    0.4116686800  -1.1503830200  -1.4003216300
| 65> H    0.6286224200  -0.1097544300  -1.6617462300
| 66> H   -0.6224108400  -1.3511863700  -1.6973521300
| 67> H    1.0645689100  -1.7871317600  -2.0066941000
| 68> H    2.9847092300  -0.3583719100  -1.2023999200
| 69> C    3.6137533000  -2.2976893600  -0.5395703700
| 70> C    4.3910602100  -0.1460846100   0.3609358800
| 71> C    4.5905456700   0.1471593300   1.6459557000
| 72> H    5.1858544600   0.0616421000  -0.3575836200
| 73> H    3.8014929400  -0.0721936600   2.3635125400
| 74> C    5.8425499300   0.7456284500   2.2397235100
| 75> C    6.7252473000   1.4455048600   1.2036560800
| 76> C    6.6352105000  -0.3262935200   3.0406938600
| 77> H    5.5187963500   1.5008753700   2.9765481700
| 78> H    6.9855338800  -1.0709222900   2.3080631600
| 79> C    5.7545606300  -1.0440347900   4.0686706500
| 80> C    7.8550354800   0.2770448600   3.7434507300
| 81> H    7.2195255100   0.7208690300   0.5452339700
| 82> H    7.5039457100   2.0402525500   1.6877126600
| 83> H    6.1305634400   2.1192773100   0.5783430500
| 84> H    4.9490203300  -1.6133428600   3.5957635300
| 85> H    5.2997351200  -0.3218591400   4.7595396900
| 86> H    6.3530662400  -1.7429991100   4.6628636200
| 87> H    8.5878358700   0.6776911700   3.0377734100
| 88> H    8.3599688000  -0.4829292200   4.3499181200
| 89> H    7.5470494100   1.0896392200   4.4144446900
| 90> H    2.9024601100  -2.8063005400  -1.1952826000
| 91> H    3.7019514100  -2.8704384800   0.3913601200
| 92> H    4.5914632900  -2.3128768000  -1.0342989000
| 93> *
| 94> %eprnmr
| 95>  Nuclei = all C { ssfc }
| 96>  SpinSpinRThresh 8.0
| 97> end
| 98> 
| 99>                          ****END OF INPUT****
================================================================================

                       ****************************
                       * Single Point Calculation *
                       ****************************

---------------------------------
CARTESIAN COORDINATES (ANGSTROEM)
---------------------------------
  C     -5.084928    0.187301   -0.674037
  C     -6.520627   -0.248484   -0.845321
  C     -7.464205    0.727361   -0.130428
  H     -6.667631   -1.263662   -0.459538
  H     -6.785290   -0.249672   -1.913091
  C     -4.829162    1.583334   -1.094046
  C     -5.791406    2.596168   -0.514364
  C     -7.252696    2.147528   -0.657148
  H     -5.640547    3.573880   -0.984187
  H     -5.563672    2.715776    0.555859
  H     -7.542279    2.169066   -1.716610
  H     -7.912756    2.839110   -0.120809
  O     -7.282849    0.656047    1.293702
  H     -8.504159    0.424113   -0.303955
  C     -4.162415   -0.632322   -0.116049
  C     -3.856834    1.923029   -1.947125
  H     -3.186531    1.177115   -2.365722
  H     -3.716278    2.957240   -2.252585
  C     -2.793508   -0.286053    0.189677
  H     -4.502880   -1.632298    0.150246
  C     -1.837151   -1.118419    0.653431
  H     -2.524669    0.756527    0.035122
  C     -2.002188   -2.594837    0.909084
  C     -0.935791   -3.424079    0.166855
  H     -2.999866   -2.953489    0.641517
  H     -1.877427   -2.766347    1.990219
  C      0.490147   -2.913164    0.414581
  H     -1.154138   -3.407308   -0.908425
  H     -1.011105   -4.471570    0.483484
  C      0.624969   -1.417627    0.096352
  H      1.190455   -3.511859   -0.177171
  H      0.751899   -3.066422    1.472454
  C     -0.442127   -0.660953    0.949247
  H     -0.228627   -0.962397    1.991702
  C     -0.048158    0.805124    0.812480
  H     -6.331803    0.601967    1.465266
  C      1.498886    0.760546    0.820899
  H     -0.458882    1.421931    1.618799
  H     -0.417625    1.219901   -0.132072
  C      1.920194   -0.728546    0.615049
  H      1.898492    1.151759    1.760373
  H      1.918950    1.384329    0.023041
  H      2.125980   -1.179424    1.598672
  C      3.190713   -0.848356   -0.237591
  C      0.411669   -1.150383   -1.400322
  H      0.628622   -0.109754   -1.661746
  H     -0.622411   -1.351186   -1.697352
  H      1.064569   -1.787132   -2.006694
  H      2.984709   -0.358372   -1.202400
  C      3.613753   -2.297689   -0.539570
  C      4.391060   -0.146085    0.360936
  C      4.590546    0.147159    1.645956
  H      5.185854    0.061642   -0.357584
  H      3.801493   -0.072194    2.363513
  C      5.842550    0.745628    2.239724
  C      6.725247    1.445505    1.203656
  C      6.635210   -0.326294    3.040694
  H      5.518796    1.500875    2.976548
  H      6.985534   -1.070922    2.308063
  C      5.754561   -1.044035    4.068671
  C      7.855035    0.277045    3.743451
  H      7.219526    0.720869    0.545234
  H      7.503946    2.040253    1.687713
  H      6.130563    2.119277    0.578343
  H      4.949020   -1.613343    3.595764
  H      5.299735   -0.321859    4.759540
  H      6.353066   -1.742999    4.662864
  H      8.587836    0.677691    3.037773
  H      8.359969   -0.482929    4.349918
  H      7.547049    1.089639    4.414445
  H      2.902460   -2.806301   -1.195283
  H      3.701951   -2.870438    0.391360
  H      4.591463   -2.312877   -1.034299

----------------------------
CARTESIAN COORDINATES (A.U.)
----------------------------
  NO LB      ZA    FRAG     MASS         X           Y           Z
   0 C     6.0000    0    12.011   -9.609121    0.353948   -1.273746
   1 C     6.0000    0    12.011  -12.322199   -0.469567   -1.597426
   2 C     6.0000    0    12.011  -14.105303    1.374512   -0.246474
   3 H     1.0000    0     1.008  -12.599996   -2.387975   -0.868401
   4 H     1.0000    0     1.008  -12.822339   -0.471811   -3.615218
   5 C     6.0000    0    12.011   -9.125794    2.992068   -2.067447
   6 C     6.0000    0    12.011  -10.944171    4.906046   -0.972008
   7 C     6.0000    0    12.011  -13.705609    4.058239   -1.241830
   8 H     1.0000    0     1.008  -10.659089    6.753654   -1.859844
   9 H     1.0000    0     1.008  -10.513816    5.132073    1.050422
  10 H     1.0000    0     1.008  -14.252841    4.098941   -3.243922
  11 H     1.0000    0     1.008  -14.952943    5.365141   -0.228296
  12 O     8.0000    0    15.999  -13.762591    1.239750    2.444743
  13 H     1.0000    0     1.008  -16.070532    0.801457   -0.574392
  14 C     6.0000    0    12.011   -7.865824   -1.194915   -0.219300
  15 C     6.0000    0    12.011   -7.288360    3.633998   -3.679533
  16 H     1.0000    0     1.008   -6.021670    2.224425   -4.470566
  17 H     1.0000    0     1.008   -7.022747    5.588374   -4.256769
  18 C     6.0000    0    12.011   -5.278966   -0.540562    0.358438
  19 H     1.0000    0     1.008   -8.509211   -3.084595    0.283924
  20 C     6.0000    0    12.011   -3.471713   -2.113505    1.234806
  21 H     1.0000    0     1.008   -4.770933    1.429629    0.066370
  22 C     6.0000    0    12.011   -3.783586   -4.903530    1.717920
  23 C     6.0000    0    12.011   -1.768388   -6.470572    0.315310
  24 H     1.0000    0     1.008   -5.668925   -5.581285    1.212291
  25 H     1.0000    0     1.008   -3.547822   -5.227638    3.760969
  26 C     6.0000    0    12.011    0.926243   -5.505083    0.783445
  27 H     1.0000    0     1.008   -2.181005   -6.438879   -1.716675
  28 H     1.0000    0     1.008   -1.910711   -8.450043    0.913651
  29 C     6.0000    0    12.011    1.181020   -2.678926    0.182080
  30 H     1.0000    0     1.008    2.249635   -6.636452   -0.334805
  31 H     1.0000    0     1.008    1.420884   -5.794697    2.782535
  32 C     6.0000    0    12.011   -0.835499   -1.249021    1.793817
  33 H     1.0000    0     1.008   -0.432042   -1.818668    3.763771
  34 C     6.0000    0    12.011   -0.091005    1.521464    1.535364
  35 H     1.0000    0     1.008  -11.965374    1.137553    2.768951
  36 C     6.0000    0    12.011    2.832484    1.437223    1.551274
  37 H     1.0000    0     1.008   -0.867161    2.687061    3.059087
  38 H     1.0000    0     1.008   -0.789197    2.305279   -0.249581
  39 C     6.0000    0    12.011    3.628641   -1.376753    1.162275
  40 H     1.0000    0     1.008    3.587629    2.176509    3.326624
  41 H     1.0000    0     1.008    3.626291    2.616004    0.043541
  42 H     1.0000    0     1.008    4.017521   -2.228788    3.021052
  43 C     6.0000    0    12.011    6.029574   -1.603161   -0.448982
  44 C     6.0000    0    12.011    0.777941   -2.173909   -2.646224
  45 H     1.0000    0     1.008    1.187924   -0.207406   -3.140245
  46 H     1.0000    0     1.008   -1.176186   -2.553372   -3.207531
  47 H     1.0000    0     1.008    2.011744   -3.377190   -3.792102
  48 H     1.0000    0     1.008    5.640283   -0.677225   -2.272207
  49 C     6.0000    0    12.011    6.829004   -4.342004   -1.019640
  50 C     6.0000    0    12.011    8.297901   -0.276060    0.682070
  51 C     6.0000    0    12.011    8.674874    0.278091    3.110406
  52 H     1.0000    0     1.008    9.799845    0.116487   -0.675735
  53 H     1.0000    0     1.008    7.183781   -0.136426    4.466391
  54 C     6.0000    0    12.011   11.040819    1.409034    4.232464
  55 C     6.0000    0    12.011   12.708876    2.731608    2.274580
  56 C     6.0000    0    12.011   12.538731   -0.616605    5.746079
  57 H     1.0000    0     1.008   10.429014    2.836243    5.624861
  58 H     1.0000    0     1.008   13.200746   -2.023750    4.361607
  59 C     6.0000    0    12.011   10.874544   -1.972940    7.688673
  60 C     6.0000    0    12.011   14.843866    0.523539    7.074097
  61 H     1.0000    0     1.008   13.642926    1.362245    1.030343
  62 H     1.0000    0     1.008   14.180402    3.855519    3.189315
  63 H     1.0000    0     1.008   11.585086    4.004854    1.092910
  64 H     1.0000    0     1.008    9.352293   -3.048776    6.795008
  65 H     1.0000    0     1.008   10.015048   -0.608226    8.994227
  66 H     1.0000    0     1.008   12.005555   -3.293791    8.811535
  67 H     1.0000    0     1.008   16.228658    1.280651    5.740560
  68 H     1.0000    0     1.008   15.798052   -0.912604    8.220154
  69 H     1.0000    0     1.008   14.261857    2.059120    8.342091
  70 H     1.0000    0     1.008    5.484855   -5.303139   -2.258757
  71 H     1.0000    0     1.008    6.995674   -5.424343    0.739563
  72 H     1.0000    0     1.008    8.676608   -4.370704   -1.954542

--------------------------------
INTERNAL COORDINATES (ANGSTROEM)
--------------------------------
 C      0   0   0     0.000000000000     0.00000000     0.00000000
 C      1   0   0     1.510125249300     0.00000000     0.00000000
 C      2   1   0     1.534172229238   110.38461142     0.00000000
 H      2   1   3     1.095912991298   110.78832530   237.85276829
 H      2   1   3     1.100081901503   109.82394951   118.67500572
 C      1   2   3     1.480112019858   113.84612524   305.86036618
 C      6   1   2     1.512539210506   114.38710239    50.03731224
 C      3   2   1     1.529393265248   110.18823080    56.88932889
 H      7   6   1     1.095176666409   110.22812693   188.68471012
 H      7   6   1     1.100703025348   108.28710877    72.00046924
 H      8   3   2     1.098536123816   108.29429820    64.53613991
 H      8   3   2     1.096186904960   109.51547194   181.48972760
 O      3   2   1     1.437401647768   110.64159214   292.86178916
 H      3   2   1     1.097075960890   109.48090870   177.33656596
 C      1   2   3     1.354313066490   121.31097270   122.55004870
 C      6   1   2     1.337369946880   123.10785977   232.03283655
 H     16   6   1     1.086699979303   121.32034113   358.92270398
 H     16   6   1     1.087499742012   120.97694287   178.36725043
 C     15   1   2     1.444740359815   125.98325687   185.06378073
 H     15   1   2     1.089395073237   116.31772829     3.09350660
 C     19  15   1     1.350007061233   126.59414285   185.24881733
 H     19  15   1     1.087720359764   115.71185281     5.92692849
 C     21  19  15     1.507449822204   125.77283290     1.82945770
 C     23  21  19     1.541347040296   111.68549821   125.74312226
 H     23  21  19     1.093428534920   112.31188175     2.02067873
 H     23  21  19     1.101741518545   107.84789498   244.36438123
 C     24  23  21     1.534828926545   112.70349531    50.69687049
 H     24  23  21     1.097353107932   109.02453919   288.57391692
 H     24  23  21     1.096888045144   109.10272602   172.65516956
 C     27  24  23     1.534952921041   111.86825817   306.34138509
 H     27  24  23     1.095006208066   108.96236688   182.75467581
 H     27  24  23     1.100498516207   109.25473565    66.25466050
 C     21  19  15     1.497622894088   122.64242446   180.36748138
 H     33  21  19     1.105966954723   106.42394816   126.11738932
 C     33  21  19     1.524237367468   121.12084048     3.47059964
 H     13   3   2     0.967908998149   107.59930113    41.90687100
 C     35  33  21     1.547709014416   103.30689123   195.07938476
 H     35  33  21     1.095123911789   112.25537295    73.30404599
 H     35  33  21     1.095775942655   110.74912015   313.57459016
 C     30  27  24     1.556112250961   115.81415404   166.48677166
 H     37  35  33     1.093318052688   111.08232423   252.12259103
 H     37  35  33     1.096420482675   111.26078452   133.83159756
 H     40  30  27     1.101431874662   105.77832425   322.36019789
 C     40  30  27     1.534786384635   117.98774816    83.31620487
 C     30  27  24     1.535235866666   111.07036002   294.73806205
 H     45  30  27     1.094677856317   111.76239525   187.17839763
 H     45  30  27     1.094472273283   111.34036505    67.23579736
 H     45  30  27     1.095178177558   110.83826306   307.19568642
 H     44  40  30     1.101534474371   107.28047982    62.44636698
 C     44  40  30     1.539714758031   114.19738245   303.61091074
 C     44  40  30     1.514018607363   113.60828287   180.17955883
 C     51  44  40     1.333065037757   126.99549228    23.76029766
 H     51  44  40     1.091383781152   113.91555468   199.12790040
 H     52  51  44     1.088856172124   118.84834736   355.92049760
 C     52  51  44     1.509384035573   126.19631763   174.61526072
 C     55  52  51     1.530495787575   113.16665870    19.81893822
 C     55  52  51     1.555275213774   110.61412474   253.60645407
 H     55  52  51     1.103686943982   106.89556885   138.52526761
 H     57  55  52     1.101792275462   106.58266761    65.90023068
 C     57  55  52     1.532133481447   112.05289042   307.72270131
 C     57  55  52     1.531619208859   111.75937410   184.33903436
 H     56  55  52     1.096780611580   111.35687486   288.21014334
 H     56  55  52     1.092889198930   111.09767096   168.13597532
 H     56  55  52     1.094821717546   110.78075003    48.38895725
 H     60  57  55     1.093914072328   112.14860208    63.66619400
 H     60  57  55     1.098045511092   110.61755569   303.00951658
 H     60  57  55     1.095365405439   110.41561189   183.83943799
 H     61  57  55     1.093386645823   112.45676618   296.64767145
 H     61  57  55     1.095591600484   110.35242384   176.48155916
 H     61  57  55     1.097906146979   110.39913248    57.51363162
 H     50  44  40     1.092969287369   112.14116479    67.47969766
 H     50  44  40     1.096563741093   110.31915789   306.31743413
 H     50  44  40     1.095857564319   110.28669715   187.44978821

---------------------------
INTERNAL COORDINATES (A.U.)
---------------------------
 C      0   0   0     0.000000000000     0.00000000     0.00000000
 C      1   0   0     2.853723149097     0.00000000     0.00000000
 C      2   1   0     2.899165355527   110.38461142     0.00000000
 H      2   1   3     2.070975420160   110.78832530   237.85276829
 H      2   1   3     2.078853518725   109.82394951   118.67500572
 C      1   2   3     2.797006365056   113.84612524   305.86036618
 C      6   1   2     2.858284874674   114.38710239    50.03731224
 C      3   2   1     2.890134422383   110.18823080    56.88932889
 H      7   6   1     2.069583967773   110.22812693   188.68471012
 H      7   6   1     2.080027272687   108.28710877    72.00046924
 H      8   3   2     2.075932422232   108.29429820    64.53613991
 H      8   3   2     2.071493041965   109.51547194   181.48972760
 O      3   2   1     2.716295458729   110.64159214   292.86178916
 H      3   2   1     2.073173114191   109.48090870   177.33656596
 C      1   2   3     2.559280795258   121.31097270   122.55004870
 C      6   1   2     2.527262939340   123.10785977   232.03283655
 H     16   6   1     2.053565350620   121.32034113   358.92270398
 H     16   6   1     2.055076683113   120.97694287   178.36725043
 C     15   1   2     2.730163614673   125.98325687   185.06378073
 H     15   1   2     2.058658340062   116.31772829     3.09350660
 C     19  15   1     2.551143624590   126.59414285   185.24881733
 H     19  15   1     2.055493590243   115.71185281     5.92692849
 C     21  19  15     2.848667324593   125.77283290     1.82945770
 C     23  21  19     2.912723783490   111.68549821   125.74312226
 H     23  21  19     2.066280478013   112.31188175     2.02067873
 H     23  21  19     2.081989740420   107.84789498   244.36438123
 C     24  23  21     2.900406333590   112.70349531    50.69687049
 H     24  23  21     2.073696846198   109.02453919   288.57391692
 H     24  23  21     2.072818004895   109.10272602   172.65516956
 C     27  24  23     2.900640649230   111.86825817   306.34138509
 H     27  24  23     2.069261848189   108.96236688   182.75467581
 H     27  24  23     2.079640806418   109.25473565    66.25466050
 C     21  19  15     2.830097121717   122.64242446   180.36748138
 H     33  21  19     2.089974657593   106.42394816   126.11738932
 C     33  21  19     2.880391187603   121.12084048     3.47059964
 H     13   3   2     1.829082929059   107.59930113    41.90687100
 C     35  33  21     2.924746172247   103.30689123   195.07938476
 H     35  33  21     2.069484275990   112.25537295    73.30404599
 H     35  33  21     2.070716435757   110.74912015   313.57459016
 C     30  27  24     2.940625987957   115.81415404   166.48677166
 H     37  35  33     2.066071696853   111.08232423   252.12259103
 H     37  35  33     2.071934439878   111.26078452   133.83159756
 H     40  30  27     2.081404598282   105.77832425   322.36019789
 C     40  30  27     2.900325941030   117.98774816    83.31620487
 C     30  27  24     2.901175338972   111.07036002   294.73806205
 H     45  30  27     2.068641353307   111.76239525   187.17839763
 H     45  30  27     2.068252857675   111.34036505    67.23579736
 H     45  30  27     2.069586823432   110.83826306   307.19568642
 H     44  40  30     2.081598483634   107.28047982    62.44636698
 C     44  40  30     2.909639217035   114.19738245   303.61091074
 C     44  40  30     2.861080529577   113.60828287   180.17955883
 C     51  44  40     2.519127840067   126.99549228    23.76029766
 H     51  44  40     2.062416453380   113.91555468   199.12790040
 H     52  51  44     2.057639964545   118.84834736   355.92049760
 C     52  51  44     2.852322458147   126.19631763   174.61526072
 C     55  52  51     2.892217887638   113.16665870    19.81893822
 C     55  52  51     2.939044216909   110.61412474   253.60645407
 H     55  52  51     2.085666061711   106.89556885   138.52526761
 H     57  55  52     2.082085657094   106.58266761    65.90023068
 C     57  55  52     2.895312680546   112.05289042   307.72270131
 C     57  55  52     2.894340846196   111.75937410   184.33903436
 H     56  55  52     2.072614984881   111.35687486   288.21014334
 H     56  55  52     2.065261280699   111.09767096   168.13597532
 H     56  55  52     2.068913211632   110.78075003    48.38895725
 H     60  57  55     2.067198010743   112.14860208    63.66619400
 H     60  57  55     2.075005298546   110.61755569   303.00951658
 H     60  57  55     2.069940632851   110.41561189   183.83943799
 H     61  57  55     2.066201319091   112.45676618   296.64767145
 H     61  57  55     2.070368079540   110.35242384   176.48155916
 H     61  57  55     2.074741938539   110.39913248    57.51363162
 H     50  44  40     2.065412625915   112.14116479    67.47969766
 H     50  44  40     2.072205159054   110.31915789   306.31743413
 H     50  44  40     2.070870678349   110.28669715   187.44978821

---------------------
BASIS SET INFORMATION
---------------------
There are 3 groups of distinct atoms

 Group   1 Type C   : 7s4p contracted to 4s3p pattern {4111/211}
 Group   2 Type H   : 5s contracted to 3s pattern {311}
 Group   3 Type O   : 7s4p contracted to 4s3p pattern {4111/211}

Atom   0C    basis set group =>   1
Atom   1C    basis set group =>   1
Atom   2C    basis set group =>   1
Atom   3H    basis set group =>   2
Atom   4H    basis set group =>   2
Atom   5C    basis set group =>   1
Atom   6C    basis set group =>   1
Atom   7C    basis set group =>   1
Atom   8H    basis set group =>   2
Atom   9H    basis set group =>   2
Atom  10H    basis set group =>   2
Atom  11H    basis set group =>   2
Atom  12O    basis set group =>   3
Atom  13H    basis set group =>   2
Atom  14C    basis set group =>   1
Atom  15C    basis set group =>   1
Atom  16H    basis set group =>   2
Atom  17H    basis set group =>   2
Atom  18C    basis set group =>   1
Atom  19H    basis set group =>   2
Atom  20C    basis set group =>   1
Atom  21H    basis set group =>   2
Atom  22C    basis set group =>   1
Atom  23C    basis set group =>   1
Atom  24H    basis set group =>   2
Atom  25H    basis set group =>   2
Atom  26C    basis set group =>   1
Atom  27H    basis set group =>   2
Atom  28H    basis set group =>   2
Atom  29C    basis set group =>   1
Atom  30H    basis set group =>   2
Atom  31H    basis set group =>   2
Atom  32C    basis set group =>   1
Atom  33H    basis set group =>   2
Atom  34C    basis set group =>   1
Atom  35H    basis set group =>   2
Atom  36C    basis set group =>   1
Atom  37H    basis set group =>   2
Atom  38H    basis set group =>   2
Atom  39C    basis set group =>   1
Atom  40H    basis set group =>   2
Atom  41H    basis set group =>   2
Atom  42H    basis set group =>   2
Atom  43C    basis set group =>   1
Atom  44C    basis set group =>   1
Atom  45H    basis set group =>   2
Atom  46H    basis set group =>   2
Atom  47H    basis set group =>   2
Atom  48H    basis set group =>   2
Atom  49C    basis set group =>   1
Atom  50C    basis set group =>   1
Atom  51C    basis set group =>   1
Atom  52H    basis set group =>   2
Atom  53H    basis set group =>   2
Atom  54C    basis set group =>   1
Atom  55C    basis set group =>   1
Atom  56C    basis set group =>   1
Atom  57H    basis set group =>   2
Atom  58H    basis set group =>   2
Atom  59C    basis set group =>   1
Atom  60C    basis set group =>   1
Atom  61H    basis set group =>   2
Atom  62H    basis set group =>   2
Atom  63H    basis set group =>   2
Atom  64H    basis set group =>   2
Atom  65H    basis set group =>   2
Atom  66H    basis set group =>   2
Atom  67H    basis set group =>   2
Atom  68H    basis set group =>   2
Atom  69H    basis set group =>   2
Atom  70H    basis set group =>   2
Atom  71H    basis set group =>   2
Atom  72H    basis set group =>   2

-------------------------
BASIS SET IN INPUT FORMAT
-------------------------

 # Basis set for element : H 
 NewGTO H 
 S 3 
   1    1357.7500000000      0.0012928364
   2      54.3100000000      0.0588280685
   3       4.3448000000      0.9761499708
 S 1 
   1       0.6604910000      1.0000000000
 S 1 
   1       0.1366870000      1.0000000000
  end;

 # Basis set for element : C 
 NewGTO C 
 S 4 
   1  139534.0000000000      0.0001655246
   2    5581.3600000000      0.0074486101
   3     446.5090000000      0.1285821065
   4      67.4620000000      0.9218029311
 S 1 
   1      15.0674000000      1.0000000000
 S 1 
   1       3.9387600000      1.0000000000
 S 1 
   1       0.2999150000      1.0000000000
 P 2 
   1      28.3900000000      0.0816325586
   2       4.3676900000      0.9660360576
 P 1 
   1       0.8698170000      1.0000000000
 P 1 
   1       0.1889340000      1.0000000000
  end;

 # Basis set for element : O 
 NewGTO O 
 S 4 
   1  253789.0000000000      0.0001641076
   2   10151.6000000000      0.0074010921
   3     812.1250000000      0.1277711901
   4     122.6930000000      0.9223372164
 S 1 
   1      27.5608000000      1.0000000000
 S 1 
   1       7.3172600000      1.0000000000
 S 1 
   1       0.5792400000      1.0000000000
 P 2 
   1      53.4157000000      0.0793786106
   2       8.2177900000      0.9670506337
 P 1 
   1       1.6754400000      1.0000000000
 P 1 
   1       0.3506720000      1.0000000000
  end;

---------------------------------
AUXILIARY/J BASIS SET INFORMATION
---------------------------------
There are 3 groups of distinct atoms

 Group   1 Type C   : 12s5p4d2f1g contracted to 6s4p3d1f1g pattern {711111/2111/211/2/1}
 Group   2 Type H   : 5s2p1d contracted to 3s1p1d pattern {311/2/1}
 Group   3 Type O   : 12s5p4d2f1g contracted to 6s4p3d1f1g pattern {711111/2111/211/2/1}

Atom   0C    basis set group =>   1
Atom   1C    basis set group =>   1
Atom   2C    basis set group =>   1
Atom   3H    basis set group =>   2
Atom   4H    basis set group =>   2
Atom   5C    basis set group =>   1
Atom   6C    basis set group =>   1
Atom   7C    basis set group =>   1
Atom   8H    basis set group =>   2
Atom   9H    basis set group =>   2
Atom  10H    basis set group =>   2
Atom  11H    basis set group =>   2
Atom  12O    basis set group =>   3
Atom  13H    basis set group =>   2
Atom  14C    basis set group =>   1
Atom  15C    basis set group =>   1
Atom  16H    basis set group =>   2
Atom  17H    basis set group =>   2
Atom  18C    basis set group =>   1
Atom  19H    basis set group =>   2
Atom  20C    basis set group =>   1
Atom  21H    basis set group =>   2
Atom  22C    basis set group =>   1
Atom  23C    basis set group =>   1
Atom  24H    basis set group =>   2
Atom  25H    basis set group =>   2
Atom  26C    basis set group =>   1
Atom  27H    basis set group =>   2
Atom  28H    basis set group =>   2
Atom  29C    basis set group =>   1
Atom  30H    basis set group =>   2
Atom  31H    basis set group =>   2
Atom  32C    basis set group =>   1
Atom  33H    basis set group =>   2
Atom  34C    basis set group =>   1
Atom  35H    basis set group =>   2
Atom  36C    basis set group =>   1
Atom  37H    basis set group =>   2
Atom  38H    basis set group =>   2
Atom  39C    basis set group =>   1
Atom  40H    basis set group =>   2
Atom  41H    basis set group =>   2
Atom  42H    basis set group =>   2
Atom  43C    basis set group =>   1
Atom  44C    basis set group =>   1
Atom  45H    basis set group =>   2
Atom  46H    basis set group =>   2
Atom  47H    basis set group =>   2
Atom  48H    basis set group =>   2
Atom  49C    basis set group =>   1
Atom  50C    basis set group =>   1
Atom  51C    basis set group =>   1
Atom  52H    basis set group =>   2
Atom  53H    basis set group =>   2
Atom  54C    basis set group =>   1
Atom  55C    basis set group =>   1
Atom  56C    basis set group =>   1
Atom  57H    basis set group =>   2
Atom  58H    basis set group =>   2
Atom  59C    basis set group =>   1
Atom  60C    basis set group =>   1
Atom  61H    basis set group =>   2
Atom  62H    basis set group =>   2
Atom  63H    basis set group =>   2
Atom  64H    basis set group =>   2
Atom  65H    basis set group =>   2
Atom  66H    basis set group =>   2
Atom  67H    basis set group =>   2
Atom  68H    basis set group =>   2
Atom  69H    basis set group =>   2
Atom  70H    basis set group =>   2
Atom  71H    basis set group =>   2
Atom  72H    basis set group =>   2

-------------------------------------
AUXILIARY/J BASIS SET IN INPUT FORMAT
-------------------------------------

 # Auxiliary/J basis set for element : H 
 NewAuxJGTO H 
 S 3 
   1      15.6752927000      0.1007184237
   2       3.6063578000      0.3404257499
   3       1.2080016000      0.6491996172
 S 1 
   1       0.4726794000      1.0000000000
 S 1 
   1       0.2018100000      1.0000000000
 P 2 
   1       2.0281365000      0.5596620919
   2       0.5358730000      0.5596620919
 D 1 
   1       2.2165124000      1.0000000000
  end;

 # Auxiliary/J basis set for element : C 
 NewAuxJGTO C 
 S 7 
   1    1861.0916331000      0.0134602335
   2     642.9939764000      0.0299160374
   3     235.1105725000      0.1008649584
   4      90.7028894000      0.2370970548
   5      36.7794552000      0.3924037254
   6      15.6046273000      0.3195862154
   7       6.8907294000      0.0530104441
 S 1 
   1       3.1478850000     -1.0000000000
 S 1 
   1       1.4777287000      1.0000000000
 S 1 
   1       0.7076466000      1.0000000000
 S 1 
   1       0.3430122000      1.0000000000
 S 1 
   1       0.1669453000      1.0000000000
 P 2 
   1      13.5472892000     -0.6769313712
   2       5.4669419000     -0.3779500978
 P 1 
   1       2.1751721000      1.0000000000
 P 1 
   1       0.8582194000      1.0000000000
 P 1 
   1       0.3376720000      1.0000000000
 D 2 
   1       5.9287253000     -0.3533329857
   2       1.9809209000     -0.7456525731
 D 1 
   1       0.8055417000     -1.0000000000
 D 1 
   1       0.3531244000     -1.0000000000
 F 2 
   1       1.6755626000      0.6311076882
   2       0.5997536000      0.4968166032
 G 1 
   1       1.0024600000     -1.0000000000
  end;

 # Auxiliary/J basis set for element : O 
 NewAuxJGTO O 
 S 7 
   1    2876.8216605000      0.0168151159
   2    1004.7443032000      0.0340137548
   3     369.7579954000      0.1194951309
   4     142.9442404000      0.2664627624
   5      57.8366425000      0.4202764046
   6      24.3864983000      0.2765077335
   7      10.6622662000      0.0057008815
 S 1 
   1       4.8070437000     -1.0000000000
 S 1 
   1       2.2210770000      1.0000000000
 S 1 
   1       1.0447795000      1.0000000000
 S 1 
   1       0.4968425000      1.0000000000
 S 1 
   1       0.2371384000      1.0000000000
 P 2 
   1      64.2613382000     -0.2731534179
   2      16.3006076000     -0.8168011598
 P 1 
   1       4.3550542000      1.0000000000
 P 1 
   1       1.2019554000      1.0000000000
 P 1 
   1       0.3354196000      1.0000000000
 D 2 
   1       9.2146611000     -0.4661230638
   2       2.8435251000     -0.6600908911
 D 1 
   1       0.9955759000     -1.0000000000
 D 1 
   1       0.3649441000     -1.0000000000
 F 2 
   1       2.6420115000      0.5931563945
   2       0.7345613000      0.5931563945
 G 1 
   1       1.3931000000     -1.0000000000
  end;


Checking for AutoStart:
The File: inpJ.gbw exists
Trying to determine its content:
     ... Fine, the file contains calculation information
     ... Fine, the calculation information was read
     ... Fine, the file contains a basis set
     ... Fine, the basis set was read
     ... Fine, the file contains a geometry
     ... Fine, the geometry was read
     ... Fine, the file contains a set of orbitals
     ... Fine, the orbitals can be read
     => possible old guess file was deleted
     => GBW file was renamed to GES file
     => GES file is set as startup file
     => Guess is set to MORead
     ... now leaving AutoStart



           ************************************************************
           *        Program running with 4 parallel MPI-processes     *
           *              working on a common directory               *
           ************************************************************
------------------------------------------------------------------------------
                             ORCA STARTUP CALCULATIONS
                           -- RI-GTO INTEGRALS CHOSEN --
------------------------------------------------------------------------------
------------------------------------------------------------------------------
                   ___                                                        
                  /   \      - P O W E R E D   B Y -                         
                 /     \                                                     
                 |  |  |   _    _      __       _____    __    __             
                 |  |  |  | |  | |    /  \     |  _  \  |  |  /  |          
                  \  \/   | |  | |   /    \    | | | |  |  | /  /          
                 / \  \   | |__| |  /  /\  \   | |_| |  |  |/  /          
                |  |  |   |  __  | /  /__\  \  |    /   |      \           
                |  |  |   | |  | | |   __   |  |    \   |  |\   \          
                \     /   | |  | | |  |  |  |  | |\  \  |  | \   \       
                 \___/    |_|  |_| |__|  |__|  |_| \__\ |__|  \__/        
                                                                              
                      - O R C A' S   B I G   F R I E N D -                    
                                      &                                       
                       - I N T E G R A L  F E E D E R -                       
                                                                              
 v1 FN, 2020, v2 2021, v3 2022-2024                                           
------------------------------------------------------------------------------


----------------------
SHARK INTEGRAL PACKAGE
----------------------

Number of atoms                             ...     73
Number of basis functions                   ...    509
Number of shells                            ...    335
Maximum angular momentum                    ...      1
Integral batch strategy                     ... SHARK/LIBINT Hybrid
RI-J (if used) integral strategy            ... SPLIT-RIJ (Revised 2003 algorithm where possible)
Printlevel                                  ...      1
Contraction scheme used                     ... SEGMENTED contraction
Prescreening option                         ... SCHWARTZ
   Thresh                                   ... 3.000e-11
   Tcut                                     ... 1.000e-12
   Tpresel                                  ... 1.000e-12 
Coulomb Range Separation                    ... NOT USED
Exchange Range Separation                   ... NOT USED
Multipole approximations                    ... NOT USED
Finite Nucleus Model                        ... NOT USED
CABS basis                                  ... NOT available
Auxiliary Coulomb fitting basis             ... AVAILABLE
   # of basis functions in Aux-J            ...   1905
   # of shells in Aux-J                     ...    655
   Maximum angular momentum in Aux-J        ...      4
Auxiliary J/K fitting basis                 ... NOT available
Auxiliary Correlation fitting basis         ... NOT available
Auxiliary 'external' fitting basis          ... NOT available

Checking pre-screening integrals            ... done (  0.0 sec) Dimension = 335
Check shell pair data                       ... done (  0.0 sec)
Shell pair information
Shell pair cut-off parameter TPreSel        ...   1.0e-12
Total number of shell pairs                 ...     56280
Shell pairs after pre-screening             ...     21983
Total number of primitive shell pairs       ...    145865
Primitive shell pairs kept                  ...     37804
          la=0 lb=0:  11060 shell pairs
          la=1 lb=0:   9040 shell pairs
          la=1 lb=1:   1883 shell pairs

Calculating one electron integrals          ... done (  0.0 sec)
Calculating RI/J V-Matrix + Cholesky decomp.... done (  0.2 sec)
Calculating Nuclear repulsion               ... done (  0.0 sec) ENN=   2792.485175336531 Eh

Diagonalization of the overlap matrix:
Smallest eigenvalue                        ... 7.570e-03
Time for diagonalization                   ...    0.028 sec
Threshold for overlap eigenvalues          ... 1.000e-07
Number of eigenvalues below threshold      ... 0
Time for construction of square roots      ...    0.015 sec
Total time needed                          ...    0.045 sec

-------------------
DFT GRID GENERATION
-------------------

General Integration Accuracy     IntAcc      ... 4.388
Radial Grid Type                 RadialGrid  ... OptM3 with GC (2021)
Angular Grid (max. ang.)         AngularGrid ... 4 (Lebedev-302)
Angular grid pruning method      GridPruning ... 4 (adaptive)
Weight generation scheme         WeightScheme... mBecke (2022)
Basis function cutoff            BFCut       ... 1.0000e-11
Integration weight cutoff        WCut        ... 1.0000e-14
Partially contracted basis set               ... off
Rotationally invariant grid construction     ... off
Angular grids for H and He will be reduced by one unit

Total number of grid points                  ...   309822
Total number of batches                      ...     4878
Average number of points per batch           ...       63
Average number of grid points per atom       ...     4244

--------------------
COSX GRID GENERATION
--------------------

GRIDX 1
-------
General Integration Accuracy     IntAcc      ... 3.816
Radial Grid Type                 RadialGrid  ... OptM3 with GC (2021)
Angular Grid (max. ang.)         AngularGrid ... 1 (Lebedev-50)
Angular grid pruning method      GridPruning ... 4 (adaptive)
Weight generation scheme         WeightScheme... mBecke (2022)
Basis function cutoff            BFCut       ... 1.0000e-11
Integration weight cutoff        WCut        ... 1.0000e-14
Partially contracted basis set               ... on
Rotationally invariant grid construction     ... off
Angular grids for H and He will be reduced by one unit

Total number of grid points                  ...    39362
Total number of batches                      ...      352
Average number of points per batch           ...      111
Average number of grid points per atom       ...      539
UseSFitting                                  ... on

GRIDX 2
-------
General Integration Accuracy     IntAcc      ... 4.020
Radial Grid Type                 RadialGrid  ... OptM3 with GC (2021)
Angular Grid (max. ang.)         AngularGrid ... 2 (Lebedev-110)
Angular grid pruning method      GridPruning ... 4 (adaptive)
Weight generation scheme         WeightScheme... mBecke (2022)
Basis function cutoff            BFCut       ... 1.0000e-11
Integration weight cutoff        WCut        ... 1.0000e-14
Partially contracted basis set               ... on
Rotationally invariant grid construction     ... off
Angular grids for H and He will be reduced by one unit

Total number of grid points                  ...    81369
Total number of batches                      ...      675
Average number of points per batch           ...      120
Average number of grid points per atom       ...     1115
UseSFitting                                  ... on

GRIDX 3
-------
General Integration Accuracy     IntAcc      ... 4.338
Radial Grid Type                 RadialGrid  ... OptM3 with GC (2021)
Angular Grid (max. ang.)         AngularGrid ... 3 (Lebedev-194)
Angular grid pruning method      GridPruning ... 4 (adaptive)
Weight generation scheme         WeightScheme... mBecke (2022)
Basis function cutoff            BFCut       ... 1.0000e-11
Integration weight cutoff        WCut        ... 1.0000e-14
Partially contracted basis set               ... on
Rotationally invariant grid construction     ... off
Angular grids for H and He will be reduced by one unit

Total number of grid points                  ...   176161
Total number of batches                      ...     1419
Average number of points per batch           ...      124
Average number of grid points per atom       ...     2413
UseSFitting                                  ... on
Initializing property integral containers    ... done (  0.0 sec)

SHARK setup successfully completed in   3.8 seconds

Maximum memory used throughout the entire STARTUP-calculation: 85.8 MB


           ************************************************************
           *        Program running with 4 parallel MPI-processes     *
           *              working on a common directory               *
           ************************************************************
-------------------------------------------------------------------------------
                                 ORCA GUESS
                   Start orbitals & Density for SCF / CASSCF
-------------------------------------------------------------------------------

------------
SCF SETTINGS
------------
Hamiltonian:
 Density Functional     Method          .... DFT(GTOs)
 Exchange Functional    Exchange        .... PBE
   PBE kappa parameter   XKappa         ....  0.804000
   PBE mue parameter    XMuePBE         ....  0.219520
 Correlation Functional Correlation     .... PBE
   PBE beta parameter  CBetaPBE         ....  0.066725
 LDA part of GGA corr.  LDAOpt          .... PW91-LDA
 Gradients option       PostSCFGGA      .... off
 Hybrid DFT is turned on
   Fraction HF Exchange ScalHFX         ....  0.250000
   Scaling of DF-GGA-X  ScalDFX         ....  0.750000
   Scaling of DF-GGA-C  ScalDFC         ....  1.000000
   Scaling of DF-LDA-C  ScalLDAC        ....  1.000000
   Perturbative correction              ....  0.000000
   NL short-range parameter             ....  6.900000
 RI-approximation to the Coulomb term is turned on
   Number of AuxJ basis functions       .... 1905
   RIJ-COSX (HFX calculated with COS-X)).... on


General Settings:
 Integral files         IntName         .... inpJ
 Hartree-Fock type      HFTyp           .... RHF
 Total Charge           Charge          ....    0
 Multiplicity           Mult            ....    1
 Number of Electrons    NEL             ....  220
 Basis Dimension        Dim             ....  509
 Nuclear Repulsion      ENuc            ....   2792.4851753365 Eh

Convergence Acceleration:
 AO-DIIS                CNVDIIS         .... on
   Start iteration      DIISMaxIt       ....    12
   Startup error        DIISStart       ....  0.200000
   # of expansion vecs  DIISMaxEq       ....     5
   Bias factor          DIISBfac        ....   1.050
   Max. coefficient     DIISMaxC        ....  10.000
 MO-DIIS                CNVKDIIS        .... off
 Trust-Rad. Augm. Hess. CNVTRAH         .... auto
   Auto Start mean grad. ratio tolernc. ....  1.125000
   Auto Start start iteration           ....     1
   Auto Start num. interpolation iter.  ....    10
   Max. Number of Micro iterations      ....    24
   Max. Number of Macro iterations      .... Maxiter - #DIIS iter
   Number of Davidson start vectors     ....     2
   Converg. threshold    (grad. norm)   ....   1.000e-04
   Grad. Scal. Fac. for Micro threshold ....   0.100
   Minimum threshold for Micro iter.    ....   1.000e-02
   NR start threshold (gradient norm)   ....   1.000e-04
   Initial trust radius                 ....   0.400
   Minimum AH scaling param. (alpha)    ....   1.000
   Maximum AH scaling param. (alpha)    .... 1000.000
   Quad. conv. algorithm                .... NR
   White noise on init. David. guess    .... on
   Maximum white noise                  ....   0.010
   Pseudo random numbers                .... off
   Inactive MOs                         .... canonical
   Orbital update algorithm             .... Taylor
   Preconditioner                       .... Diag
   Full preconditioner red. dimension   ....   250
 SOSCF                  CNVSOSCF        .... off
 Level Shifting         CNVShift        .... on
   Level shift para.    LevelShift      ....    0.2500
   Turn off err/grad.   ShiftErr        ....    0.0010
 Zerner damping         CNVZerner       .... off
 Static damping         CNVDamp         .... on
   Fraction old density DampFac         ....    0.7000
   Max. Damping (<1)    DampMax         ....    0.9800
   Min. Damping (>=0)   DampMin         ....    0.0000
   Turn off err/grad.   DampErr         ....    0.1000

SCF Procedure:
 Maximum # iterations   MaxIter         ....   125
 SCF integral mode      SCFMode         .... Direct
   Integral package                     .... SHARK and LIBINT hybrid scheme
 Reset frequency        DirectResetFreq ....    20
 Integral Threshold     Thresh          ....  3.000e-11 Eh
 Primitive CutOff       TCut            ....  1.000e-12 Eh

Convergence Tolerance:
 Convergence Check Mode ConvCheckMode   .... Total+1el-Energy
 Convergence forced     ConvForced      .... 0
 Energy Change          TolE            ....  1.000e-07 Eh
 1-El. energy change                    ....  1.000e-04 Eh
 DIIS Error             TolErr          ....  1.000e-07

---------------------
INITIAL GUESS: MOREAD
---------------------
Guess MOs are being read from file: inpJ.ges
Input Geometry matches current geometry (good)
Input basis set matches current basis set (good)
Occupation numbers will be reassigned to an Aufbau configuration
MOs were renormalized
MOs were reorthogonalized (Cholesky)
                      ------------------
                      INITIAL GUESS DONE (   0.1 sec)
                      ------------------
             **** ENERGY FILE WAS UPDATED (inpJ.en.tmp) ****
Finished Guess after   0.2 sec
Maximum memory used throughout the entire GUESS-calculation: 36.8 MB


           ************************************************************
           *        Program running with 4 parallel MPI-processes     *
           *              working on a common directory               *
           ************************************************************

-------------------------------------------------------------------------------------------
                                      ORCA LEAN-SCF
                              memory conserving SCF solver
-------------------------------------------------------------------------------------------

--------------------
CPCM SOLVATION MODEL
--------------------
CPCM parameters:
  Epsilon                                         ...       4.8030
  Refrac                                          ...       1.4459
  Rsolv                                           ...       1.3000
  Surface type                                    ... GAUSSIAN VDW
  Discretization scheme                           ... Constant charge density
    Threshold for H atoms                         ...       5.0000 (charges/Ang^2)
    Threshold for non-H atoms                     ...       5.0000 (charges/Ang^2)
  Epsilon function type                           ...         CPCM
Solvent:                                          ... CHLOROFORM
Radii:
  Scheme                                          ... Element-dependent radii
  Radius for C  used is    3.8550 Bohr (=   2.0400 Ang.)
  Radius for H  used is    2.4944 Bohr (=   1.3200 Ang.)
  Radius for O  used is    3.4469 Bohr (=   1.8240 Ang.)
Calculating surface                               ...        done! (  0.0s)
Cavity surface points                             ...         5373
Cavity Volume                                     ...    3597.5106
Cavity Surface-area                               ...    1783.4002
Calculating surface distance matrix               ...        done! (  0.3s)
Performing Cholesky decomposition & store         ...        done! (  1.0s)
Overall time for CPCM initialization              ...                 1.3s

----------------------------------------D-I-I-S--------------------------------------------
Iteration    Energy (Eh)           Delta-E    RMSDP     MaxDP     DIISErr   Damp  Time(sec)
-------------------------------------------------------------------------------------------
               ***  Starting incremental Fock matrix formation  ***
    1    -1165.5089786191697385     0.00e+00  4.10e-08  5.67e-06  6.05e-06  0.700   6.2

  HOMO= 109 E= -6.015 eV LUMO=  5.941 eV gap=  11.956 eV
    2    -1165.5089786447047118    -2.55e-08  2.77e-08  3.39e-06  3.02e-06  0.700   2.2
                 **** Energy Check signals convergence ****

  HOMO= 109 E= -6.015 eV LUMO=  5.941 eV gap=  11.956 eV

               *****************************************************
               *                     SUCCESS                       *
               *           SCF CONVERGED AFTER   2 CYCLES          *
               *****************************************************

Recomputing exchange energy using gridx3       ... done (    8.542 sec)
Old exchange energy                            :    -42.067786033 Eh
New exchange energy                            :    -42.067805437 Eh
Exchange energy change after final integration :     -0.000019404 Eh
Total energy after final integration           :  -1165.508998048 Eh
             **** ENERGY FILE WAS UPDATED (inpJ.en.tmp) ****

----------------
TOTAL SCF ENERGY
----------------

Total Energy       :      -1165.50899804842106 Eh          -31715.11220 eV

Components:
Nuclear Repulsion  :       2792.48517533653103 Eh           75987.38474 eV
Electronic Energy  :      -3957.98052395267996 Eh         -107702.12553 eV
One Electron Energy:      -7126.74079573267682 Eh         -193928.47619 eV
Two Electron Energy:       3168.76027177999686 Eh           86226.35066 eV
CPCM Dielectric    :         -0.01363002855592 Eh              -0.37089 eV

Virial components:
Potential Energy   :      -2322.40571515804095 Eh          -63195.87233 eV
Kinetic Energy     :       1156.89671710961966 Eh           31480.76012 eV
Virial Ratio       :          2.00744429542537

DFT components:
N(Alpha)           :      110.000123420116 electrons
N(Beta)            :      110.000123420116 electrons
N(Total)           :      220.000246840232 electrons
E(X)               :     -125.745752448344 Eh       
E(C)               :       -7.329245831155 Eh       
E(XC)              :     -133.074998279499 Eh       

CPCM Solvation Model Properties:
Surface-charge          :         -0.03336927009353
Corrected charge        :          0.00000000000000
Outlying charge corr.   :          0.00003908136856 Eh               0.00106 eV
Free-energy (cav+disp)  :  This term is not implemented in the current solvation scheme

---------------
SCF CONVERGENCE
---------------

  Last Energy change         ...    2.5535e-08  Tolerance :   1.0000e-07
  Last MAX-Density change    ...    3.3930e-06  Tolerance :   1.0000e-05
  Last RMS-Density change    ...    2.7665e-08  Tolerance :   1.0000e-06
  Last DIIS Error            ...    3.0197e-06  Tolerance :   1.0000e-07


----------------
ORBITAL ENERGIES
----------------

  NO   OCC          E(Eh)            E(eV) 
   0   2.0000     -19.212373      -522.7952 
   1   2.0000     -10.300498      -280.2908 
   2   2.0000     -10.270502      -279.4746 
   3   2.0000     -10.268435      -279.4183 
   4   2.0000     -10.263727      -279.2902 
   5   2.0000     -10.257599      -279.1235 
   6   2.0000     -10.257103      -279.1100 
   7   2.0000     -10.251775      -278.9650 
   8   2.0000     -10.251611      -278.9605 
   9   2.0000     -10.250550      -278.9316 
  10   2.0000     -10.248155      -278.8665 
  11   2.0000     -10.247736      -278.8551 
  12   2.0000     -10.246014      -278.8082 
  13   2.0000     -10.244572      -278.7690 
  14   2.0000     -10.244429      -278.7651 
  15   2.0000     -10.243703      -278.7453 
  16   2.0000     -10.243074      -278.7282 
  17   2.0000     -10.241797      -278.6935 
  18   2.0000     -10.241761      -278.6925 
  19   2.0000     -10.241484      -278.6849 
  20   2.0000     -10.240220      -278.6506 
  21   2.0000     -10.234142      -278.4852 
  22   2.0000     -10.234055      -278.4828 
  23   2.0000     -10.232811      -278.4490 
  24   2.0000     -10.227201      -278.2963 
  25   2.0000     -10.224875      -278.2330 
  26   2.0000     -10.224856      -278.2325 
  27   2.0000     -10.224682      -278.2277 
  28   2.0000     -10.220755      -278.1209 
  29   2.0000      -1.043147       -28.3855 
  30   2.0000      -0.901625       -24.5345 
  31   2.0000      -0.882313       -24.0090 
  32   2.0000      -0.860365       -23.4117 
  33   2.0000      -0.845993       -23.0206 
  34   2.0000      -0.822516       -22.3818 
  35   2.0000      -0.814372       -22.1602 
  36   2.0000      -0.796011       -21.6606 
  37   2.0000      -0.795141       -21.6369 
  38   2.0000      -0.777626       -21.1603 
  39   2.0000      -0.758374       -20.6364 
  40   2.0000      -0.740375       -20.1466 
  41   2.0000      -0.733560       -19.9612 
  42   2.0000      -0.715287       -19.4640 
  43   2.0000      -0.703095       -19.1322 
  44   2.0000      -0.702441       -19.1144 
  45   2.0000      -0.696054       -18.9406 
  46   2.0000      -0.670668       -18.2498 
  47   2.0000      -0.663381       -18.0515 
  48   2.0000      -0.631919       -17.1954 
  49   2.0000      -0.622262       -16.9326 
  50   2.0000      -0.612618       -16.6702 
  51   2.0000      -0.607455       -16.5297 
  52   2.0000      -0.596703       -16.2371 
  53   2.0000      -0.587054       -15.9745 
  54   2.0000      -0.566735       -15.4216 
  55   2.0000      -0.541193       -14.7266 
  56   2.0000      -0.530396       -14.4328 
  57   2.0000      -0.529188       -14.3999 
  58   2.0000      -0.515176       -14.0186 
  59   2.0000      -0.511947       -13.9308 
  60   2.0000      -0.501171       -13.6376 
  61   2.0000      -0.493689       -13.4340 
  62   2.0000      -0.481782       -13.1100 
  63   2.0000      -0.478122       -13.0104 
  64   2.0000      -0.473825       -12.8934 
  65   2.0000      -0.469063       -12.7639 
  66   2.0000      -0.465243       -12.6599 
  67   2.0000      -0.461097       -12.5471 
  68   2.0000      -0.459171       -12.4947 
  69   2.0000      -0.451211       -12.2781 
  70   2.0000      -0.449639       -12.2353 
  71   2.0000      -0.442838       -12.0502 
  72   2.0000      -0.439994       -11.9728 
  73   2.0000      -0.433403       -11.7935 
  74   2.0000      -0.432433       -11.7671 
  75   2.0000      -0.421827       -11.4785 
  76   2.0000      -0.418409       -11.3855 
  77   2.0000      -0.415477       -11.3057 
  78   2.0000      -0.409785       -11.1508 
  79   2.0000      -0.403920       -10.9912 
  80   2.0000      -0.401577       -10.9275 
  81   2.0000      -0.399036       -10.8583 
  82   2.0000      -0.394565       -10.7367 
  83   2.0000      -0.389241       -10.5918 
  84   2.0000      -0.388710       -10.5773 
  85   2.0000      -0.381415       -10.3788 
  86   2.0000      -0.375208       -10.2099 
  87   2.0000      -0.373437       -10.1617 
  88   2.0000      -0.366732        -9.9793 
  89   2.0000      -0.362950        -9.8764 
  90   2.0000      -0.361357        -9.8330 
  91   2.0000      -0.359911        -9.7937 
  92   2.0000      -0.354375        -9.6430 
  93   2.0000      -0.345657        -9.4058 
  94   2.0000      -0.340930        -9.2772 
  95   2.0000      -0.339107        -9.2276 
  96   2.0000      -0.337030        -9.1710 
  97   2.0000      -0.333445        -9.0735 
  98   2.0000      -0.330823        -9.0021 
  99   2.0000      -0.330065        -8.9815 
 100   2.0000      -0.327520        -8.9123 
 101   2.0000      -0.325495        -8.8572 
 102   2.0000      -0.319258        -8.6875 
 103   2.0000      -0.315442        -8.5836 
 104   2.0000      -0.310388        -8.4461 
 105   2.0000      -0.301119        -8.1939 
 106   2.0000      -0.276506        -7.5241 
 107   2.0000      -0.275070        -7.4850 
 108   2.0000      -0.255788        -6.9603 
 109   2.0000      -0.221056        -6.0153 
 110   0.0000      -0.031667        -0.8617 
 111   0.0000       0.019279         0.5246 
 112   0.0000       0.027386         0.7452 
 113   0.0000       0.080170         2.1815 
 114   0.0000       0.088666         2.4127 
 115   0.0000       0.102132         2.7792 
 116   0.0000       0.104037         2.8310 
 117   0.0000       0.106075         2.8864 
 118   0.0000       0.109262         2.9732 
 119   0.0000       0.117386         3.1942 
 120   0.0000       0.119292         3.2461 
*Only the first 10 virtual orbitals were printed.

                    ********************************
                    * MULLIKEN POPULATION ANALYSIS *
                    ********************************

-----------------------
MULLIKEN ATOMIC CHARGES
-----------------------
   0 C :    0.077773
   1 C :   -0.500872
   2 C :   -0.073977
   3 H :    0.223025
   4 H :    0.220015
   5 C :    0.138560
   6 C :   -0.479510
   7 C :   -0.439855
   8 H :    0.225245
   9 H :    0.207546
  10 H :    0.208712
  11 H :    0.227870
  12 O :   -0.488311
  13 H :    0.247160
  14 C :   -0.280179
  15 C :   -0.513816
  16 H :    0.201167
  17 H :    0.196939
  18 C :   -0.259113
  19 H :    0.219764
  20 C :    0.152747
  21 H :    0.220663
  22 C :   -0.479825
  23 C :   -0.427935
  24 H :    0.211644
  25 H :    0.207019
  26 C :   -0.396740
  27 H :    0.208584
  28 H :    0.217454
  29 C :    0.004071
  30 H :    0.222993
  31 H :    0.194533
  32 C :   -0.230034
  33 H :    0.227805
  34 C :   -0.433981
  35 H :    0.341166
  36 C :   -0.418184
  37 H :    0.207981
  38 H :    0.198027
  39 C :   -0.199806
  40 H :    0.210365
  41 H :    0.204651
  42 H :    0.209664
  43 C :   -0.240528
  44 C :   -0.630041
  45 H :    0.205007
  46 H :    0.209841
  47 H :    0.202227
  48 H :    0.219832
  49 C :   -0.619538
  50 C :   -0.179953
  51 C :   -0.182906
  52 H :    0.217177
  53 H :    0.221109
  54 C :   -0.232274
  55 C :   -0.631903
  56 C :   -0.198009
  57 H :    0.210912
  58 H :    0.212240
  59 C :   -0.612605
  60 C :   -0.613346
  61 H :    0.191376
  62 H :    0.213114
  63 H :    0.203885
  64 H :    0.208504
  65 H :    0.192024
  66 H :    0.206264
  67 H :    0.210032
  68 H :    0.205545
  69 H :    0.192468
  70 H :    0.208548
  71 H :    0.195635
  72 H :    0.204353
Sum of atomic charges:   -0.0000000

--------------------------------
MULLIKEN REDUCED ORBITAL CHARGES
--------------------------------
  0 C s       :     3.354189  s :     3.354189
      pz      :     0.979495  p :     2.568038
      px      :     0.812573
      py      :     0.775969

  1 C s       :     3.377952  s :     3.377952
      pz      :     1.157568  p :     3.122920
      px      :     0.868761
      py      :     1.096591

  2 C s       :     3.312625  s :     3.312625
      pz      :     0.702562  p :     2.761351
      px      :     1.141032
      py      :     0.917756

  3 H s       :     0.776975  s :     0.776975

  4 H s       :     0.779985  s :     0.779985

  5 C s       :     3.341307  s :     3.341307
      pz      :     0.886676  p :     2.520133
      px      :     0.857544
      py      :     0.775912

  6 C s       :     3.367254  s :     3.367254
      pz      :     1.156153  p :     3.112255
      px      :     0.884215
      py      :     1.071887

  7 C s       :     3.338594  s :     3.338594
      pz      :     1.164288  p :     3.101261
      px      :     0.968890
      py      :     0.968083

  8 H s       :     0.774755  s :     0.774755

  9 H s       :     0.792454  s :     0.792454

 10 H s       :     0.791288  s :     0.791288

 11 H s       :     0.772130  s :     0.772130

 12 O s       :     3.685039  s :     3.685039
      pz      :     1.414943  p :     4.803272
      px      :     1.473231
      py      :     1.915097

 13 H s       :     0.752840  s :     0.752840

 14 C s       :     3.394383  s :     3.394383
      pz      :     0.973148  p :     2.885796
      px      :     0.831560
      py      :     1.081089

 15 C s       :     3.385087  s :     3.385087
      pz      :     0.986277  p :     3.128729
      px      :     0.989635
      py      :     1.152817

 16 H s       :     0.798833  s :     0.798833

 17 H s       :     0.803061  s :     0.803061

 18 C s       :     3.396681  s :     3.396681
      pz      :     1.004010  p :     2.862432
      px      :     0.771259
      py      :     1.087162

 19 H s       :     0.780236  s :     0.780236

 20 C s       :     3.351592  s :     3.351592
      pz      :     0.930249  p :     2.495661
      px      :     0.764564
      py      :     0.800848

 21 H s       :     0.779337  s :     0.779337

 22 C s       :     3.372929  s :     3.372929
      pz      :     1.126233  p :     3.106896
      px      :     1.099900
      py      :     0.880763

 23 C s       :     3.327631  s :     3.327631
      pz      :     1.121450  p :     3.100304
      px      :     0.884325
      py      :     1.094529

 24 H s       :     0.788356  s :     0.788356

 25 H s       :     0.792981  s :     0.792981

 26 C s       :     3.349629  s :     3.349629
      pz      :     1.161355  p :     3.047110
      px      :     0.970480
      py      :     0.915275

 27 H s       :     0.791416  s :     0.791416

 28 H s       :     0.782546  s :     0.782546

 29 C s       :     3.317651  s :     3.317651
      pz      :     0.874004  p :     2.678278
      px      :     0.903281
      py      :     0.900993

 30 H s       :     0.777007  s :     0.777007

 31 H s       :     0.805467  s :     0.805467

 32 C s       :     3.362336  s :     3.362336
      pz      :     1.101864  p :     2.867698
      px      :     0.859719
      py      :     0.906115

 33 H s       :     0.772195  s :     0.772195

 34 C s       :     3.343884  s :     3.343884
      pz      :     1.187219  p :     3.090097
      px      :     0.937458
      py      :     0.965419

 35 H s       :     0.658834  s :     0.658834

 36 C s       :     3.338383  s :     3.338383
      pz      :     1.179858  p :     3.079801
      px      :     0.927316
      py      :     0.972626

 37 H s       :     0.792019  s :     0.792019

 38 H s       :     0.801973  s :     0.801973

 39 C s       :     3.342596  s :     3.342596
      pz      :     1.086798  p :     2.857209
      px      :     0.859646
      py      :     0.910766

 40 H s       :     0.789635  s :     0.789635

 41 H s       :     0.795349  s :     0.795349

 42 H s       :     0.790336  s :     0.790336

 43 C s       :     3.347070  s :     3.347070
      pz      :     1.072406  p :     2.893458
      px      :     0.880559
      py      :     0.940493

 44 C s       :     3.366304  s :     3.366304
      pz      :     0.943660  p :     3.263737
      px      :     1.165539
      py      :     1.154537

 45 H s       :     0.794993  s :     0.794993

 46 H s       :     0.790159  s :     0.790159

 47 H s       :     0.797773  s :     0.797773

 48 H s       :     0.780168  s :     0.780168

 49 C s       :     3.348455  s :     3.348455
      pz      :     1.159111  p :     3.271083
      px      :     1.150649
      py      :     0.961324

 50 C s       :     3.347470  s :     3.347470
      pz      :     0.881502  p :     2.832482
      px      :     0.983326
      py      :     0.967654

 51 C s       :     3.350342  s :     3.350342
      pz      :     0.883027  p :     2.832564
      px      :     0.972007
      py      :     0.977530

 52 H s       :     0.782823  s :     0.782823

 53 H s       :     0.778891  s :     0.778891

 54 C s       :     3.339402  s :     3.339402
      pz      :     0.985520  p :     2.892872
      px      :     0.909196
      py      :     0.998156

 55 C s       :     3.348047  s :     3.348047
      pz      :     1.067168  p :     3.283856
      px      :     1.098329
      py      :     1.118360

 56 C s       :     3.311385  s :     3.311385
      pz      :     0.989710  p :     2.886624
      px      :     0.904195
      py      :     0.992719

 57 H s       :     0.789088  s :     0.789088

 58 H s       :     0.787760  s :     0.787760

 59 C s       :     3.341652  s :     3.341652
      pz      :     1.061100  p :     3.270953
      px      :     1.094377
      py      :     1.115475

 60 C s       :     3.342005  s :     3.342005
      pz      :     1.116348  p :     3.271341
      px      :     1.025753
      py      :     1.129240

 61 H s       :     0.808624  s :     0.808624

 62 H s       :     0.786886  s :     0.786886

 63 H s       :     0.796115  s :     0.796115

 64 H s       :     0.791496  s :     0.791496

 65 H s       :     0.807976  s :     0.807976

 66 H s       :     0.793736  s :     0.793736

 67 H s       :     0.789968  s :     0.789968

 68 H s       :     0.794455  s :     0.794455

 69 H s       :     0.807532  s :     0.807532

 70 H s       :     0.791452  s :     0.791452

 71 H s       :     0.804365  s :     0.804365

 72 H s       :     0.795647  s :     0.795647


------------------------
MULLIKEN OVERLAP CHARGES
------------------------
B(  0-C ,  1-C ) :   0.5246 B(  0-C ,  2-C ) :  -0.1806 B(  0-C ,  3-H ) :  -0.0795 
B(  0-C ,  4-H ) :  -0.0863 B(  0-C ,  5-C ) :   0.4159 B(  0-C ,  6-C ) :  -0.1418 
B(  0-C , 14-C ) :   0.9504 B(  0-C , 15-C ) :  -0.2023 B(  0-C , 18-C ) :  -0.1867 
B(  0-C , 19-H ) :  -0.0751 B(  1-C ,  2-C ) :   0.5267 B(  1-C ,  3-H ) :   0.8092 
B(  1-C ,  4-H ) :   0.7736 B(  1-C ,  5-C ) :  -0.1413 B(  1-C ,  7-C ) :  -0.1578 
B(  1-C , 12-O ) :  -0.1099 B(  1-C , 13-H ) :  -0.0571 B(  1-C , 14-C ) :  -0.1136 
B(  2-C ,  3-H ) :  -0.0590 B(  2-C ,  4-H ) :  -0.0537 B(  2-C ,  6-C ) :  -0.1581 
B(  2-C ,  7-C ) :   0.5149 B(  2-C , 10-H ) :  -0.0625 B(  2-C , 11-H ) :  -0.0697 
B(  2-C , 12-O ) :   0.6964 B(  2-C , 13-H ) :   0.8216 B(  2-C , 35-H ) :  -0.1153 
B(  5-C ,  6-C ) :   0.5303 B(  5-C ,  7-C ) :  -0.1575 B(  5-C ,  8-H ) :  -0.0730 
B(  5-C ,  9-H ) :  -0.0938 B(  5-C , 14-C ) :  -0.1988 B(  5-C , 15-C ) :   1.0622 
B(  5-C , 16-H ) :  -0.0996 B(  5-C , 17-H ) :  -0.0951 B(  6-C ,  7-C ) :   0.5526 
B(  6-C ,  8-H ) :   0.8228 B(  6-C ,  9-H ) :   0.7936 B(  6-C , 10-H ) :  -0.0740 
B(  6-C , 11-H ) :  -0.0561 B(  6-C , 15-C ) :  -0.1298 B(  7-C ,  9-H ) :  -0.0778 
B(  7-C , 10-H ) :   0.7763 B(  7-C , 11-H ) :   0.8044 B(  7-C , 12-O ) :  -0.1079 
B(  7-C , 13-H ) :  -0.0830 B( 12-O , 35-H ) :   0.6663 B( 14-C , 18-C ) :   0.6116 
B( 14-C , 19-H ) :   0.8215 B( 14-C , 20-C ) :  -0.1941 B( 14-C , 21-H ) :  -0.0744 
B( 15-C , 16-H ) :   0.8136 B( 15-C , 17-H ) :   0.8066 B( 18-C , 19-H ) :  -0.0600 
B( 18-C , 20-C ) :   0.9197 B( 18-C , 21-H ) :   0.8330 B( 18-C , 22-C ) :  -0.1508 
B( 18-C , 32-C ) :  -0.1498 B( 20-C , 21-H ) :  -0.0832 B( 20-C , 22-C ) :   0.5332 
B( 20-C , 23-C ) :  -0.1711 B( 20-C , 24-H ) :  -0.0675 B( 20-C , 25-H ) :  -0.0921 
B( 20-C , 29-C ) :  -0.1250 B( 20-C , 32-C ) :   0.5187 B( 20-C , 33-H ) :  -0.0918 
[...]
        0.0000         1.0905        0.0000
        0.0000         0.0000        1.0905

 Diagonalized JT*J matrix:
 
 J[55,60](FC)             1.091            1.091            1.091  iso=      1.091
                ---------------  ---------------  ---------------  ---------------
 J[55,60](Total)          1.091            1.091            1.091  iso=      1.091



-----------------------------------------------------------
 NUCLEUS A = C   56 NUCLEUS B = C   59 
 ( 13C  gnA =  1.405  13C  gnB =  1.405) r(AB) =     1.5321
-----------------------------------------------------------

Fermi-contact contribution to J (Hz):
       27.1479         0.0000        0.0000
        0.0000        27.1479        0.0000
        0.0000         0.0000       27.1479

Total spin-spin coupling tensor J (Hz):
       27.1479         0.0000        0.0000
        0.0000        27.1479        0.0000
        0.0000         0.0000       27.1479

 Diagonalized JT*J matrix:
 
 J[56,59](FC)            27.148           27.148           27.148  iso=     27.148
                ---------------  ---------------  ---------------  ---------------
 J[56,59](Total)         27.148           27.148           27.148  iso=     27.148



-----------------------------------------------------------
 NUCLEUS A = C   56 NUCLEUS B = C   60 
 ( 13C  gnA =  1.405  13C  gnB =  1.405) r(AB) =     1.5316
-----------------------------------------------------------

Fermi-contact contribution to J (Hz):
       26.5561         0.0000        0.0000
        0.0000        26.5561        0.0000
        0.0000         0.0000       26.5561

Total spin-spin coupling tensor J (Hz):
       26.5561         0.0000        0.0000
        0.0000        26.5561        0.0000
        0.0000         0.0000       26.5561

 Diagonalized JT*J matrix:
 
 J[56,60](FC)            26.556           26.556           26.556  iso=     26.556
                ---------------  ---------------  ---------------  ---------------
 J[56,60](Total)         26.556           26.556           26.556  iso=     26.556



-----------------------------------------------------------
 NUCLEUS A = C   59 NUCLEUS B = C   60 
 ( 13C  gnA =  1.405  13C  gnB =  1.405) r(AB) =     2.5026
-----------------------------------------------------------

Fermi-contact contribution to J (Hz):
       -0.9520         0.0000        0.0000
        0.0000        -0.9520        0.0000
        0.0000         0.0000       -0.9520

Total spin-spin coupling tensor J (Hz):
       -0.9520         0.0000        0.0000
        0.0000        -0.9520        0.0000
        0.0000         0.0000       -0.9520

 Diagonalized JT*J matrix:
 
 J[59,60](FC)            -0.952           -0.952           -0.952  iso=     -0.952
                ---------------  ---------------  ---------------  ---------------
 J[59,60](Total)         -0.952           -0.952           -0.952  iso=     -0.952



-----------------------------------------------------------------------------
                SUMMARY OF ISOTROPIC COUPLING CONSTANTS J (Hz)                
-----------------------------------------------------------------------------
                  0 C        1 C        2 C        5 C        6 C        7 C  
      0 C        0.000     33.142     -3.785     41.242     -0.907      2.274
      1 C       33.142      0.000     23.407     -1.218      1.448     -0.686
      2 C       -3.785     23.407      0.000      2.302     -2.784     25.945
      5 C       41.242     -1.218      2.302      0.000     30.471     -2.785
      6 C       -0.907      1.448     -2.784     30.471      0.000     24.814
      7 C        2.274     -0.686     25.945     -2.785     24.814      0.000
     14 C       69.332     -0.403      2.838     -3.001      2.174     -0.620
     15 C       -3.410      2.418     -0.873     64.585     -1.125      2.597
     18 C       -2.387      4.166     -1.113      3.206     -0.817      0.192
     20 C        6.819     -1.102      1.099     -1.378      0.606     -0.102
     22 C       -0.932      0.327     -0.334      0.422     -0.183      0.037
     23 C        0.812     -0.283      0.280     -0.336      0.151      0.000
     26 C       -0.091      0.038      0.000      0.047      0.000      0.000
     29 C        1.147     -0.359      0.000     -0.439      0.204      0.000
     32 C       -1.125      0.545     -0.379      0.470     -0.215      0.045
     34 C        0.021     -0.014      0.012     -0.014      0.006     -0.001
     36 C       -0.015      0.000      0.000      0.016     -0.008      0.000
     39 C       -0.071      0.000      0.000      0.030      0.000      0.000
     43 C        0.000      0.000      0.000      0.000      0.000      0.000
     44 C        0.013     -0.004      0.000     -0.004     -0.003      0.000
     49 C        0.000      0.000      0.000      0.000      0.000      0.000
     50 C        0.000      0.000      0.000      0.000      0.000      0.000
     51 C        0.000      0.000      0.000      0.000      0.000      0.000
     54 C        0.000      0.000      0.000      0.000      0.000      0.000
     55 C        0.000      0.000      0.000      0.000      0.000      0.000
     56 C        0.000      0.000      0.000      0.000      0.000      0.000
     59 C        0.000      0.000      0.000      0.000      0.000      0.000
     60 C        0.000      0.000      0.000      0.000      0.000      0.000
                 14 C       15 C       18 C       20 C       22 C       23 C  
      0 C       69.332     -3.410     -2.387      6.819     -0.932      0.812
      1 C       -0.403      2.418      4.166     -1.102      0.327     -0.283
      2 C        2.838     -0.873     -1.113      1.099     -0.334      0.280
      5 C       -3.001     64.585      3.206     -1.378      0.422     -0.336
      6 C        2.174     -1.125     -0.817      0.606     -0.183      0.151
      7 C       -0.620      2.597      0.192     -0.102      0.037      0.000
     14 C        0.000      3.110     54.042     -2.670      3.750     -0.906
     15 C        3.110      0.000     -1.137      1.011     -0.271      0.249
     18 C       54.042     -1.137      0.000     69.985     -2.158      2.365
     20 C       -2.670      1.011     69.985      0.000     32.127     -2.934
     22 C        3.750     -0.271     -2.158     32.127      0.000     24.355
     23 C       -0.906      0.249      2.365     -2.934     24.355      0.000
     26 C        0.131     -0.033     -0.352      1.040     -1.939     25.447
     29 C       -1.106      0.320      2.277     -2.405      1.075     -2.199
     32 C        4.386     -0.315     -1.266     36.869     -0.248      1.529
     34 C        0.077      0.004      2.477     -1.332      1.586     -0.263
     36 C        0.017     -0.014     -0.146      3.569      0.056      0.167
     39 C        0.257     -0.023     -0.041      2.929     -0.335      2.561
     43 C        0.006      0.017      0.281      0.174      0.003     -0.109
     44 C        0.002      0.029     -0.044      0.694     -0.138      0.606
     49 C       -0.001      0.000     -0.009     -0.034      0.138      0.037
     50 C        0.000      0.000      0.030      0.145     -0.008      0.137
     51 C        0.000      0.000     -0.006      0.042     -0.002     -0.007
     54 C        0.000      0.000      0.000      0.000      0.000      0.000
     55 C        0.000      0.000      0.000      0.000      0.000      0.000
     56 C        0.000      0.000      0.000      0.000      0.000      0.000
     59 C        0.000      0.000      0.000      0.000      0.000      0.000
     60 C        0.000      0.000      0.000      0.000      0.000      0.000
                 26 C       29 C       32 C       34 C       36 C       39 C  
      0 C       -0.091      1.147     -1.125      0.021     -0.015     -0.071
      1 C        0.038     -0.359      0.545     -0.014      0.000      0.000
      2 C        0.000      0.000     -0.379      0.012      0.000      0.000
      5 C        0.047     -0.439      0.470     -0.014      0.016      0.030
      6 C        0.000      0.204     -0.215      0.006     -0.008      0.000
      7 C        0.000      0.000      0.045     -0.001      0.000      0.000
     14 C        0.131     -1.106      4.386      0.077      0.017      0.257
     15 C       -0.033      0.320     -0.315      0.004     -0.014     -0.023
     18 C       -0.352      2.277     -1.266      2.477     -0.146     -0.041
     20 C        1.040     -2.405     36.869     -1.332      3.569      2.929
     22 C       -1.939      1.075     -0.248      1.586      0.056     -0.335
     23 C       25.447     -2.199      1.529     -0.263      0.167      2.561
     26 C        0.000     27.815     -0.939      2.298      3.033     -0.563
     29 C       27.815      0.000     23.205      0.997      0.523     28.963
     32 C       -0.939     23.205      0.000     27.909      1.353      3.504
     34 C        2.298      0.997     27.909      0.000     25.849      0.025
     36 C        3.033      0.523      1.353     25.849      0.000     26.378
     39 C       -0.563     28.963      3.504      0.025     26.378      0.000
     43 C       -0.008     -0.689      2.698      1.618      0.237     30.542
     44 C       -0.560     27.332     -0.935      0.857      0.225     -1.246
     49 C        0.356      0.221      0.001     -0.004      3.189     -1.064
     50 C       -0.087      3.315      0.012     -0.056      0.573     -1.689
     51 C        0.020     -0.109      0.039      0.010      0.100      2.080
     54 C        0.004      0.000     -0.004     -0.003      0.026     -0.131
     55 C       -0.002      0.044      0.001     -0.002     -0.006      0.058
     56 C        0.002     -0.032      0.005      0.004     -0.043      0.106
     59 C       -0.000     -0.000      0.001     -0.001     -0.004      0.011
     60 C        0.000      0.000      0.000      0.000      0.003     -0.002
                 43 C       44 C       49 C       50 C       51 C       54 C  
      0 C        0.000      0.013      0.000      0.000      0.000      0.000
      1 C        0.000     -0.004      0.000      0.000      0.000      0.000
      2 C        0.000      0.000      0.000      0.000      0.000      0.000
      5 C        0.000     -0.004      0.000      0.000      0.000      0.000
      6 C        0.000     -0.003      0.000      0.000      0.000      0.000
      7 C        0.000      0.000      0.000      0.000      0.000      0.000
     14 C        0.006      0.002     -0.001      0.000      0.000      0.000
     15 C        0.017      0.029      0.000      0.000      0.000      0.000
     18 C        0.281     -0.044     -0.009      0.030     -0.006      0.000
     20 C        0.174      0.694     -0.034      0.145      0.042      0.000
     22 C        0.003     -0.138      0.138     -0.008     -0.002      0.000
     23 C       -0.109      0.606      0.037      0.137     -0.007      0.000
     26 C       -0.008     -0.560      0.356     -0.087      0.020      0.004
     29 C       -0.689     27.332      0.221      3.315     -0.109      0.000
     32 C        2.698     -0.935      0.001      0.012      0.039     -0.004
     34 C        1.618      0.857     -0.004     -0.056      0.010     -0.003
     36 C        0.237      0.225      3.189      0.573      0.100      0.026
     39 C       30.542     -1.246     -1.064     -1.689      2.080     -0.131
     43 C        0.000      1.509     24.970     35.563     -1.595      3.434
     44 C        1.509      0.000     -0.065     -0.148      0.135      0.023
     49 C       24.970     -0.065      0.000     -3.458      3.504     -1.057
     50 C       35.563     -0.148     -3.458      0.000     68.265     -1.732
     51 C       -1.595      0.135      3.504     68.265      0.000     36.661
     54 C        3.434      0.023     -1.057     -1.732     36.661      0.000
     55 C       -0.073      0.003      0.163      3.057     -1.943     27.945
     56 C       -0.833      0.021      1.687      2.982     -2.778     25.225
     59 C       -0.039     -0.000      0.045      0.158      1.626     -0.808
     60 C        0.167      0.000      0.044      0.065      2.948     -0.644
                 55 C       56 C       59 C       60 C  
      0 C        0.000      0.000      0.000      0.000
      1 C        0.000      0.000      0.000      0.000
      2 C        0.000      0.000      0.000      0.000
      5 C        0.000      0.000      0.000      0.000
      6 C        0.000      0.000      0.000      0.000
      7 C        0.000      0.000      0.000      0.000
     14 C        0.000      0.000      0.000      0.000
     15 C        0.000      0.000      0.000      0.000
     18 C        0.000      0.000      0.000      0.000
     20 C        0.000      0.000      0.000      0.000
     22 C        0.000      0.000      0.000      0.000
     23 C        0.000      0.000      0.000      0.000
     26 C       -0.002      0.002     -0.000      0.000
     29 C        0.044     -0.032     -0.000      0.000
     32 C        0.001      0.005      0.001      0.000
     34 C       -0.002      0.004     -0.001      0.000
     36 C       -0.006     -0.043     -0.004      0.003
     39 C        0.058      0.106      0.011     -0.002
     43 C       -0.073     -0.833     -0.039      0.167
     44 C        0.003      0.021     -0.000      0.000
     49 C        0.163      1.687      0.045      0.044
     50 C        3.057      2.982      0.158      0.065
     51 C       -1.943     -2.778      1.626      2.948
     54 C       27.945     25.225     -0.808     -0.644
     55 C        0.000     -0.770      2.660      1.091
     56 C       -0.770      0.000     27.148     26.556
     59 C        2.660     27.148      0.000     -0.952
     60 C        1.091     26.556     -0.952      0.000

NMR spin-spin coupling calculation done in   0.3 sec 

Maximum memory used throughout the entire PROP-calculation: 34.3 MB

--------------------------------
SUGGESTED CITATIONS FOR THIS RUN
--------------------------------

Below you find a list of papers that are relevant to this ORCA run
We neither can nor want to force you to cite these papers, but we appreciate if you do
You receive ORCA, which is the product of decades of hard work by many enthusiastic individuals, for free
The only thing we kindly ask in return is that you cite our papers,
We deeply appreciate it, if you show your appreciation for ORCA by not just citing the generic ORCA reference.

Please note that relegating all ORCA citations to the supporting information does *not* help us.
SI sections are not indexed - citations you put there will not count into any citation statistics
But we need these citations in order to attract the funding resources that allow us to do what we are doing

Therefore, if you are a happy ORCA user, please consider citing a few of the papers listed below in the main body of your paper

In addition to the list printed below, the program has created the file inpJ.bibtex that contains the list in bibtex format
You can import this file easily into all common literature databanks and citation aid programs


List of essential papers. We consider these as the minimum necessary citations

  1. Neese,F.
     Software update: the ORCA program system, version 5.0
     WIRES Comput. Molec. Sci., 2022 12(1)e1606
     doi.org/10.1002/wcms.1606

List of papers to cite with high priority. The work reported in these papers was absolutely
necessary for this run to complete.
Our perspective: the developers of density functionals and basis sets usually get cited in chemistry papers
Good! But without the algorithms to do something with them, the functionals or basis sets would not do anything.
Hence, in our opinion, the algorithm design and method developments papers are equally worthy of getting cited

  1. Neese,F.
     An improvement of the resolution of the identity approximation for the formation of the Coulomb matrix
     J. Comp. Chem., 2003 24(14)1740-1747
     doi.org/10.1002/jcc.10318
  2. Neese,F.; Wennmohs,F.; Hansen,A.; Becker,U.
     Efficient, approximate and parallel Hartree-Fock and hybrid DFT calculations. A 'chain-of-spheres' algorithm for the Hartree-Fock exchange
     Chem. Phys., 2009 356(1-3)98-109
     doi.org/10.1016/j.chemphys.2008.10.036
  3. Stoychev,G.L.; Auer,A.A.; Izsak,R.; Neese,F.
     Self-Consistent Field Calculation of Nuclear Magnetic Resonance Chemical Shielding Constants Using Gauge-Including Atomic Orbitals and Approximate Two-Electron Integrals
     J. Chem. Theory Comput., 2018 14(2)619-637
     doi.org/10.1021/acs.jctc.7b01006
  4. Garcia-Rates,M.; Neese,F.
     Effect of the Solute Cavity on the Solvation Energy and its Derivatives within the Framework of the Gaussian Charge Scheme
     J. Comput. Chem., 2020 41 922-939
     doi.org/10.1002/jcc.26139
  5. Helmich-Paris,B.; de Souza,B.; Neese,F.; Izsák,R.
     An improved chain of spheres for exchange algorithm
     J. Chem. Phys., 2021 155 104109
     doi.org/doi: 10.1063/5.0058766.
  6. Neese,F.
     The SHARK Integral Generation and Digestion System
     J. Comp. Chem., 2022  1-16
     doi.org/10.1002/jcc.26942
  7. Grimme,S.; Bannwarth,C.; Dohm,S.; Hansen,A.; Pisarek,J.; Pracht,P.; Seibert,J.; Neese,F.
     Fully Automated Quantum-Chemistry-Based Computation of Spin-Spin-Coupled Nuclear Magnetic Resonance Spectra
     Angew. Chem., Int. Ed., 2017 56 14763-14769
     doi.org/10.1002/anie.201708266
  8. Caldeweyher,E.; Bannwarth,C.; Grimme,S.
     Extension of the D3 dispersion coefficient model
     J. Chem. Phys., 2017 147 034112-XXXX
     doi.org/10.1063/1.4993215
  9. Caldeweyher,E.; Ehlert,S.; Hansen,A.; Neugebauer,H.; Spicher,S.; Bannwarth,C.; Grimme,S.
     A generally applicable atomic-charge dependent London dispersion correction
     J. Chem. Phys., 2019 150 154122-XXXX
     doi.org/10.1063/1.5090222
 10. Caldeweyher,E.; Mewes,J.; Ehlert,S.; Grimme,S.
     Extension and evaluation of the D4 London-dispersion model for periodic systems
     Phys. Chem. Chem. Phys., 2020 22(16)8499-8512
     doi.org/10.1039/D0CP00502A

List of suggested additional citations. These are papers that are important in the 'surrounding' of 
of this run, or papers that preceded the highly important papers. If you like your results we are grateful for a citation.

  1. Izsak,R.; Neese,F.
     An overlap fitted chain of spheres exchange method
     J. Chem. Phys., 2011 135 144105
     doi.org/10.1063/1.3646921
  2. Izsak,R.; Hansen,A.; Neese,F.
     The resolution of identity and chain of spheres approximations for the LPNO-CCSD singles Fock term
     Molec. Phys., 2012 110 2413-2417
     doi.org/10.1080/00268976.2012.687466
  3. Neese,F.
     The ORCA program system
     WIRES Comput. Molec. Sci., 2012 2(1)73-78
     doi.org/10.1002/wcms.81
  4. Izsak,R.; Neese,F.; Klopper,W.
     Robust fitting techniques in the chain of spheres approximation to the Fock exchange: The role of the complementary space
     J. Chem. Phys., 2013 139 
     doi.org/10.1063/1.4819264
  5. Neese,F.
     Software update: the ORCA program system, version 4.0
     WIRES Comput. Molec. Sci., 2018 8(1)1-6
     doi.org/10.1002/wcms.1327
  6. Neese,F.; Wennmohs,F.; Becker,U.; Riplinger,C.
     The ORCA quantum chemistry program package
     J. Chem. Phys., 2020 152 Art. No. L224108
     doi.org/10.1063/5.0004608

Timings for individual modules:

Sum of individual times          ...      136.375 sec (=   2.273 min)
Startup calculation              ...        3.986 sec (=   0.066 min)   2.9 %
SCF iterations                   ...       19.458 sec (=   0.324 min)  14.3 %
Property integrals               ...        0.641 sec (=   0.011 min)   0.5 %
SCF Response                     ...      111.682 sec (=   1.861 min)  81.9 %
Property calculations            ...        0.607 sec (=   0.010 min)   0.4 %
                             ****ORCA TERMINATED NORMALLY****
TOTAL RUN TIME: 0 days 0 hours 2 minutes 16 seconds 687 msec
