
                                 *****************
                                 * O   R   C   A *
                                 *****************

                                            #,                                       
                                            ###                                      
                                            ####                                     
                                            #####                                    
                                            ######                                   
                                           ########,                                 
                                     ,,################,,,,,                         
                               ,,#################################,,                 
                          ,,##########################################,,             
                       ,#########################################, ''#####,          
                    ,#############################################,,   '####,        
                  ,##################################################,,,,####,       
                ,###########''''           ''''###############################       
              ,#####''   ,,,,##########,,,,          '''####'''          '####       
            ,##' ,,,,###########################,,,                        '##       
           ' ,,###''''                  '''############,,,                           
         ,,##''                                '''############,,,,        ,,,,,,###''
      ,#''                                            '''#######################'''  
     '                                                          ''''####''''         
             ,#######,   #######,   ,#######,      ##                                
            ,#'     '#,  ##    ##  ,#'     '#,    #''#        ,####,   ,####,        
            ##       ##  ##   ,#'  ##            #'  '#       #'       #'  '#        
            ##       ##  #######   ##           ,######,      #####,   #    #        
            '#,     ,#'  ##    ##  '#,     ,#' ,#      #,     #,   #   #,  ,#        
             '#######'   ##     ##  '#######'  #'      '#     '####' # '####'        



                #########################################################
                #                        -***-                          #
                #          Department of theory and spectroscopy        #
                #                                                       #
                #                      Frank Neese                      #
                #                                                       #
                #     Directorship, Architecture, Infrastructure        #
                #                    SHARK, DRIVERS                     #
                #        Core code/Algorithms in most modules           #
                #                                                       #
                #        Max Planck Institute fuer Kohlenforschung      #
                #                Kaiser Wilhelm Platz 1                 #
                #                 D-45470 Muelheim/Ruhr                 #
                #                      Germany                          #
                #                                                       #
                #                  All rights reserved                  #
                #                        -***-                          #
                #########################################################


                         Program Version 6.0.0  -   RELEASE  -


 With contributions from (in alphabetic order):
   Daniel Aravena         : Magnetic Suceptibility
   Michael Atanasov       : Ab Initio Ligand Field Theory (pilot matlab implementation)
   Alexander A. Auer      : GIAO ZORA, VPT2 properties, NMR spectrum
   Ute Becker             : All parallelization in ORCA, NUMFREQ, NUMCALC
   Giovanni Bistoni       : ED, misc. LED, open-shell LED, HFLD
   Martin Brehm           : Molecular dynamics
   Dmytro Bykov           : pre 5.0 version of the SCF Hessian
   Marcos Casanova-Páez   : Triplet and SCS-CIS(D). UHF-(DLPNO)-IP/EA/STEOM-CCSD. UHF-CVS-IP/STEOM-CCSD
   Vijay G. Chilkuri      : MRCI spin determinant printing, contributions to CSF-ICE
   Pauline Colinet        : FMM embedding
   Dipayan Datta          : RHF DLPNO-CCSD density
   Achintya Kumar Dutta   : EOM-CC, STEOM-CC
   Nicolas Foglia         : Exact transition moments, OPA infrastructure, MCD improvements
   Dmitry Ganyushin       : Spin-Orbit,Spin-Spin,Magnetic field MRCI
   Miquel Garcia          : C-PCM and meta-GGA Hessian, CCSD/C-PCM, Gaussian charge scheme
   Tiago L. C. Gouveia    : GS-ROHF, GS-ROCIS
   Yang Guo               : DLPNO-NEVPT2, F12-NEVPT2, CIM, IAO-localization
   Andreas Hansen         : Spin unrestricted coupled pair/coupled cluster methods
   Ingolf Harden          : AUTO-CI MPn and infrastructure 
   Benjamin Helmich-Paris : MC-RPA, TRAH-(SCF,CASSCF), AVAS, COSX integrals, SCF dyn. polar.
   Lee Huntington         : MR-EOM, pCC
   Robert Izsak           : Overlap fitted RIJCOSX, COSX-SCS-MP3, EOM
   Riya Kayal             : Wick's Theorem for AUTO-CI, AUTO-CI UHF-CCSDT
   Emily Kempfer          : AUTO-CI, RHF CISDT and CCSDT
   Christian Kollmar      : KDIIS, OOCD, Brueckner-CCSD(T), CCSD density, CASPT2, CASPT2-K, improved NEVPT2
   Axel Koslowski         : Symmetry handling
   Simone Kossmann        : Meta GGA functionals, TD-DFT gradient, OOMP2, (MP2 Hessian; deprecated post 5.0)
   Lucas Lang             : DCDCAS
   Marvin Lechner         : AUTO-CI (C++ implementation), FIC-MRCC
   Spencer Leger          : CASSCF response
   Dagmar Lenk            : GEPOL surface, SMD, ORCA-2-JSON
   Dimitrios Liakos       : Extrapolation schemes; Compound Job, initial MDCI parallelization
   Dimitrios Manganas     : Further ROCIS development; embedding schemes. LFT, Crystal Embedding
   Dimitrios Pantazis     : SARC Basis sets
   Anastasios Papadopoulos: AUTO-CI, single reference methods and gradients
   Taras Petrenko         : pre 6.0 DFT Hessian and TD-DFT gradient, (ASA, deprecated), ECA, 1-Electron XAS/XES, NRVS
   Peter Pinski           : DLPNO-MP2, DLPNO-MP2 Gradient
   Christoph Reimann      : Effective Core Potentials
   Marius Retegan         : Local ZFS, SOC
   Christoph Riplinger    : Optimizer, TS searches, QM/MM, DLPNO-CCSD(T), (RO)-DLPNO pert. Triples
   Michael Roemelt        : Original ROCIS implementation
   Masaaki Saitow         : Open-shell DLPNO-CCSD energy and density
   Barbara Sandhoefer     : DKH picture change effects
   Kantharuban Sivalingam : CASSCF convergence/infrastructure, NEVPT2 and variants, FIC-MRCI
   Bernardo de Souza      : ESD, SOC TD-DFT
   Georgi Stoychev        : AutoAux, RI-MP2 NMR, DLPNO-MP2 response, X2C
   Van Anh Tran           : RI-MP2 g-tensors
   Willem Van den Heuvel  : Paramagnetic NMR
   Zikuan Wang            : NOTCH, Electric field optimization 
   Frank Wennmohs         : Technical directorship and infrastructure
   Hang Xu                : AUTO-CI-Response properties 


 We gratefully acknowledge several colleagues who have allowed us to
 interface, adapt or use parts of their codes:
   Stefan Grimme, W. Hujo, H. Kruse, P. Pracht,  : VdW corrections, initial TS optimization,
                  C. Bannwarth, S. Ehlert,         DFT functionals, gCP, sTDA/sTD-DF
                  L. Wittmann, M. Mueller
   Ed Valeev, F. Pavosevic, A. Kumar             : LibInt (2-el integral package), F12 methods
   Garnet Chan, S. Sharma, J. Yang, R. Olivares  : DMRG
   Ulf Ekstrom                                   : XCFun DFT Library
   Mihaly Kallay                                 : mrcc  (arbitrary order and MRCC methods)
   Frank Weinhold                                : gennbo (NPA and NBO analysis)
   Simon Mueller                                 : openCOSMO-RS
   Christopher J. Cramer and Donald G. Truhlar   : smd solvation model
   Lars Goerigk                                  : TD-DFT with DH, B97 family of functionals
   V. Asgeirsson, H. Jonsson                     : NEB implementation
   FAccTs GmbH                                   : IRC, NEB, NEB-TS, DLPNO-Multilevel, CI-OPT
                                                   MM, QMMM, 2- and 3-layer-ONIOM, Crystal-QMMM,
                                                   LR-CPCM, SF, NACMEs, symmetry and pop. for TD-DFT,
                                                   nearIR, NL-DFT gradient (VV10), updates on ESD,
                                                   ML-optimized integration grids, MBIS, APM,
                                                   GOAT, DOCKER, SOLVATOR, interface openCOSMO-RS
   S Lehtola, MJT Oliveira, MAL Marques          : LibXC Library
   Liviu Ungur et al                             : ANISO software


 Your calculation uses the libint2 library for the computation of 2-el integrals
 For citations please refer to: http://libint.valeyev.net

 Your ORCA version has been built with support for libXC version: 6.2.2
 For citations please refer to: https://libxc.gitlab.io

 This ORCA versions uses:
   CBLAS   interface :  Fast vector & matrix operations
   LAPACKE interface :  Fast linear algebra routines
   SCALAPACK package :  Parallel linear algebra routines
   Shared memory     :  Shared parallel matrices
   BLAS/LAPACK       :  OpenBLAS 0.3.27  USE64BITINT DYNAMIC_ARCH NO_AFFINITY Zen SINGLE_THREADED
        Core in use  :  Zen
   Copyright (c) 2011-2014, The OpenBLAS Project


NOTE: MaxCore=8000 MB was set to SCF,MP2,MDCI,CIPSI,MRCI and CIS
      => If you want to overwrite this, your respective input block should be placed after the MaxCore statement
Your calculation utilizes the atom-pairwise dispersion correction
based on EEQ partial charges (D4)


================================================================================

----- Orbital basis set information -----
Your calculation utilizes the basis: def2-SVP
   F. Weigend and R. Ahlrichs, Phys. Chem. Chem. Phys. 7, 3297 (2005).

----- AuxJ basis set information -----
Your calculation utilizes the auxiliary basis: def2/J
   F. Weigend, Phys. Chem. Chem. Phys. 8, 1057 (2006).

================================================================================
                                        WARNINGS
                       Please study these warnings very carefully!
================================================================================

WARNING: Old DensityContainer found on disk!
         Will remove this file - 
         If you want to keep old densities, please start your calculation with a different basename. 


================================================================================
                                       INPUT FILE
================================================================================
NAME = inpS
|  1> ! wb97x-d4
|  2> ! def2-svp
|  3> ! def2/J RIJCOSX
|  4> ! DEFGRID2
|  5> ! scfconv7
|  6> ! smallprint printgap noloewdin
|  7> ! NOSOSCF
|  8> %MaxCore 8000
|  9> %output
| 10>        print[P_BondOrder_M] 1
| 11>        print[P_Mayer] 1
| 12>        print[P_basis] 2
| 13> end
| 14> %pal
| 15>     nprocs 4
| 16> end
| 17> ! CPCM(chloroform)
| 18> *xyz 0 1
| 19> C   -5.0849278100   0.1873012400  -0.6740374500
| 20> C   -6.5206266800  -0.2484841000  -0.8453213100
| 21> C   -7.4642048800   0.7273605200  -0.1304283900
| 22> H   -6.6676306900  -1.2636620100  -0.4595378000
| 23> H   -6.7852896700  -0.2496715400  -1.9130910800
| 24> C   -4.8291624100   1.5833343500  -1.0940460300
| 25> C   -5.7914058100   2.5961678500  -0.5143643900
| 26> C   -7.2526959000   2.1475275100  -0.6571478900
| 27> H   -5.6405468000   3.5738796600  -0.9841868100
| 28> H   -5.5636720200   2.7157760000   0.5558591200
| 29> H   -7.5422787300   2.1690659300  -1.7166097800
| 30> H   -7.9127564600   2.8391102400  -0.1208092700
| 31> O   -7.2828493400   0.6560472300   1.2937022500
| 32> H   -8.5041592500   0.4241130200  -0.3039551200
| 33> C   -4.1624145900  -0.6323217400  -0.1160487300
| 34> C   -3.8568341400   1.9230286900  -1.9471250800
| 35> H   -3.1865307500   1.1771150800  -2.3657216600
| 36> H   -3.7162779100   2.9572403700  -2.2525851200
| 37> C   -2.7935083200  -0.2860531300   0.1896772600
| 38> H   -4.5028804600  -1.6322975400   0.1502462500
| 39> C   -1.8371512800  -1.1184187600   0.6534312200
| 40> H   -2.5246692400   0.7565271800   0.0351216800
| 41> C   -2.0021876400  -2.5948365600   0.9090842000
| 42> C   -0.9357906800  -3.4240793600   0.1668547200
| 43> H   -2.9998660800  -2.9534888700   0.6415169900
| 44> H   -1.8774266400  -2.7663471300   1.9902193400
| 45> C    0.4901466400  -2.9131644400   0.4145814600
| 46> H   -1.1541383300  -3.4073078400  -0.9084251800
| 47> H   -1.0111047300  -4.4715703500   0.4834835300
| 48> C    0.6249690900  -1.4176265400   0.0963523500
| 49> H    1.1904553100  -3.5118589500  -0.1771712300
| 50> H    0.7518991700  -3.0664216700   1.4724542400
| 51> C   -0.4421270800  -0.6609532200   0.9492472000
| 52> H   -0.2286269600  -0.9623974000   1.9917020000
| 53> C   -0.0481578300   0.8051240100   0.8124797400
| 54> H   -6.3318030200   0.6019672900   1.4652659000
| 55> C    1.4988861500   0.7605456300   0.8208990800
| 56> H   -0.4588819000   1.4219311900   1.6187991700
| 57> H   -0.4176248500   1.2199013200  -0.1320724400
| 58> C    1.9201939500  -0.7285464100   0.6150492500
| 59> H    1.8984915900   1.1517587300   1.7603734900
| 60> H    1.9189504500   1.3843294700   0.0230409600
| 61> H    2.1259804900  -1.1794238200   1.5986719600
| 62> C    3.1907132900  -0.8483560000  -0.2375910700
| 63> C    0.4116686800  -1.1503830200  -1.4003216300
| 64> H    0.6286224200  -0.1097544300  -1.6617462300
| 65> H   -0.6224108400  -1.3511863700  -1.6973521300
| 66> H    1.0645689100  -1.7871317600  -2.0066941000
| 67> H    2.9847092300  -0.3583719100  -1.2023999200
| 68> C    3.6137533000  -2.2976893600  -0.5395703700
| 69> C    4.3910602100  -0.1460846100   0.3609358800
| 70> C    4.5905456700   0.1471593300   1.6459557000
| 71> H    5.1858544600   0.0616421000  -0.3575836200
| 72> H    3.8014929400  -0.0721936600   2.3635125400
| 73> C    5.8425499300   0.7456284500   2.2397235100
| 74> C    6.7252473000   1.4455048600   1.2036560800
| 75> C    6.6352105000  -0.3262935200   3.0406938600
| 76> H    5.5187963500   1.5008753700   2.9765481700
| 77> H    6.9855338800  -1.0709222900   2.3080631600
| 78> C    5.7545606300  -1.0440347900   4.0686706500
| 79> C    7.8550354800   0.2770448600   3.7434507300
| 80> H    7.2195255100   0.7208690300   0.5452339700
| 81> H    7.5039457100   2.0402525500   1.6877126600
| 82> H    6.1305634400   2.1192773100   0.5783430500
| 83> H    4.9490203300  -1.6133428600   3.5957635300
| 84> H    5.2997351200  -0.3218591400   4.7595396900
| 85> H    6.3530662400  -1.7429991100   4.6628636200
| 86> H    8.5878358700   0.6776911700   3.0377734100
| 87> H    8.3599688000  -0.4829292200   4.3499181200
| 88> H    7.5470494100   1.0896392200   4.4144446900
| 89> H    2.9024601100  -2.8063005400  -1.1952826000
| 90> H    3.7019514100  -2.8704384800   0.3913601200
| 91> H    4.5914632900  -2.3128768000  -1.0342989000
| 92> *
| 93> %eprnmr
| 94>  Nuclei = all C { shift }
| 95>  origin giao
| 96>  giao_2el giao_2el_same_as_scf
| 97>  giao_1el giao_1el_analytic
| 98> end
| 99> 
|100>                          ****END OF INPUT****
================================================================================

                       ****************************
                       * Single Point Calculation *
                       ****************************

---------------------------------
CARTESIAN COORDINATES (ANGSTROEM)
---------------------------------
  C     -5.084928    0.187301   -0.674037
  C     -6.520627   -0.248484   -0.845321
  C     -7.464205    0.727361   -0.130428
  H     -6.667631   -1.263662   -0.459538
  H     -6.785290   -0.249672   -1.913091
  C     -4.829162    1.583334   -1.094046
  C     -5.791406    2.596168   -0.514364
  C     -7.252696    2.147528   -0.657148
  H     -5.640547    3.573880   -0.984187
  H     -5.563672    2.715776    0.555859
  H     -7.542279    2.169066   -1.716610
  H     -7.912756    2.839110   -0.120809
  O     -7.282849    0.656047    1.293702
  H     -8.504159    0.424113   -0.303955
  C     -4.162415   -0.632322   -0.116049
  C     -3.856834    1.923029   -1.947125
  H     -3.186531    1.177115   -2.365722
  H     -3.716278    2.957240   -2.252585
  C     -2.793508   -0.286053    0.189677
  H     -4.502880   -1.632298    0.150246
  C     -1.837151   -1.118419    0.653431
  H     -2.524669    0.756527    0.035122
  C     -2.002188   -2.594837    0.909084
  C     -0.935791   -3.424079    0.166855
  H     -2.999866   -2.953489    0.641517
  H     -1.877427   -2.766347    1.990219
  C      0.490147   -2.913164    0.414581
  H     -1.154138   -3.407308   -0.908425
  H     -1.011105   -4.471570    0.483484
  C      0.624969   -1.417627    0.096352
  H      1.190455   -3.511859   -0.177171
  H      0.751899   -3.066422    1.472454
  C     -0.442127   -0.660953    0.949247
  H     -0.228627   -0.962397    1.991702
  C     -0.048158    0.805124    0.812480
  H     -6.331803    0.601967    1.465266
  C      1.498886    0.760546    0.820899
  H     -0.458882    1.421931    1.618799
  H     -0.417625    1.219901   -0.132072
  C      1.920194   -0.728546    0.615049
  H      1.898492    1.151759    1.760373
  H      1.918950    1.384329    0.023041
  H      2.125980   -1.179424    1.598672
  C      3.190713   -0.848356   -0.237591
  C      0.411669   -1.150383   -1.400322
  H      0.628622   -0.109754   -1.661746
  H     -0.622411   -1.351186   -1.697352
  H      1.064569   -1.787132   -2.006694
  H      2.984709   -0.358372   -1.202400
  C      3.613753   -2.297689   -0.539570
  C      4.391060   -0.146085    0.360936
  C      4.590546    0.147159    1.645956
  H      5.185854    0.061642   -0.357584
  H      3.801493   -0.072194    2.363513
  C      5.842550    0.745628    2.239724
  C      6.725247    1.445505    1.203656
  C      6.635210   -0.326294    3.040694
  H      5.518796    1.500875    2.976548
  H      6.985534   -1.070922    2.308063
  C      5.754561   -1.044035    4.068671
  C      7.855035    0.277045    3.743451
  H      7.219526    0.720869    0.545234
  H      7.503946    2.040253    1.687713
  H      6.130563    2.119277    0.578343
  H      4.949020   -1.613343    3.595764
  H      5.299735   -0.321859    4.759540
  H      6.353066   -1.742999    4.662864
  H      8.587836    0.677691    3.037773
  H      8.359969   -0.482929    4.349918
  H      7.547049    1.089639    4.414445
  H      2.902460   -2.806301   -1.195283
  H      3.701951   -2.870438    0.391360
  H      4.591463   -2.312877   -1.034299

----------------------------
CARTESIAN COORDINATES (A.U.)
----------------------------
  NO LB      ZA    FRAG     MASS         X           Y           Z
   0 C     6.0000    0    12.011   -9.609121    0.353948   -1.273746
   1 C     6.0000    0    12.011  -12.322199   -0.469567   -1.597426
   2 C     6.0000    0    12.011  -14.105303    1.374512   -0.246474
   3 H     1.0000    0     1.008  -12.599996   -2.387975   -0.868401
   4 H     1.0000    0     1.008  -12.822339   -0.471811   -3.615218
   5 C     6.0000    0    12.011   -9.125794    2.992068   -2.067447
   6 C     6.0000    0    12.011  -10.944171    4.906046   -0.972008
   7 C     6.0000    0    12.011  -13.705609    4.058239   -1.241830
   8 H     1.0000    0     1.008  -10.659089    6.753654   -1.859844
   9 H     1.0000    0     1.008  -10.513816    5.132073    1.050422
  10 H     1.0000    0     1.008  -14.252841    4.098941   -3.243922
  11 H     1.0000    0     1.008  -14.952943    5.365141   -0.228296
  12 O     8.0000    0    15.999  -13.762591    1.239750    2.444743
  13 H     1.0000    0     1.008  -16.070532    0.801457   -0.574392
  14 C     6.0000    0    12.011   -7.865824   -1.194915   -0.219300
  15 C     6.0000    0    12.011   -7.288360    3.633998   -3.679533
  16 H     1.0000    0     1.008   -6.021670    2.224425   -4.470566
  17 H     1.0000    0     1.008   -7.022747    5.588374   -4.256769
  18 C     6.0000    0    12.011   -5.278966   -0.540562    0.358438
  19 H     1.0000    0     1.008   -8.509211   -3.084595    0.283924
  20 C     6.0000    0    12.011   -3.471713   -2.113505    1.234806
  21 H     1.0000    0     1.008   -4.770933    1.429629    0.066370
  22 C     6.0000    0    12.011   -3.783586   -4.903530    1.717920
  23 C     6.0000    0    12.011   -1.768388   -6.470572    0.315310
  24 H     1.0000    0     1.008   -5.668925   -5.581285    1.212291
  25 H     1.0000    0     1.008   -3.547822   -5.227638    3.760969
  26 C     6.0000    0    12.011    0.926243   -5.505083    0.783445
  27 H     1.0000    0     1.008   -2.181005   -6.438879   -1.716675
  28 H     1.0000    0     1.008   -1.910711   -8.450043    0.913651
  29 C     6.0000    0    12.011    1.181020   -2.678926    0.182080
  30 H     1.0000    0     1.008    2.249635   -6.636452   -0.334805
  31 H     1.0000    0     1.008    1.420884   -5.794697    2.782535
  32 C     6.0000    0    12.011   -0.835499   -1.249021    1.793817
  33 H     1.0000    0     1.008   -0.432042   -1.818668    3.763771
  34 C     6.0000    0    12.011   -0.091005    1.521464    1.535364
  35 H     1.0000    0     1.008  -11.965374    1.137553    2.768951
  36 C     6.0000    0    12.011    2.832484    1.437223    1.551274
  37 H     1.0000    0     1.008   -0.867161    2.687061    3.059087
  38 H     1.0000    0     1.008   -0.789197    2.305279   -0.249581
  39 C     6.0000    0    12.011    3.628641   -1.376753    1.162275
  40 H     1.0000    0     1.008    3.587629    2.176509    3.326624
  41 H     1.0000    0     1.008    3.626291    2.616004    0.043541
  42 H     1.0000    0     1.008    4.017521   -2.228788    3.021052
  43 C     6.0000    0    12.011    6.029574   -1.603161   -0.448982
  44 C     6.0000    0    12.011    0.777941   -2.173909   -2.646224
  45 H     1.0000    0     1.008    1.187924   -0.207406   -3.140245
  46 H     1.0000    0     1.008   -1.176186   -2.553372   -3.207531
  47 H     1.0000    0     1.008    2.011744   -3.377190   -3.792102
  48 H     1.0000    0     1.008    5.640283   -0.677225   -2.272207
  49 C     6.0000    0    12.011    6.829004   -4.342004   -1.019640
  50 C     6.0000    0    12.011    8.297901   -0.276060    0.682070
  51 C     6.0000    0    12.011    8.674874    0.278091    3.110406
  52 H     1.0000    0     1.008    9.799845    0.116487   -0.675735
  53 H     1.0000    0     1.008    7.183781   -0.136426    4.466391
  54 C     6.0000    0    12.011   11.040819    1.409034    4.232464
  55 C     6.0000    0    12.011   12.708876    2.731608    2.274580
  56 C     6.0000    0    12.011   12.538731   -0.616605    5.746079
  57 H     1.0000    0     1.008   10.429014    2.836243    5.624861
  58 H     1.0000    0     1.008   13.200746   -2.023750    4.361607
  59 C     6.0000    0    12.011   10.874544   -1.972940    7.688673
  60 C     6.0000    0    12.011   14.843866    0.523539    7.074097
  61 H     1.0000    0     1.008   13.642926    1.362245    1.030343
  62 H     1.0000    0     1.008   14.180402    3.855519    3.189315
  63 H     1.0000    0     1.008   11.585086    4.004854    1.092910
  64 H     1.0000    0     1.008    9.352293   -3.048776    6.795008
  65 H     1.0000    0     1.008   10.015048   -0.608226    8.994227
  66 H     1.0000    0     1.008   12.005555   -3.293791    8.811535
  67 H     1.0000    0     1.008   16.228658    1.280651    5.740560
  68 H     1.0000    0     1.008   15.798052   -0.912604    8.220154
  69 H     1.0000    0     1.008   14.261857    2.059120    8.342091
  70 H     1.0000    0     1.008    5.484855   -5.303139   -2.258757
  71 H     1.0000    0     1.008    6.995674   -5.424343    0.739563
  72 H     1.0000    0     1.008    8.676608   -4.370704   -1.954542

--------------------------------
INTERNAL COORDINATES (ANGSTROEM)
--------------------------------
 C      0   0   0     0.000000000000     0.00000000     0.00000000
 C      1   0   0     1.510125249300     0.00000000     0.00000000
 C      2   1   0     1.534172229238   110.38461142     0.00000000
 H      2   1   3     1.095912991298   110.78832530   237.85276829
 H      2   1   3     1.100081901503   109.82394951   118.67500572
 C      1   2   3     1.480112019858   113.84612524   305.86036618
 C      6   1   2     1.512539210506   114.38710239    50.03731224
 C      3   2   1     1.529393265248   110.18823080    56.88932889
 H      7   6   1     1.095176666409   110.22812693   188.68471012
 H      7   6   1     1.100703025348   108.28710877    72.00046924
 H      8   3   2     1.098536123816   108.29429820    64.53613991
 H      8   3   2     1.096186904960   109.51547194   181.48972760
 O      3   2   1     1.437401647768   110.64159214   292.86178916
 H      3   2   1     1.097075960890   109.48090870   177.33656596
 C      1   2   3     1.354313066490   121.31097270   122.55004870
 C      6   1   2     1.337369946880   123.10785977   232.03283655
 H     16   6   1     1.086699979303   121.32034113   358.92270398
 H     16   6   1     1.087499742012   120.97694287   178.36725043
 C     15   1   2     1.444740359815   125.98325687   185.06378073
 H     15   1   2     1.089395073237   116.31772829     3.09350660
 C     19  15   1     1.350007061233   126.59414285   185.24881733
 H     19  15   1     1.087720359764   115.71185281     5.92692849
 C     21  19  15     1.507449822204   125.77283290     1.82945770
 C     23  21  19     1.541347040296   111.68549821   125.74312226
 H     23  21  19     1.093428534920   112.31188175     2.02067873
 H     23  21  19     1.101741518545   107.84789498   244.36438123
 C     24  23  21     1.534828926545   112.70349531    50.69687049
 H     24  23  21     1.097353107932   109.02453919   288.57391692
 H     24  23  21     1.096888045144   109.10272602   172.65516956
 C     27  24  23     1.534952921041   111.86825817   306.34138509
 H     27  24  23     1.095006208066   108.96236688   182.75467581
 H     27  24  23     1.100498516207   109.25473565    66.25466050
 C     21  19  15     1.497622894088   122.64242446   180.36748138
 H     33  21  19     1.105966954723   106.42394816   126.11738932
 C     33  21  19     1.524237367468   121.12084048     3.47059964
 H     13   3   2     0.967908998149   107.59930113    41.90687100
 C     35  33  21     1.547709014416   103.30689123   195.07938476
 H     35  33  21     1.095123911789   112.25537295    73.30404599
 H     35  33  21     1.095775942655   110.74912015   313.57459016
 C     30  27  24     1.556112250961   115.81415404   166.48677166
 H     37  35  33     1.093318052688   111.08232423   252.12259103
 H     37  35  33     1.096420482675   111.26078452   133.83159756
 H     40  30  27     1.101431874662   105.77832425   322.36019789
 C     40  30  27     1.534786384635   117.98774816    83.31620487
 C     30  27  24     1.535235866666   111.07036002   294.73806205
 H     45  30  27     1.094677856317   111.76239525   187.17839763
 H     45  30  27     1.094472273283   111.34036505    67.23579736
 H     45  30  27     1.095178177558   110.83826306   307.19568642
 H     44  40  30     1.101534474371   107.28047982    62.44636698
 C     44  40  30     1.539714758031   114.19738245   303.61091074
 C     44  40  30     1.514018607363   113.60828287   180.17955883
 C     51  44  40     1.333065037757   126.99549228    23.76029766
 H     51  44  40     1.091383781152   113.91555468   199.12790040
 H     52  51  44     1.088856172124   118.84834736   355.92049760
 C     52  51  44     1.509384035573   126.19631763   174.61526072
 C     55  52  51     1.530495787575   113.16665870    19.81893822
 C     55  52  51     1.555275213774   110.61412474   253.60645407
 H     55  52  51     1.103686943982   106.89556885   138.52526761
 H     57  55  52     1.101792275462   106.58266761    65.90023068
 C     57  55  52     1.532133481447   112.05289042   307.72270131
 C     57  55  52     1.531619208859   111.75937410   184.33903436
 H     56  55  52     1.096780611580   111.35687486   288.21014334
 H     56  55  52     1.092889198930   111.09767096   168.13597532
 H     56  55  52     1.094821717546   110.78075003    48.38895725
 H     60  57  55     1.093914072328   112.14860208    63.66619400
 H     60  57  55     1.098045511092   110.61755569   303.00951658
 H     60  57  55     1.095365405439   110.41561189   183.83943799
 H     61  57  55     1.093386645823   112.45676618   296.64767145
 H     61  57  55     1.095591600484   110.35242384   176.48155916
 H     61  57  55     1.097906146979   110.39913248    57.51363162
 H     50  44  40     1.092969287369   112.14116479    67.47969766
 H     50  44  40     1.096563741093   110.31915789   306.31743413
 H     50  44  40     1.095857564319   110.28669715   187.44978821

---------------------------
INTERNAL COORDINATES (A.U.)
---------------------------
 C      0   0   0     0.000000000000     0.00000000     0.00000000
 C      1   0   0     2.853723149097     0.00000000     0.00000000
 C      2   1   0     2.899165355527   110.38461142     0.00000000
 H      2   1   3     2.070975420160   110.78832530   237.85276829
 H      2   1   3     2.078853518725   109.82394951   118.67500572
 C      1   2   3     2.797006365056   113.84612524   305.86036618
 C      6   1   2     2.858284874674   114.38710239    50.03731224
 C      3   2   1     2.890134422383   110.18823080    56.88932889
 H      7   6   1     2.069583967773   110.22812693   188.68471012
 H      7   6   1     2.080027272687   108.28710877    72.00046924
 H      8   3   2     2.075932422232   108.29429820    64.53613991
 H      8   3   2     2.071493041965   109.51547194   181.48972760
 O      3   2   1     2.716295458729   110.64159214   292.86178916
 H      3   2   1     2.073173114191   109.48090870   177.33656596
 C      1   2   3     2.559280795258   121.31097270   122.55004870
 C      6   1   2     2.527262939340   123.10785977   232.03283655
 H     16   6   1     2.053565350620   121.32034113   358.92270398
 H     16   6   1     2.055076683113   120.97694287   178.36725043
 C     15   1   2     2.730163614673   125.98325687   185.06378073
 H     15   1   2     2.058658340062   116.31772829     3.09350660
 C     19  15   1     2.551143624590   126.59414285   185.24881733
 H     19  15   1     2.055493590243   115.71185281     5.92692849
 C     21  19  15     2.848667324593   125.77283290     1.82945770
 C     23  21  19     2.912723783490   111.68549821   125.74312226
 H     23  21  19     2.066280478013   112.31188175     2.02067873
 H     23  21  19     2.081989740420   107.84789498   244.36438123
 C     24  23  21     2.900406333590   112.70349531    50.69687049
 H     24  23  21     2.073696846198   109.02453919   288.57391692
 H     24  23  21     2.072818004895   109.10272602   172.65516956
 C     27  24  23     2.900640649230   111.86825817   306.34138509
 H     27  24  23     2.069261848189   108.96236688   182.75467581
 H     27  24  23     2.079640806418   109.25473565    66.25466050
 C     21  19  15     2.830097121717   122.64242446   180.36748138
 H     33  21  19     2.089974657593   106.42394816   126.11738932
 C     33  21  19     2.880391187603   121.12084048     3.47059964
 H     13   3   2     1.829082929059   107.59930113    41.90687100
 C     35  33  21     2.924746172247   103.30689123   195.07938476
 H     35  33  21     2.069484275990   112.25537295    73.30404599
 H     35  33  21     2.070716435757   110.74912015   313.57459016
 C     30  27  24     2.940625987957   115.81415404   166.48677166
 H     37  35  33     2.066071696853   111.08232423   252.12259103
 H     37  35  33     2.071934439878   111.26078452   133.83159756
 H     40  30  27     2.081404598282   105.77832425   322.36019789
 C     40  30  27     2.900325941030   117.98774816    83.31620487
 C     30  27  24     2.901175338972   111.07036002   294.73806205
 H     45  30  27     2.068641353307   111.76239525   187.17839763
 H     45  30  27     2.068252857675   111.34036505    67.23579736
 H     45  30  27     2.069586823432   110.83826306   307.19568642
 H     44  40  30     2.081598483634   107.28047982    62.44636698
 C     44  40  30     2.909639217035   114.19738245   303.61091074
 C     44  40  30     2.861080529577   113.60828287   180.17955883
 C     51  44  40     2.519127840067   126.99549228    23.76029766
 H     51  44  40     2.062416453380   113.91555468   199.12790040
 H     52  51  44     2.057639964545   118.84834736   355.92049760
 C     52  51  44     2.852322458147   126.19631763   174.61526072
 C     55  52  51     2.892217887638   113.16665870    19.81893822
 C     55  52  51     2.939044216909   110.61412474   253.60645407
 H     55  52  51     2.085666061711   106.89556885   138.52526761
 H     57  55  52     2.082085657094   106.58266761    65.90023068
 C     57  55  52     2.895312680546   112.05289042   307.72270131
 C     57  55  52     2.894340846196   111.75937410   184.33903436
 H     56  55  52     2.072614984881   111.35687486   288.21014334
 H     56  55  52     2.065261280699   111.09767096   168.13597532
 H     56  55  52     2.068913211632   110.78075003    48.38895725
 H     60  57  55     2.067198010743   112.14860208    63.66619400
 H     60  57  55     2.075005298546   110.61755569   303.00951658
 H     60  57  55     2.069940632851   110.41561189   183.83943799
 H     61  57  55     2.066201319091   112.45676618   296.64767145
 H     61  57  55     2.070368079540   110.35242384   176.48155916
 H     61  57  55     2.074741938539   110.39913248    57.51363162
 H     50  44  40     2.065412625915   112.14116479    67.47969766
 H     50  44  40     2.072205159054   110.31915789   306.31743413
 H     50  44  40     2.070870678349   110.28669715   187.44978821

---------------------
BASIS SET INFORMATION
---------------------
There are 3 groups of distinct atoms

 Group   1 Type C   : 7s4p1d contracted to 3s2p1d pattern {511/31/1}
 Group   2 Type H   : 4s1p contracted to 2s1p pattern {31/1}
 Group   3 Type O   : 7s4p1d contracted to 3s2p1d pattern {511/31/1}

Atom   0C    basis set group =>   1
Atom   1C    basis set group =>   1
Atom   2C    basis set group =>   1
Atom   3H    basis set group =>   2
Atom   4H    basis set group =>   2
Atom   5C    basis set group =>   1
Atom   6C    basis set group =>   1
Atom   7C    basis set group =>   1
Atom   8H    basis set group =>   2
Atom   9H    basis set group =>   2
Atom  10H    basis set group =>   2
Atom  11H    basis set group =>   2
Atom  12O    basis set group =>   3
Atom  13H    basis set group =>   2
Atom  14C    basis set group =>   1
Atom  15C    basis set group =>   1
Atom  16H    basis set group =>   2
Atom  17H    basis set group =>   2
Atom  18C    basis set group =>   1
Atom  19H    basis set group =>   2
Atom  20C    basis set group =>   1
Atom  21H    basis set group =>   2
Atom  22C    basis set group =>   1
Atom  23C    basis set group =>   1
Atom  24H    basis set group =>   2
Atom  25H    basis set group =>   2
Atom  26C    basis set group =>   1
Atom  27H    basis set group =>   2
Atom  28H    basis set group =>   2
Atom  29C    basis set group =>   1
Atom  30H    basis set group =>   2
Atom  31H    basis set group =>   2
Atom  32C    basis set group =>   1
Atom  33H    basis set group =>   2
Atom  34C    basis set group =>   1
Atom  35H    basis set group =>   2
Atom  36C    basis set group =>   1
Atom  37H    basis set group =>   2
Atom  38H    basis set group =>   2
Atom  39C    basis set group =>   1
Atom  40H    basis set group =>   2
Atom  41H    basis set group =>   2
Atom  42H    basis set group =>   2
Atom  43C    basis set group =>   1
Atom  44C    basis set group =>   1
Atom  45H    basis set group =>   2
Atom  46H    basis set group =>   2
Atom  47H    basis set group =>   2
Atom  48H    basis set group =>   2
Atom  49C    basis set group =>   1
Atom  50C    basis set group =>   1
Atom  51C    basis set group =>   1
Atom  52H    basis set group =>   2
Atom  53H    basis set group =>   2
Atom  54C    basis set group =>   1
Atom  55C    basis set group =>   1
Atom  56C    basis set group =>   1
Atom  57H    basis set group =>   2
Atom  58H    basis set group =>   2
Atom  59C    basis set group =>   1
Atom  60C    basis set group =>   1
Atom  61H    basis set group =>   2
Atom  62H    basis set group =>   2
Atom  63H    basis set group =>   2
Atom  64H    basis set group =>   2
Atom  65H    basis set group =>   2
Atom  66H    basis set group =>   2
Atom  67H    basis set group =>   2
Atom  68H    basis set group =>   2
Atom  69H    basis set group =>   2
Atom  70H    basis set group =>   2
Atom  71H    basis set group =>   2
Atom  72H    basis set group =>   2

-------------------------
BASIS SET IN INPUT FORMAT
-------------------------

 # Basis set for element : H 
 NewGTO H 
 S 3 
   1      13.0107010000      0.0334854848
   2       1.9622572000      0.2347218709
   3       0.4445379600      0.8137702853
 S 1 
   1       0.1219496200      1.0000000000
 P 1 
   1       0.8000000000      1.0000000000
  end;

 # Basis set for element : C 
 NewGTO C 
 S 5 
   1    1238.4016938000      0.0055173650
   2     186.2900499200      0.0410888285
   3      42.2511763460      0.1822538213
   4      11.6765579320      0.4682845944
   5       3.5930506482      0.4457581734
 S 1 
   1       0.4024514736      1.0000000000
 S 1 
   1       0.1309018267      1.0000000000
 P 3 
   1       9.4680970621      0.0568883320
   2       2.0103545142      0.3129405934
   3       0.5477100471      0.7606501651
 P 1 
   1       0.1526861379      1.0000000000
 D 1 
   1       0.8000000000      1.0000000000
  end;

 # Basis set for element : O 
 NewGTO O 
 S 5 
   1    2266.1767785000     -0.0053893504
   2     340.8701019100     -0.0402347214
   3      77.3631351670     -0.1800818421
   4      21.4796449400     -0.4682885766
   5       6.6589433124     -0.4469261716
 S 1 
   1       0.8097597567      1.0000000000
 S 1 
   1       0.2553077223      1.0000000000
 P 3 
   1      17.7215043170      0.0626302488
   2       3.8635505440      0.3333113849
   3       1.0480920883      0.7414863830
 P 1 
   1       0.2764154441      1.0000000000
 D 1 
   1       1.2000000000      1.0000000000
  end;

---------------------------------
AUXILIARY/J BASIS SET INFORMATION
---------------------------------
There are 3 groups of distinct atoms

 Group   1 Type C   : 12s5p4d2f1g contracted to 6s4p3d1f1g pattern {711111/2111/211/2/1}
 Group   2 Type H   : 5s2p1d contracted to 3s1p1d pattern {311/2/1}
 Group   3 Type O   : 12s5p4d2f1g contracted to 6s4p3d1f1g pattern {711111/2111/211/2/1}

Atom   0C    basis set group =>   1
Atom   1C    basis set group =>   1
Atom   2C    basis set group =>   1
Atom   3H    basis set group =>   2
Atom   4H    basis set group =>   2
Atom   5C    basis set group =>   1
Atom   6C    basis set group =>   1
Atom   7C    basis set group =>   1
Atom   8H    basis set group =>   2
Atom   9H    basis set group =>   2
Atom  10H    basis set group =>   2
Atom  11H    basis set group =>   2
Atom  12O    basis set group =>   3
Atom  13H    basis set group =>   2
Atom  14C    basis set group =>   1
Atom  15C    basis set group =>   1
Atom  16H    basis set group =>   2
Atom  17H    basis set group =>   2
Atom  18C    basis set group =>   1
Atom  19H    basis set group =>   2
Atom  20C    basis set group =>   1
Atom  21H    basis set group =>   2
Atom  22C    basis set group =>   1
Atom  23C    basis set group =>   1
Atom  24H    basis set group =>   2
Atom  25H    basis set group =>   2
Atom  26C    basis set group =>   1
Atom  27H    basis set group =>   2
Atom  28H    basis set group =>   2
Atom  29C    basis set group =>   1
Atom  30H    basis set group =>   2
Atom  31H    basis set group =>   2
Atom  32C    basis set group =>   1
Atom  33H    basis set group =>   2
Atom  34C    basis set group =>   1
Atom  35H    basis set group =>   2
Atom  36C    basis set group =>   1
Atom  37H    basis set group =>   2
Atom  38H    basis set group =>   2
Atom  39C    basis set group =>   1
Atom  40H    basis set group =>   2
Atom  41H    basis set group =>   2
Atom  42H    basis set group =>   2
Atom  43C    basis set group =>   1
Atom  44C    basis set group =>   1
Atom  45H    basis set group =>   2
Atom  46H    basis set group =>   2
Atom  47H    basis set group =>   2
Atom  48H    basis set group =>   2
Atom  49C    basis set group =>   1
Atom  50C    basis set group =>   1
Atom  51C    basis set group =>   1
Atom  52H    basis set group =>   2
Atom  53H    basis set group =>   2
Atom  54C    basis set group =>   1
Atom  55C    basis set group =>   1
Atom  56C    basis set group =>   1
Atom  57H    basis set group =>   2
Atom  58H    basis set group =>   2
Atom  59C    basis set group =>   1
Atom  60C    basis set group =>   1
Atom  61H    basis set group =>   2
Atom  62H    basis set group =>   2
Atom  63H    basis set group =>   2
Atom  64H    basis set group =>   2
Atom  65H    basis set group =>   2
Atom  66H    basis set group =>   2
Atom  67H    basis set group =>   2
Atom  68H    basis set group =>   2
Atom  69H    basis set group =>   2
Atom  70H    basis set group =>   2
Atom  71H    basis set group =>   2
Atom  72H    basis set group =>   2

-------------------------------------
AUXILIARY/J BASIS SET IN INPUT FORMAT
-------------------------------------

 # Auxiliary/J basis set for element : H 
 NewAuxJGTO H 
 S 3 
   1      15.6752927000      0.1007184237
   2       3.6063578000      0.3404257499
   3       1.2080016000      0.6491996172
 S 1 
   1       0.4726794000      1.0000000000
 S 1 
   1       0.2018100000      1.0000000000
 P 2 
   1       2.0281365000      0.5596620919
   2       0.5358730000      0.5596620919
 D 1 
   1       2.2165124000      1.0000000000
  end;

 # Auxiliary/J basis set for element : C 
 NewAuxJGTO C 
 S 7 
   1    1861.0916331000      0.0134602335
   2     642.9939764000      0.0299160374
   3     235.1105725000      0.1008649584
   4      90.7028894000      0.2370970548
   5      36.7794552000      0.3924037254
   6      15.6046273000      0.3195862154
   7       6.8907294000      0.0530104441
 S 1 
   1       3.1478850000     -1.0000000000
 S 1 
   1       1.4777287000      1.0000000000
 S 1 
   1       0.7076466000      1.0000000000
 S 1 
   1       0.3430122000      1.0000000000
 S 1 
   1       0.1669453000      1.0000000000
 P 2 
   1      13.5472892000     -0.6769313712
   2       5.4669419000     -0.3779500978
 P 1 
   1       2.1751721000      1.0000000000
 P 1 
   1       0.8582194000      1.0000000000
 P 1 
   1       0.3376720000      1.0000000000
 D 2 
   1       5.9287253000     -0.3533329857
   2       1.9809209000     -0.7456525731
 D 1 
   1       0.8055417000     -1.0000000000
 D 1 
   1       0.3531244000     -1.0000000000
 F 2 
   1       1.6755626000      0.6311076882
   2       0.5997536000      0.4968166032
 G 1 
   1       1.0024600000     -1.0000000000
  end;

 # Auxiliary/J basis set for element : O 
 NewAuxJGTO O 
 S 7 
   1    2876.8216605000      0.0168151159
   2    1004.7443032000      0.0340137548
   3     369.7579954000      0.1194951309
   4     142.9442404000      0.2664627624
   5      57.8366425000      0.4202764046
   6      24.3864983000      0.2765077335
   7      10.6622662000      0.0057008815
 S 1 
   1       4.8070437000     -1.0000000000
 S 1 
   1       2.2210770000      1.0000000000
 S 1 
   1       1.0447795000      1.0000000000
 S 1 
   1       0.4968425000      1.0000000000
 S 1 
   1       0.2371384000      1.0000000000
 P 2 
   1      64.2613382000     -0.2731534179
   2      16.3006076000     -0.8168011598
 P 1 
   1       4.3550542000      1.0000000000
 P 1 
   1       1.2019554000      1.0000000000
 P 1 
   1       0.3354196000      1.0000000000
 D 2 
   1       9.2146611000     -0.4661230638
   2       2.8435251000     -0.6600908911
 D 1 
   1       0.9955759000     -1.0000000000
 D 1 
   1       0.3649441000     -1.0000000000
 F 2 
   1       2.6420115000      0.5931563945
   2       0.7345613000      0.5931563945
 G 1 
   1       1.3931000000     -1.0000000000
  end;


Checking for AutoStart:
The File: inpS.gbw exists
Trying to determine its content:
     ... Fine, the file contains calculation information
     ... Fine, the calculation information was read
     ... Fine, the file contains a basis set
     ... Fine, the basis set was read
     ... Fine, the file contains a geometry
     ... Fine, the geometry was read
     ... Fine, the file contains a set of orbitals
     ... Fine, the orbitals can be read
     => possible old guess file was deleted
     => GBW file was renamed to GES file
     => GES file is set as startup file
     => Guess is set to MORead
     ... now leaving AutoStart



           ************************************************************
           *        Program running with 4 parallel MPI-processes     *
           *              working on a common directory               *
           ************************************************************
------------------------------------------------------------------------------
                             ORCA STARTUP CALCULATIONS
                           -- RI-GTO INTEGRALS CHOSEN --
------------------------------------------------------------------------------
------------------------------------------------------------------------------
                   ___                                                        
                  /   \      - P O W E R E D   B Y -                         
                 /     \                                                     
                 |  |  |   _    _      __       _____    __    __             
                 |  |  |  | |  | |    /  \     |  _  \  |  |  /  |          
                  \  \/   | |  | |   /    \    | | | |  |  | /  /          
                 / \  \   | |__| |  /  /\  \   | |_| |  |  |/  /          
                |  |  |   |  __  | /  /__\  \  |    /   |      \           
                |  |  |   | |  | | |   __   |  |    \   |  |\   \          
                \     /   | |  | | |  |  |  |  | |\  \  |  | \   \       
                 \___/    |_|  |_| |__|  |__|  |_| \__\ |__|  \__/        
                                                                              
                      - O R C A' S   B I G   F R I E N D -                    
                                      &                                       
                       - I N T E G R A L  F E E D E R -                       
                                                                              
 v1 FN, 2020, v2 2021, v3 2022-2024                                           
------------------------------------------------------------------------------


----------------------
SHARK INTEGRAL PACKAGE
----------------------

Number of atoms                             ...     73
Number of basis functions                   ...    626
Number of shells                            ...    306
Maximum angular momentum                    ...      2
Integral batch strategy                     ... SHARK/LIBINT Hybrid
RI-J (if used) integral strategy            ... SPLIT-RIJ (Revised 2003 algorithm where possible)
Printlevel                                  ...      1
Contraction scheme used                     ... SEGMENTED contraction
Prescreening option                         ... SCHWARTZ
   Thresh                                   ... 3.000e-11
   Tcut                                     ... 1.000e-12
   Tpresel                                  ... 1.000e-12 
Coulomb Range Separation                    ... NOT USED
Exchange Range Separation                   ... Long Range
   Mu parameter                             ... 3.000e-01
   Scaling (regular/separated)              ... 1.670e-01 8.330e-01
Multipole approximations                    ... NOT USED
Finite Nucleus Model                        ... NOT USED
CABS basis                                  ... NOT available
Auxiliary Coulomb fitting basis             ... AVAILABLE
   # of basis functions in Aux-J            ...   1905
   # of shells in Aux-J                     ...    655
   Maximum angular momentum in Aux-J        ...      4
Auxiliary J/K fitting basis                 ... NOT available
Auxiliary Correlation fitting basis         ... NOT available
Auxiliary 'external' fitting basis          ... NOT available

Checking pre-screening integrals            ... done (  0.0 sec) Dimension = 306
Check shell pair data                       ... done (  0.0 sec)
Shell pair information
Shell pair cut-off parameter TPreSel        ...   1.0e-12
Total number of shell pairs                 ...     46971
Shell pairs after pre-screening             ...     27696
Total number of primitive shell pairs       ...    162105
Primitive shell pairs kept                  ...     61162
          la=0 lb=0:   9695 shell pairs
          la=1 lb=0:  10619 shell pairs
          la=1 lb=1:   2936 shell pairs
          la=2 lb=0:   2774 shell pairs
          la=2 lb=1:   1476 shell pairs
          la=2 lb=2:    196 shell pairs

Calculating one electron integrals          ... done (  0.1 sec)
Calculating RI/J V-Matrix + Cholesky decomp.... done (  0.2 sec)
Calculating Nuclear repulsion               ... done (  0.0 sec) ENN=   2792.485175336531 Eh

Diagonalization of the overlap matrix:
Smallest eigenvalue                        ... 4.531e-04
Time for diagonalization                   ...    0.045 sec
Threshold for overlap eigenvalues          ... 1.000e-07
Number of eigenvalues below threshold      ... 0
Time for construction of square roots      ...    0.025 sec
Total time needed                          ...    0.074 sec

-------------------
DFT GRID GENERATION
-------------------

General Integration Accuracy     IntAcc      ... 4.388
Radial Grid Type                 RadialGrid  ... OptM3 with GC (2021)
Angular Grid (max. ang.)         AngularGrid ... 4 (Lebedev-302)
Angular grid pruning method      GridPruning ... 4 (adaptive)
Weight generation scheme         WeightScheme... mBecke (2022)
Basis function cutoff            BFCut       ... 1.0000e-11
Integration weight cutoff        WCut        ... 1.0000e-14
Partially contracted basis set               ... off
Rotationally invariant grid construction     ... off
Angular grids for H and He will be reduced by one unit

Total number of grid points                  ...   309822
Total number of batches                      ...     4878
Average number of points per batch           ...       63
Average number of grid points per atom       ...     4244

--------------------
COSX GRID GENERATION
--------------------

GRIDX 1
-------
General Integration Accuracy     IntAcc      ... 3.816
Radial Grid Type                 RadialGrid  ... OptM3 with GC (2021)
Angular Grid (max. ang.)         AngularGrid ... 1 (Lebedev-50)
Angular grid pruning method      GridPruning ... 4 (adaptive)
Weight generation scheme         WeightScheme... mBecke (2022)
Basis function cutoff            BFCut       ... 1.0000e-11
Integration weight cutoff        WCut        ... 1.0000e-14
Partially contracted basis set               ... on
Rotationally invariant grid construction     ... off
Angular grids for H and He will be reduced by one unit

Total number of grid points                  ...    39362
Total number of batches                      ...      352
Average number of points per batch           ...      111
Average number of grid points per atom       ...      539
UseSFitting                                  ... on

GRIDX 2
-------
General Integration Accuracy     IntAcc      ... 4.020
Radial Grid Type                 RadialGrid  ... OptM3 with GC (2021)
Angular Grid (max. ang.)         AngularGrid ... 2 (Lebedev-110)
Angular grid pruning method      GridPruning ... 4 (adaptive)
Weight generation scheme         WeightScheme... mBecke (2022)
Basis function cutoff            BFCut       ... 1.0000e-11
Integration weight cutoff        WCut        ... 1.0000e-14
Partially contracted basis set               ... on
Rotationally invariant grid construction     ... off
Angular grids for H and He will be reduced by one unit

Total number of grid points                  ...    81369
Total number of batches                      ...      675
Average number of points per batch           ...      120
Average number of grid points per atom       ...     1115
UseSFitting                                  ... on

GRIDX 3
-------
General Integration Accuracy     IntAcc      ... 4.338
Radial Grid Type                 RadialGrid  ... OptM3 with GC (2021)
Angular Grid (max. ang.)         AngularGrid ... 3 (Lebedev-194)
Angular grid pruning method      GridPruning ... 4 (adaptive)
Weight generation scheme         WeightScheme... mBecke (2022)
Basis function cutoff            BFCut       ... 1.0000e-11
Integration weight cutoff        WCut        ... 1.0000e-14
Partially contracted basis set               ... on
Rotationally invariant grid construction     ... off
Angular grids for H and He will be reduced by one unit

Total number of grid points                  ...   176161
Total number of batches                      ...     1419
Average number of points per batch           ...      124
Average number of grid points per atom       ...     2413
UseSFitting                                  ... on
Initializing property integral containers    ... done (  0.0 sec)

SHARK setup successfully completed in   4.4 seconds

Maximum memory used throughout the entire STARTUP-calculation: 96.0 MB


           ************************************************************
           *        Program running with 4 parallel MPI-processes     *
           *              working on a common directory               *
           ************************************************************
-------------------------------------------------------------------------------
                                 ORCA GUESS
                   Start orbitals & Density for SCF / CASSCF
-------------------------------------------------------------------------------

------------
SCF SETTINGS
------------
Hamiltonian:
 Density Functional     Method          .... DFT(GTOs)
 Exchange Functional    Exchange        .... WB97X-V
 Correlation Functional Correlation     .... WB97X-V
 Gradients option       PostSCFGGA      .... off
 Hybrid DFT is turned on
   Fraction HF Exchange ScalHFX         ....  0.167000
   Scaling of DF-GGA-X  ScalDFX         ....  0.000000
   Scaling of DF-GGA-C  ScalDFC         ....  1.000000
   Scaling of DF-LDA-C  ScalLDAC        ....  1.000000
   Perturbative correction              ....  0.000000
 Long-range corrected/Screened/Range-Separated Hybrid DFT is turned on
   Amount of maximum screened exact exchange              ....  0.833000
   Range separation parameter mu (erf(mu*r12)/r12)        ....  0.300000
 RI-approximation to the Coulomb term is turned on
   Number of AuxJ basis functions       .... 1905
   RIJ-COSX (HFX calculated with COS-X)).... on


General Settings:
 Integral files         IntName         .... inpS
 Hartree-Fock type      HFTyp           .... RHF
 Total Charge           Charge          ....    0
 Multiplicity           Mult            ....    1
 Number of Electrons    NEL             ....  220
 Basis Dimension        Dim             ....  626
 Nuclear Repulsion      ENuc            ....   2792.4851753365 Eh

Convergence Acceleration:
 AO-DIIS                CNVDIIS         .... on
   Start iteration      DIISMaxIt       ....    12
   Startup error        DIISStart       ....  0.200000
   # of expansion vecs  DIISMaxEq       ....     5
   Bias factor          DIISBfac        ....   1.050
   Max. coefficient     DIISMaxC        ....  10.000
 MO-DIIS                CNVKDIIS        .... off
 Trust-Rad. Augm. Hess. CNVTRAH         .... auto
   Auto Start mean grad. ratio tolernc. ....  1.125000
   Auto Start start iteration           ....     1
   Auto Start num. interpolation iter.  ....    10
   Max. Number of Micro iterations      ....    24
   Max. Number of Macro iterations      .... Maxiter - #DIIS iter
   Number of Davidson start vectors     ....     2
   Converg. threshold    (grad. norm)   ....   1.000e-04
   Grad. Scal. Fac. for Micro threshold ....   0.100
   Minimum threshold for Micro iter.    ....   1.000e-02
   NR start threshold (gradient norm)   ....   1.000e-04
   Initial trust radius                 ....   0.400
   Minimum AH scaling param. (alpha)    ....   1.000
   Maximum AH scaling param. (alpha)    .... 1000.000
   Quad. conv. algorithm                .... NR
   White noise on init. David. guess    .... on
   Maximum white noise                  ....   0.010
   Pseudo random numbers                .... off
   Inactive MOs                         .... canonical
   Orbital update algorithm             .... Taylor
   Preconditioner                       .... Diag
   Full preconditioner red. dimension   ....   250
 SOSCF                  CNVSOSCF        .... off
 Level Shifting         CNVShift        .... on
   Level shift para.    LevelShift      ....    0.2500
   Turn off err/grad.   ShiftErr        ....    0.0010
 Zerner damping         CNVZerner       .... off
 Static damping         CNVDamp         .... on
   Fraction old density DampFac         ....    0.7000
   Max. Damping (<1)    DampMax         ....    0.9800
   Min. Damping (>=0)   DampMin         ....    0.0000
   Turn off err/grad.   DampErr         ....    0.1000

SCF Procedure:
 Maximum # iterations   MaxIter         ....   125
 SCF integral mode      SCFMode         .... Direct
   Integral package                     .... SHARK and LIBINT hybrid scheme
 Reset frequency        DirectResetFreq ....    20
 Integral Threshold     Thresh          ....  3.000e-11 Eh
 Primitive CutOff       TCut            ....  1.000e-12 Eh

Convergence Tolerance:
 Convergence Check Mode ConvCheckMode   .... Total+1el-Energy
 Convergence forced     ConvForced      .... 0
 Energy Change          TolE            ....  1.000e-07 Eh
 1-El. energy change                    ....  1.000e-04 Eh
 DIIS Error             TolErr          ....  1.000e-07

---------------------
INITIAL GUESS: MOREAD
---------------------
Guess MOs are being read from file: inpS.ges
Input Geometry matches current geometry (good)
Input basis set matches current basis set (good)
Occupation numbers will be reassigned to an Aufbau configuration
MOs were renormalized
MOs were reorthogonalized (Cholesky)
                      ------------------
                      INITIAL GUESS DONE (   0.2 sec)
                      ------------------
             **** ENERGY FILE WAS UPDATED (inpS.en.tmp) ****
Finished Guess after   0.4 sec
Maximum memory used throughout the entire GUESS-calculation: 52.6 MB


           ************************************************************
           *        Program running with 4 parallel MPI-processes     *
           *              working on a common directory               *
           ************************************************************

-------------------------------------------------------------------------------------------
                                      ORCA LEAN-SCF
                              memory conserving SCF solver
-------------------------------------------------------------------------------------------

--------------------
CPCM SOLVATION MODEL
--------------------
CPCM parameters:
  Epsilon                                         ...       4.8030
  Refrac                                          ...       1.4459
  Rsolv                                           ...       1.3000
  Surface type                                    ... GAUSSIAN VDW
  Discretization scheme                           ... Constant charge density
    Threshold for H atoms                         ...       5.0000 (charges/Ang^2)
    Threshold for non-H atoms                     ...       5.0000 (charges/Ang^2)
  Epsilon function type                           ...         CPCM
Solvent:                                          ... CHLOROFORM
Radii:
  Scheme                                          ... Element-dependent radii
  Radius for C  used is    3.8550 Bohr (=   2.0400 Ang.)
  Radius for H  used is    2.4944 Bohr (=   1.3200 Ang.)
  Radius for O  used is    3.4469 Bohr (=   1.8240 Ang.)
Calculating surface                               ...        done! (  0.0s)
Cavity surface points                             ...         5373
Cavity Volume                                     ...    3597.5106
Cavity Surface-area                               ...    1783.4002
Calculating surface distance matrix               ...        done! (  0.2s)
Performing Cholesky decomposition & store         ...        done! (  0.9s)
Overall time for CPCM initialization              ...                 1.1s

----------------------------------------D-I-I-S--------------------------------------------
Iteration    Energy (Eh)           Delta-E    RMSDP     MaxDP     DIISErr   Damp  Time(sec)
-------------------------------------------------------------------------------------------
               ***  Starting incremental Fock matrix formation  ***
    1    -1168.3589226398312348     0.00e+00  3.16e-08  2.01e-06  4.50e-06  0.700  23.6

  HOMO= 109 E= -7.962 eV LUMO=  8.076 eV gap=  16.038 eV
    2    -1168.3589226188505563     2.10e-08  2.67e-08  1.28e-06  2.38e-06  0.700   4.9
                 **** Energy Check signals convergence ****

  HOMO= 109 E= -7.962 eV LUMO=  8.076 eV gap=  16.038 eV

               *****************************************************
               *                     SUCCESS                       *
               *           SCF CONVERGED AFTER   2 CYCLES          *
               *****************************************************

Recomputing exchange energy using gridx3       ... done (   40.813 sec)
Old exchange energy                            :    -56.782774929 Eh
New exchange energy                            :    -56.782777257 Eh
Exchange energy change after final integration :     -0.000002328 Eh
Total energy after final integration           :  -1168.358924947 Eh
             **** ENERGY FILE WAS UPDATED (inpS.en.tmp) ****

----------------
TOTAL SCF ENERGY
----------------

Total Energy       :      -1168.35892494716768 Eh          -31792.66266 eV

Components:
Nuclear Repulsion  :       2792.48517533653103 Eh           75987.38474 eV
Electronic Energy  :      -3960.83481810852891 Eh         -107779.79482 eV
One Electron Energy:      -7130.01109735242426 Eh         -194017.46562 eV
Two Electron Energy:       3169.17627924389535 Eh           86237.67080 eV
CPCM Dielectric    :         -0.00927984685247 Eh              -0.25252 eV

Virial components:
Potential Energy   :      -2321.66655666530323 Eh          -63175.75880 eV
Kinetic Energy     :       1153.30763171813555 Eh           31383.09614 eV
Virial Ratio       :          2.01305054507149

DFT components:
N(Alpha)           :      110.000132330380 electrons
N(Beta)            :      110.000132330380 electrons
N(Total)           :      220.000264660760 electrons
E(X)               :     -111.769479891113 Eh       
E(C)               :       -8.952704564403 Eh       
E(XC)              :     -120.722184455516 Eh       

CPCM Solvation Model Properties:
Surface-charge          :         -0.04189474017130
Corrected charge        :          0.00000000000000
Outlying charge corr.   :          0.00006160207651 Eh               0.00168 eV
Free-energy (cav+disp)  :  This term is not implemented in the current solvation scheme

---------------
SCF CONVERGENCE
---------------

  Last Energy change         ...   -2.0981e-08  Tolerance :   1.0000e-07
  Last MAX-Density change    ...    1.2770e-06  Tolerance :   1.0000e-05
  Last RMS-Density change    ...    2.6733e-08  Tolerance :   1.0000e-06
  Last DIIS Error            ...    2.3820e-06  Tolerance :   1.0000e-07


----------------
ORBITAL ENERGIES
----------------

  NO   OCC          E(Eh)            E(eV) 
   0   2.0000     -19.212276      -522.7926 
   1   2.0000     -10.330291      -281.1015 
   2   2.0000     -10.294179      -280.1189 
   3   2.0000     -10.292067      -280.0614 
   4   2.0000     -10.287382      -279.9339 
   5   2.0000     -10.286599      -279.9126 
   6   2.0000     -10.285434      -279.8809 
   7   2.0000     -10.284055      -279.8434 
   8   2.0000     -10.283030      -279.8155 
   9   2.0000     -10.283006      -279.8148 
  10   2.0000     -10.282662      -279.8054 
  11   2.0000     -10.282474      -279.8003 
  12   2.0000     -10.279310      -279.7142 
  13   2.0000     -10.278018      -279.6791 
  14   2.0000     -10.277324      -279.6602 
  15   2.0000     -10.277305      -279.6597 
  16   2.0000     -10.276901      -279.6487 
  17   2.0000     -10.276705      -279.6434 
  18   2.0000     -10.273670      -279.5608 
  19   2.0000     -10.272860      -279.5387 
  20   2.0000     -10.271953      -279.5141 
  21   2.0000     -10.271708      -279.5074 
  22   2.0000     -10.270843      -279.4838 
  23   2.0000     -10.270347      -279.4704 
  24   2.0000     -10.269705      -279.4529 
  25   2.0000     -10.268566      -279.4219 
  26   2.0000     -10.268355      -279.4162 
  27   2.0000     -10.268326      -279.4154 
  28   2.0000     -10.266992      -279.3791 
  29   2.0000      -1.130787       -30.7703 
  30   2.0000      -0.998629       -27.1741 
  31   2.0000      -0.977294       -26.5935 
  32   2.0000      -0.957720       -26.0609 
  33   2.0000      -0.942592       -25.6492 
  34   2.0000      -0.917566       -24.9682 
  35   2.0000      -0.910860       -24.7858 
  36   2.0000      -0.890092       -24.2206 
  37   2.0000      -0.888024       -24.1644 
  38   2.0000      -0.873592       -23.7716 
  39   2.0000      -0.853508       -23.2251 
  40   2.0000      -0.833572       -22.6827 
  41   2.0000      -0.828909       -22.5558 
  42   2.0000      -0.809334       -22.0231 
  43   2.0000      -0.799286       -21.7497 
  44   2.0000      -0.797430       -21.6992 
  45   2.0000      -0.791481       -21.5373 
  46   2.0000      -0.760486       -20.6939 
  47   2.0000      -0.758207       -20.6319 
  48   2.0000      -0.724235       -19.7074 
  49   2.0000      -0.712942       -19.4001 
  50   2.0000      -0.704494       -19.1703 
  51   2.0000      -0.699595       -19.0369 
  52   2.0000      -0.688957       -18.7475 
  53   2.0000      -0.679137       -18.4802 
  54   2.0000      -0.658125       -17.9085 
  55   2.0000      -0.631239       -17.1769 
  56   2.0000      -0.620854       -16.8943 
  57   2.0000      -0.619369       -16.8539 
  58   2.0000      -0.607353       -16.5269 
  59   2.0000      -0.605228       -16.4691 
  60   2.0000      -0.589968       -16.0539 
  61   2.0000      -0.585899       -15.9431 
  62   2.0000      -0.570895       -15.5348 
  63   2.0000      -0.568818       -15.4783 
  64   2.0000      -0.562600       -15.3091 
  65   2.0000      -0.558995       -15.2110 
  66   2.0000      -0.555601       -15.1187 
  67   2.0000      -0.551583       -15.0093 
  68   2.0000      -0.549718       -14.9586 
  69   2.0000      -0.539640       -14.6844 
  70   2.0000      -0.538301       -14.6479 
  71   2.0000      -0.531879       -14.4732 
  72   2.0000      -0.529747       -14.4152 
  73   2.0000      -0.522826       -14.2268 
  74   2.0000      -0.519714       -14.1421 
  75   2.0000      -0.508888       -13.8475 
  76   2.0000      -0.508022       -13.8240 
  77   2.0000      -0.503149       -13.6914 
  78   2.0000      -0.498337       -13.5605 
  79   2.0000      -0.492730       -13.4079 
  80   2.0000      -0.488807       -13.3011 
  81   2.0000      -0.488043       -13.2803 
  82   2.0000      -0.483557       -13.1583 
  83   2.0000      -0.478299       -13.0152 
  84   2.0000      -0.476265       -12.9598 
  85   2.0000      -0.467468       -12.7205 
  86   2.0000      -0.462278       -12.5792 
  87   2.0000      -0.459976       -12.5166 
  88   2.0000      -0.453956       -12.3528 
  89   2.0000      -0.452303       -12.3078 
  90   2.0000      -0.448302       -12.1989 
  91   2.0000      -0.447036       -12.1645 
  92   2.0000      -0.441450       -12.0125 
  93   2.0000      -0.434604       -11.8262 
  94   2.0000      -0.428610       -11.6631 
  95   2.0000      -0.423315       -11.5190 
  96   2.0000      -0.420269       -11.4361 
  97   2.0000      -0.419567       -11.4170 
  98   2.0000      -0.418757       -11.3950 
  99   2.0000      -0.414903       -11.2901 
 100   2.0000      -0.410862       -11.1801 
 101   2.0000      -0.407557       -11.0902 
 102   2.0000      -0.406020       -11.0484 
 103   2.0000      -0.399844       -10.8803 
 104   2.0000      -0.392010       -10.6671 
 105   2.0000      -0.381175       -10.3723 
 106   2.0000      -0.372614       -10.1394 
 107   2.0000      -0.355336        -9.6692 
 108   2.0000      -0.336552        -9.1580 
 109   2.0000      -0.292615        -7.9624 
 110   0.0000       0.046779         1.2729 
 111   0.0000       0.099471         2.7068 
 112   0.0000       0.108474         2.9517 
 113   0.0000       0.130041         3.5386 
 114   0.0000       0.142481         3.8771 
 115   0.0000       0.144178         3.9233 
 116   0.0000       0.151451         4.1212 
 117   0.0000       0.153989         4.1903 
 118   0.0000       0.160794         4.3754 
 119   0.0000       0.162501         4.4219 
 120   0.0000       0.168973         4.5980 
*Only the first 10 virtual orbitals were printed.

                    ********************************
                    * MULLIKEN POPULATION ANALYSIS *
                    ********************************

-----------------------
MULLIKEN ATOMIC CHARGES
-----------------------
   0 C :   -0.174289
   1 C :    0.142075
   2 C :    0.067904
   3 H :    0.017357
   4 H :    0.030624
   5 C :   -0.171542
   6 C :    0.096991
   7 C :    0.024242
   8 H :    0.013417
   9 H :    0.027285
  10 H :    0.019699
  11 H :    0.022537
  12 O :   -0.359294
  13 H :    0.018112
  14 C :   -0.007835
  15 C :   -0.046091
  16 H :    0.035308
  17 H :    0.029395
  18 C :   -0.063365
  19 H :   -0.002414
  20 C :   -0.114174
  21 H :    0.003720
  22 C :    0.115430
  23 C :   -0.002806
  24 H :    0.014090
  25 H :    0.017255
  26 C :    0.107260
  27 H :    0.013265
  28 H :    0.015529
  29 C :   -0.419867
  30 H :    0.008787
  31 H :   -0.002131
  32 C :   -0.039324
  33 H :    0.009948
  34 C :    0.111383
  35 H :    0.179187
  36 C :    0.071765
  37 H :    0.007415
  38 H :    0.015173
  39 C :   -0.037345
  40 H :    0.009982
  41 H :   -0.000040
  42 H :   -0.000869
  43 C :   -0.001824
  44 C :    0.093746
  45 H :    0.020524
  46 H :    0.024714
  47 H :    0.016693
  48 H :    0.006072
  49 C :    0.052415
  50 C :   -0.095359
  51 C :   -0.081451
  52 H :    0.009506
  53 H :    0.026064
  54 C :   -0.044602
  55 C :    0.042257
  56 C :   -0.175352
  57 H :    0.003000
  58 H :    0.006266
  59 C :    0.027101
  60 C :    0.033469
  61 H :    0.020891
  62 H :    0.024518
  63 H :    0.019466
  64 H :    0.024085
  65 H :    0.013549
  66 H :    0.018244
  67 H :    0.023729
  68 H :    0.018615
  69 H :    0.012825
  70 H :    0.030640
  71 H :    0.013591
  72 H :    0.012858
Sum of atomic charges:   -0.0000000

--------------------------------
MULLIKEN REDUCED ORBITAL CHARGES
--------------------------------
  0 C s       :     3.102466  s :     3.102466
      pz      :     1.014019  p :     3.028781
      px      :     1.004297
      py      :     1.010465
      dz2     :     0.006050  d :     0.043043
      dxz     :     0.006553
      dyz     :     0.005860
      dx2y2   :     0.013281
      dxy     :     0.011298

  1 C s       :     2.939762  s :     2.939762
      pz      :     0.990978  p :     2.883763
      px      :     0.928648
      py      :     0.964137
      dz2     :     0.008202  d :     0.034400
      dxz     :     0.005899
      dyz     :     0.004065
      dx2y2   :     0.009578
      dxy     :     0.006655

  2 C s       :     3.085458  s :     3.085458
      pz      :     0.732175  p :     2.775987
      px      :     1.048492
      py      :     0.995320
      dz2     :     0.023480  d :     0.070651
      dxz     :     0.011068
      dyz     :     0.017720
      dx2y2   :     0.010614
      dxy     :     0.007768

  3 H s       :     0.959988  s :     0.959988
      pz      :     0.005628  p :     0.022654
      px      :     0.003703
      py      :     0.013324

  4 H s       :     0.946062  s :     0.946062
      pz      :     0.014586  p :     0.023314
      px      :     0.004411
      py      :     0.004317

  5 C s       :     3.109187  s :     3.109187
      pz      :     0.972187  p :     3.017545
      px      :     0.988948
      py      :     1.056410
      dz2     :     0.009376  d :     0.044809
      dxz     :     0.005525
      dyz     :     0.008686
      dx2y2   :     0.010969
      dxy     :     0.010254

  6 C s       :     2.954245  s :     2.954245
      pz      :     1.003780  p :     2.913316
      px      :     0.943824
      py      :     0.965713
      dz2     :     0.008711  d :     0.035449
      dxz     :     0.005532
      dyz     :     0.004870
      dx2y2   :     0.008476
      dxy     :     0.007859

  7 C s       :     3.002245  s :     3.002245
      pz      :     0.983862  p :     2.938722
      px      :     0.982026
      py      :     0.972834
      dz2     :     0.007955  d :     0.034791
      dxz     :     0.005632
      dyz     :     0.004680
      dx2y2   :     0.008093
      dxy     :     0.008432

  8 H s       :     0.963747  s :     0.963747
      pz      :     0.006419  p :     0.022836
      px      :     0.003770
      py      :     0.012647

  9 H s       :     0.949318  s :     0.949318
      pz      :     0.014486  p :     0.023396
      px      :     0.004397
      py      :     0.004513

 10 H s       :     0.957472  s :     0.957472
      pz      :     0.014337  p :     0.022829
      px      :     0.004487
      py      :     0.004005

 11 H s       :     0.954832  s :     0.954832
      pz      :     0.007092  p :     0.022631
      px      :     0.007637
      py      :     0.007902

 12 O s       :     3.713346  s :     3.713346
      pz      :     1.382047  p :     4.633816
      px      :     1.355766
      py      :     1.896004
      dz2     :     0.005407  d :     0.012132
      dxz     :     0.001460
      dyz     :     0.001510
      dx2y2   :     0.003174
      dxy     :     0.000581

 13 H s       :     0.961540  s :     0.961540
      pz      :     0.001870  p :     0.020348
      px      :     0.013960
      py      :     0.004519

 14 C s       :     3.194760  s :     3.194760
      pz      :     0.992605  p :     2.776717
      px      :     0.873268
      py      :     0.910844
      dz2     :     0.004769  d :     0.036357
      dxz     :     0.007587
      dyz     :     0.003360
      dx2y2   :     0.010522
      dxy     :     0.010118

 15 C s       :     3.123967  s :     3.123967
      pz      :     1.011422  p :     2.895854
      px      :     0.980197
      py      :     0.904235
      dz2     :     0.005303  d :     0.026270
      dxz     :     0.004089
      dyz     :     0.004417
      dx2y2   :     0.006321
      dxy     :     0.006140

 16 H s       :     0.940151  s :     0.940151
      pz      :     0.006012  p :     0.024541
      px      :     0.008729
      py      :     0.009800

 17 H s       :     0.945991  s :     0.945991
      pz      :     0.005328  p :     0.024614
      px      :     0.004363
      py      :     0.014923

 18 C s       :     3.200345  s :     3.200345
      pz      :     1.030680  p :     2.827831
      px      :     0.885161
      py      :     0.911989
      dz2     :     0.004154  d :     0.035189
      dxz     :     0.006724
      dyz     :     0.003194
      dx2y2   :     0.011662
      dxy     :     0.009456

 19 H s       :     0.978109  s :     0.978109
      pz      :     0.005020  p :     0.024305
      px      :     0.004811
      py      :     0.014474

 20 C s       :     3.099457  s :     3.099457
      pz      :     0.960482  p :     2.970591
      px      :     0.982643
      py      :     1.027467
      dz2     :     0.005428  d :     0.044126
      dxz     :     0.006946
      dyz     :     0.006731
      dx2y2   :     0.013532
      dxy     :     0.011489

 21 H s       :     0.971718  s :     0.971718
      pz      :     0.004807  p :     0.024562
      px      :     0.004327
      py      :     0.015429

 22 C s       :     2.925003  s :     2.925003
      pz      :     1.003929  p :     2.924067
      px      :     0.977000
      py      :     0.943138
      dz2     :     0.010189  d :     0.035500
      dxz     :     0.003693
      dyz     :     0.005048
      dx2y2   :     0.009499
      dxy     :     0.007070

 23 C s       :     3.001508  s :     3.001508
      pz      :     1.010444  p :     2.964864
      px      :     0.962590
      py      :     0.991830
      dz2     :     0.010141  d :     0.036433
      dxz     :     0.006506
      dyz     :     0.003309
      dx2y2   :     0.009888
      dxy     :     0.006590

 24 H s       :     0.962715  s :     0.962715
      pz      :     0.005113  p :     0.023195
      px      :     0.013105
      py      :     0.004977

 25 H s       :     0.959469  s :     0.959469
      pz      :     0.014464  p :     0.023276
      px      :     0.004568
      py      :     0.004245

 26 C s       :     2.969239  s :     2.969239
      pz      :     0.971666  p :     2.888180
      px      :     0.975350
      py      :     0.941164
      dz2     :     0.008293  d :     0.035321
      dxz     :     0.005707
      dyz     :     0.004937
      dx2y2   :     0.008108
      dxy     :     0.008276

 27 H s       :     0.963880  s :     0.963880
      pz      :     0.014342  p :     0.022855
      px      :     0.004011
      py      :     0.004502

 28 H s       :     0.961828  s :     0.961828
      pz      :     0.005303  p :     0.022643
      px      :     0.003745
      py      :     0.013595

 29 C s       :     3.259530  s :     3.259530
      pz      :     1.057064  p :     3.109355
      px      :     0.999552
      py      :     1.052738
      dz2     :     0.012287  d :     0.050982
      dxz     :     0.009978
      dyz     :     0.009162
      dx2y2   :     0.010160
      dxy     :     0.009395

 30 H s       :     0.968174  s :     0.968174
      pz      :     0.007652  p :     0.023039
      px      :     0.008471
      py      :     0.006916

 31 H s       :     0.979602  s :     0.979602
      pz      :     0.013970  p :     0.022529
      px      :     0.004560
      py      :     0.003999

 32 C s       :     3.033443  s :     3.033443
      pz      :     0.995430  p :     2.962051
      px      :     0.941181
      py      :     1.025440
      dz2     :     0.009940  d :     0.043830
      dxz     :     0.006486
      dyz     :     0.006720
      dx2y2   :     0.011068
      dxy     :     0.009616

 33 H s       :     0.968783  s :     0.968783
      pz      :     0.013504  p :     0.021270
      px      :     0.003886
      py      :     0.003880

 34 C s       :     2.904920  s :     2.904920
      pz      :     0.990613  p :     2.948683
      px      :     0.982697
      py      :     0.975372
      dz2     :     0.005875  d :     0.035014
      dxz     :     0.005952
      dyz     :     0.007715
      dx2y2   :     0.009134
      dxy     :     0.006338

 35 H s       :     0.752036  s :     0.752036
[...]
 Total          138.234          176.469          190.708  iso=     168.470

 Orientation: 
  X           0.2068160   -0.5807724    0.7873567
  Y           0.0258916   -0.8012249   -0.5978029
  Z           0.9780372    0.1440212   -0.1506690

 --------------
 Nucleus  39C :
 --------------

Diamagnetic contribution to the shielding tensor (ppm) : 
           266.591          5.113        -6.732
             2.735        271.824         5.181
            -5.615          2.361       256.078

Paramagnetic contribution to the shielding tensor (ppm): 
          -102.705         -6.208        11.650
             7.030       -123.538         3.274
            17.349          0.935      -126.654

Total shielding tensor (ppm): 
           163.886         -1.095         4.918
             9.765        148.287         8.455
            11.735          3.296       129.424


 Diagonalized sT*s matrix:
 
 sDSO           258.053          270.409          266.031  iso=     264.831
 sPSO          -131.608         -122.689          -98.599  iso=    -117.632
        ---------------  ---------------  ---------------
 Total          126.444          147.720          167.432  iso=     147.199

 Orientation: 
  X          -0.1807608   -0.3096676   -0.9335050
  Y          -0.2274428    0.9365738   -0.2666444
  Z           0.9568674    0.1641201   -0.2397275

 --------------
 Nucleus  43C :
 --------------

Diamagnetic contribution to the shielding tensor (ppm) : 
           260.196          0.680        -4.468
            -4.441        259.039         6.787
            -0.596          6.151       239.642

Paramagnetic contribution to the shielding tensor (ppm): 
           -90.149         -9.206        -1.391
             0.479        -98.015        -4.084
            -0.567         -8.292       -91.299

Total shielding tensor (ppm): 
           170.048         -8.527        -5.859
            -3.962        161.024         2.704
            -1.164         -2.141       148.343


 Diagonalized sT*s matrix:
 
 sDSO           240.053          256.349          262.475  iso=     252.959
 sPSO           -92.303          -98.342          -88.819  iso=     -93.154
        ---------------  ---------------  ---------------
 Total          147.750          158.008          173.656  iso=     159.805

 Orientation: 
  X           0.1780820   -0.4331317    0.8835631
  Y           0.0496144   -0.8928213   -0.4476700
  Z           0.9827641    0.1235595   -0.1375059

 --------------
 Nucleus  44C :
 --------------

Diamagnetic contribution to the shielding tensor (ppm) : 
           250.401          1.051        -0.086
            -0.047        257.680        -0.471
            -0.393          3.988       270.373

Paramagnetic contribution to the shielding tensor (ppm): 
           -71.203         -4.915        -0.738
            -3.078        -78.937        -1.055
             0.306         -5.736       -76.467

Total shielding tensor (ppm): 
           179.198         -3.864        -0.824
            -3.125        178.743        -1.525
            -0.087         -1.748       193.906


 Diagonalized sT*s matrix:
 
 sDSO           255.118          253.468          269.868  iso=     259.485
 sPSO           -79.773          -71.048          -75.787  iso=     -75.536
        ---------------  ---------------  ---------------
 Total          175.346          182.420          194.081  iso=     183.949

 Orientation: 
  X           0.6757577    0.7371072   -0.0049435
  Y           0.7326876   -0.6724105   -0.1050381
  Z           0.0807484   -0.0673583    0.9944559

 --------------
 Nucleus  49C :
 --------------

Diamagnetic contribution to the shielding tensor (ppm) : 
           243.918         -5.946        -3.042
           -18.809        260.423         0.553
            -3.730          4.700       241.855

Paramagnetic contribution to the shielding tensor (ppm): 
           -75.430          0.391         1.754
            17.774        -74.067         7.864
             5.809          0.768       -71.793

Total shielding tensor (ppm): 
           168.488         -5.554        -1.288
            -1.035        186.357         8.417
             2.079          5.469       170.062


 Diagonalized sT*s matrix:
 
 sDSO           241.226          241.916          263.054  iso=     248.732
 sPSO           -74.961          -72.608          -73.721  iso=     -73.763
        ---------------  ---------------  ---------------
 Total          166.265          169.309          189.333  iso=     174.969

 Orientation: 
  X           0.6303916    0.7646766   -0.1337015
  Y           0.3428430   -0.1197256    0.9317320
  Z          -0.6964662    0.6331946    0.3376380

 --------------
 Nucleus  50C :
 --------------

Diamagnetic contribution to the shielding tensor (ppm) : 
           268.822         10.221         0.892
            15.256        234.485         7.019
            -1.600          8.619       272.067

Paramagnetic contribution to the shielding tensor (ppm): 
          -271.881        -76.536        40.835
           -77.073        -93.050         1.805
            32.854         -3.681      -216.160

Total shielding tensor (ppm): 
            -3.059        -66.314        41.727
           -61.817        141.435         8.824
            31.254          4.938        55.906


 Diagonalized sT*s matrix:
 
 sDSO           272.186          273.672          229.515  iso=     258.458
 sPSO          -309.582         -208.071          -63.438  iso=    -193.697
        ---------------  ---------------  ---------------
 Total          -37.396           65.601          166.077  iso=      64.761

 Orientation: 
  X           0.9271567    0.1414179    0.3469602
  Y           0.3312155    0.1235320   -0.9354337
  Z          -0.1751477    0.9822122    0.0676937

 --------------
 Nucleus  51C :
 --------------

Diamagnetic contribution to the shielding tensor (ppm) : 
           269.672         13.390        -1.115
            11.057        261.793        -0.829
             3.575         -4.388       284.514

Paramagnetic contribution to the shielding tensor (ppm): 
          -272.196        -81.015        48.144
           -86.019       -126.572       -16.988
            35.719         -2.411      -225.492

Total shielding tensor (ppm): 
            -2.524        -67.625        47.029
           -74.963        135.221       -17.817
            39.294         -6.799        59.022


 Diagonalized sT*s matrix:
 
 sDSO           277.507          280.939          257.532  iso=     271.993
 sPSO          -321.290         -218.165          -84.804  iso=    -208.087
        ---------------  ---------------  ---------------
 Total          -43.783           62.774          172.728  iso=      63.906

 Orientation: 
  X           0.8977744    0.0993297    0.4291093
  Y           0.3718523    0.3512239   -0.8592832
  Z          -0.2360658    0.9310077    0.2783838

 --------------
 Nucleus  54C :
 --------------

Diamagnetic contribution to the shielding tensor (ppm) : 
           258.745          5.983         0.599
            12.755        236.293         3.614
            -5.494        -10.619       253.179

Paramagnetic contribution to the shielding tensor (ppm): 
          -103.584        -11.891         9.276
           -18.028        -72.846       -10.205
            13.417         10.321       -97.204

Total shielding tensor (ppm): 
           155.161         -5.908         9.874
            -5.273        163.447        -6.591
             7.923         -0.298       155.974


 Diagonalized sT*s matrix:
 
 sDSO           260.466          246.444          241.306  iso=     249.405
 sPSO          -113.993          -88.722          -70.920  iso=     -91.211
        ---------------  ---------------  ---------------
 Total          146.473          157.722          170.386  iso=     158.194

 Orientation: 
  X          -0.7480247   -0.3903600    0.5367291
  Y          -0.1053930   -0.7285958   -0.6767869
  Z           0.6552491   -0.5628208    0.5038665

 --------------
 Nucleus  55C :
 --------------

Diamagnetic contribution to the shielding tensor (ppm) : 
           253.739          4.603        -2.764
            25.600        235.324         6.636
           -18.689         -4.177       240.624

Paramagnetic contribution to the shielding tensor (ppm): 
           -74.299         -1.231        -1.787
           -26.657        -55.769       -16.964
            14.708         -5.261       -59.417

Total shielding tensor (ppm): 
           179.439          3.373        -4.551
            -1.057        179.556       -10.328
            -3.982         -9.438       181.207


 Diagonalized sT*s matrix:
 
 sDSO           241.276          239.173          249.238  iso=     243.229
 sPSO           -71.289          -60.544          -57.652  iso=     -63.162
        ---------------  ---------------  ---------------
 Total          169.987          178.628          191.586  iso=     180.067

 Orientation: 
  X           0.2237321    0.9248829   -0.3074664
  Y           0.6882287   -0.3732910   -0.6220893
  Z           0.6901342    0.0724259    0.7200481

 --------------
 Nucleus  56C :
 --------------

Diamagnetic contribution to the shielding tensor (ppm) : 
           247.327          1.378         5.476
             4.743        232.897        -7.696
            14.979         -9.355       242.352

Paramagnetic contribution to the shielding tensor (ppm): 
           -91.087        -11.187         1.435
           -14.028        -70.555         1.952
            -8.210          5.508       -78.006

Total shielding tensor (ppm): 
           156.240         -9.809         6.911
            -9.286        162.342        -5.744
             6.769         -3.848       164.346


 Diagonalized sT*s matrix:
 
 sDSO           244.211          227.503          250.862  iso=     240.859
 sPSO           -95.519          -68.484          -75.645  iso=     -79.883
        ---------------  ---------------  ---------------
 Total          148.693          159.019          175.217  iso=     160.976

 Orientation: 
  X           0.8348353   -0.1775036    0.5210974
  Y           0.5090707    0.6091917   -0.6080563
  Z          -0.2095160    0.7729023    0.5989366

 --------------
 Nucleus  59C :
 --------------

Diamagnetic contribution to the shielding tensor (ppm) : 
           239.912          1.984       -10.702
            -5.593        238.216       -11.981
            13.322         -7.321       263.305

Paramagnetic contribution to the shielding tensor (ppm): 
           -62.203          6.425         5.374
            11.547        -66.132         2.801
           -23.723         -4.725       -85.837

Total shielding tensor (ppm): 
           177.709          8.409        -5.328
             5.954        172.084        -9.180
           -10.401        -12.046       177.468


 Diagonalized sT*s matrix:
 
 sDSO           237.691          250.580          253.162  iso=     247.144
 sPSO           -73.942          -80.139          -60.091  iso=     -71.391
        ---------------  ---------------  ---------------
 Total          163.749          170.441          193.072  iso=     175.754

 Orientation: 
  X          -0.1026752    0.8137752   -0.5720383
  Y           0.8108409   -0.2646432   -0.5220163
  Z           0.5761899    0.5174302    0.6326699

 --------------
 Nucleus  60C :
 --------------

Diamagnetic contribution to the shielding tensor (ppm) : 
           247.151          3.682        13.913
             5.085        218.633        10.324
            16.451          0.940       226.726

Paramagnetic contribution to the shielding tensor (ppm): 
           -63.318          4.414        -3.735
             5.660        -47.238        -9.149
            -0.780          2.609       -56.207

Total shielding tensor (ppm): 
           183.833          8.096        10.179
            10.746        171.394         1.175
            15.670          3.549       170.519


 Diagonalized sT*s matrix:
 
 sDSO           220.806          216.860          254.844  iso=     230.837
 sPSO           -59.342          -47.918          -59.503  iso=     -55.588
        ---------------  ---------------  ---------------
 Total          161.464          168.942          195.341  iso=     175.249

 Orientation: 
  X           0.5701685    0.0933815    0.8162033
  Y          -0.3801461   -0.8507637    0.3628912
  Z          -0.7282835    0.5171856    0.4495800



--------------------------------
CHEMICAL SHIELDING SUMMARY (ppm)
--------------------------------


  Nucleus  Element    Isotropic     Anisotropy
  -------  -------  ------------   ------------
      0       C           61.285        152.014 
      1       C          154.550         12.002 
      2       C          132.355         50.866 
      5       C           50.746        177.651 
      6       C          167.971         31.875 
      7       C          164.894         17.313 
     14       C           71.899        133.365 
     15       C           83.785        119.595 
     18       C           79.916        133.574 
     20       C           52.152        175.700 
     22       C          169.319          6.984 
     23       C          174.299         12.979 
     26       C          158.714         24.290 
     29       C          154.404         16.893 
     32       C          143.056         27.307 
     34       C          174.131         23.277 
     36       C          168.470         33.357 
     39       C          147.199         30.350 
     43       C          159.805         20.778 
     44       C          183.949         15.198 
     49       C          174.969         21.546 
     50       C           64.761        151.975 
     51       C           63.906        163.233 
     54       C          158.194         18.289 
     55       C          180.067         17.279 
     56       C          160.976         21.361 
     59       C          175.754         25.977 
     60       C          175.249         30.138 


NMR shielding tensor and spin rotation calculation done in   1.1 sec 

Maximum memory used throughout the entire PROP-calculation: 52.1 MB

--------------------------------
SUGGESTED CITATIONS FOR THIS RUN
--------------------------------

Below you find a list of papers that are relevant to this ORCA run
We neither can nor want to force you to cite these papers, but we appreciate if you do
You receive ORCA, which is the product of decades of hard work by many enthusiastic individuals, for free
The only thing we kindly ask in return is that you cite our papers,
We deeply appreciate it, if you show your appreciation for ORCA by not just citing the generic ORCA reference.

Please note that relegating all ORCA citations to the supporting information does *not* help us.
SI sections are not indexed - citations you put there will not count into any citation statistics
But we need these citations in order to attract the funding resources that allow us to do what we are doing

Therefore, if you are a happy ORCA user, please consider citing a few of the papers listed below in the main body of your paper

In addition to the list printed below, the program has created the file inpS.bibtex that contains the list in bibtex format
You can import this file easily into all common literature databanks and citation aid programs


List of essential papers. We consider these as the minimum necessary citations

  1. Neese,F.
     Software update: the ORCA program system, version 5.0
     WIRES Comput. Molec. Sci., 2022 12(1)e1606
     doi.org/10.1002/wcms.1606

List of papers to cite with high priority. The work reported in these papers was absolutely
necessary for this run to complete.
Our perspective: the developers of density functionals and basis sets usually get cited in chemistry papers
Good! But without the algorithms to do something with them, the functionals or basis sets would not do anything.
Hence, in our opinion, the algorithm design and method developments papers are equally worthy of getting cited

  1. Neese,F.
     An improvement of the resolution of the identity approximation for the formation of the Coulomb matrix
     J. Comp. Chem., 2003 24(14)1740-1747
     doi.org/10.1002/jcc.10318
  2. Neese,F.; Wennmohs,F.; Hansen,A.; Becker,U.
     Efficient, approximate and parallel Hartree-Fock and hybrid DFT calculations. A 'chain-of-spheres' algorithm for the Hartree-Fock exchange
     Chem. Phys., 2009 356(1-3)98-109
     doi.org/10.1016/j.chemphys.2008.10.036
  3. Stoychev,G.L.; Auer,A.A.; Izsak,R.; Neese,F.
     Self-Consistent Field Calculation of Nuclear Magnetic Resonance Chemical Shielding Constants Using Gauge-Including Atomic Orbitals and Approximate Two-Electron Integrals
     J. Chem. Theory Comput., 2018 14(2)619-637
     doi.org/10.1021/acs.jctc.7b01006
  4. Garcia-Rates,M.; Neese,F.
     Effect of the Solute Cavity on the Solvation Energy and its Derivatives within the Framework of the Gaussian Charge Scheme
     J. Comput. Chem., 2020 41 922-939
     doi.org/10.1002/jcc.26139
  5. Helmich-Paris,B.; de Souza,B.; Neese,F.; Izsák,R.
     An improved chain of spheres for exchange algorithm
     J. Chem. Phys., 2021 155 104109
     doi.org/doi: 10.1063/5.0058766.
  6. Neese,F.
     The SHARK Integral Generation and Digestion System
     J. Comp. Chem., 2022  1-16
     doi.org/10.1002/jcc.26942
  7. Caldeweyher,E.; Bannwarth,C.; Grimme,S.
     Extension of the D3 dispersion coefficient model
     J. Chem. Phys., 2017 147 034112-XXXX
     doi.org/10.1063/1.4993215
  8. Caldeweyher,E.; Ehlert,S.; Hansen,A.; Neugebauer,H.; Spicher,S.; Bannwarth,C.; Grimme,S.
     A generally applicable atomic-charge dependent London dispersion correction
     J. Chem. Phys., 2019 150 154122-XXXX
     doi.org/10.1063/1.5090222
  9. Caldeweyher,E.; Mewes,J.; Ehlert,S.; Grimme,S.
     Extension and evaluation of the D4 London-dispersion model for periodic systems
     Phys. Chem. Chem. Phys., 2020 22(16)8499-8512
     doi.org/10.1039/D0CP00502A

List of suggested additional citations. These are papers that are important in the 'surrounding' of 
of this run, or papers that preceded the highly important papers. If you like your results we are grateful for a citation.

  1. Izsak,R.; Neese,F.
     An overlap fitted chain of spheres exchange method
     J. Chem. Phys., 2011 135 144105
     doi.org/10.1063/1.3646921
  2. Izsak,R.; Hansen,A.; Neese,F.
     The resolution of identity and chain of spheres approximations for the LPNO-CCSD singles Fock term
     Molec. Phys., 2012 110 2413-2417
     doi.org/10.1080/00268976.2012.687466
  3. Neese,F.
     The ORCA program system
     WIRES Comput. Molec. Sci., 2012 2(1)73-78
     doi.org/10.1002/wcms.81
  4. Izsak,R.; Neese,F.; Klopper,W.
     Robust fitting techniques in the chain of spheres approximation to the Fock exchange: The role of the complementary space
     J. Chem. Phys., 2013 139 
     doi.org/10.1063/1.4819264
  5. Neese,F.
     Software update: the ORCA program system, version 4.0
     WIRES Comput. Molec. Sci., 2018 8(1)1-6
     doi.org/10.1002/wcms.1327
  6. Neese,F.; Wennmohs,F.; Becker,U.; Riplinger,C.
     The ORCA quantum chemistry program package
     J. Chem. Phys., 2020 152 Art. No. L224108
     doi.org/10.1063/5.0004608

Timings for individual modules:

Sum of individual times          ...      178.871 sec (=   2.981 min)
Startup calculation              ...        4.575 sec (=   0.076 min)   2.6 %
SCF iterations                   ...       71.954 sec (=   1.199 min)  40.2 %
Property integrals               ...       60.968 sec (=   1.016 min)  34.1 %
SCF Response                     ...       40.029 sec (=   0.667 min)  22.4 %
Property calculations            ...        1.344 sec (=   0.022 min)   0.8 %
                             ****ORCA TERMINATED NORMALLY****
TOTAL RUN TIME: 0 days 0 hours 2 minutes 59 seconds 156 msec
