
                                 *****************
                                 * O   R   C   A *
                                 *****************

                                            #,                                       
                                            ###                                      
                                            ####                                     
                                            #####                                    
                                            ######                                   
                                           ########,                                 
                                     ,,################,,,,,                         
                               ,,#################################,,                 
                          ,,##########################################,,             
                       ,#########################################, ''#####,          
                    ,#############################################,,   '####,        
                  ,##################################################,,,,####,       
                ,###########''''           ''''###############################       
              ,#####''   ,,,,##########,,,,          '''####'''          '####       
            ,##' ,,,,###########################,,,                        '##       
           ' ,,###''''                  '''############,,,                           
         ,,##''                                '''############,,,,        ,,,,,,###''
      ,#''                                            '''#######################'''  
     '                                                          ''''####''''         
             ,#######,   #######,   ,#######,      ##                                
            ,#'     '#,  ##    ##  ,#'     '#,    #''#        ######   ,####,        
            ##       ##  ##   ,#'  ##            #'  '#       #        #'  '#        
            ##       ##  #######   ##           ,######,      #####,   #    #        
            '#,     ,#'  ##    ##  '#,     ,#' ,#      #,         ##   #,  ,#        
             '#######'   ##     ##  '#######'  #'      '#     #####' # '####'        



                  #######################################################
                  #                        -***-                        #
                  #          Department of theory and spectroscopy      #
                  #    Directorship and core code : Frank Neese         #
                  #        Max Planck Institute fuer Kohlenforschung    #
                  #                Kaiser Wilhelm Platz 1               #
                  #                 D-45470 Muelheim/Ruhr               #
                  #                      Germany                        #
                  #                                                     #
                  #                  All rights reserved                #
                  #                        -***-                        #
                  #######################################################


                         Program Version 5.0.2 -  RELEASE  -


 With contributions from (in alphabetic order):
   Daniel Aravena         : Magnetic Suceptibility
   Michael Atanasov       : Ab Initio Ligand Field Theory (pilot matlab implementation)
   Alexander A. Auer      : GIAO ZORA, VPT2 properties, NMR spectrum
   Ute Becker             : Parallelization
   Giovanni Bistoni       : ED, misc. LED, open-shell LED, HFLD
   Martin Brehm           : Molecular dynamics
   Dmytro Bykov           : SCF Hessian
   Vijay G. Chilkuri      : MRCI spin determinant printing, contributions to CSF-ICE
   Dipayan Datta          : RHF DLPNO-CCSD density
   Achintya Kumar Dutta   : EOM-CC, STEOM-CC
   Dmitry Ganyushin       : Spin-Orbit,Spin-Spin,Magnetic field MRCI
   Miquel Garcia          : C-PCM and meta-GGA Hessian, CC/C-PCM, Gaussian charge scheme
   Yang Guo               : DLPNO-NEVPT2, F12-NEVPT2, CIM, IAO-localization
   Andreas Hansen         : Spin unrestricted coupled pair/coupled cluster methods
   Benjamin Helmich-Paris : MC-RPA, TRAH-SCF, COSX integrals
   Lee Huntington         : MR-EOM, pCC
   Robert Izsak           : Overlap fitted RIJCOSX, COSX-SCS-MP3, EOM
   Marcus Kettner         : VPT2
   Christian Kollmar      : KDIIS, OOCD, Brueckner-CCSD(T), CCSD density, CASPT2, CASPT2-K
   Simone Kossmann        : Meta GGA functionals, TD-DFT gradient, OOMP2, MP2 Hessian
   Martin Krupicka        : Initial AUTO-CI
   Lucas Lang             : DCDCAS
   Marvin Lechner         : AUTO-CI (C++ implementation), FIC-MRCC
   Dagmar Lenk            : GEPOL surface, SMD
   Dimitrios Liakos       : Extrapolation schemes; Compound Job, initial MDCI parallelization
   Dimitrios Manganas     : Further ROCIS development; embedding schemes
   Dimitrios Pantazis     : SARC Basis sets
   Anastasios Papadopoulos: AUTO-CI, single reference methods and gradients
   Taras Petrenko         : DFT Hessian,TD-DFT gradient, ASA, ECA, R-Raman, ABS, FL, XAS/XES, NRVS
   Peter Pinski           : DLPNO-MP2, DLPNO-MP2 Gradient
   Christoph Reimann      : Effective Core Potentials
   Marius Retegan         : Local ZFS, SOC
   Christoph Riplinger    : Optimizer, TS searches, QM/MM, DLPNO-CCSD(T), (RO)-DLPNO pert. Triples
   Tobias Risthaus        : Range-separated hybrids, TD-DFT gradient, RPA, STAB
   Michael Roemelt        : Original ROCIS implementation
   Masaaki Saitow         : Open-shell DLPNO-CCSD energy and density
   Barbara Sandhoefer     : DKH picture change effects
   Avijit Sen             : IP-ROCIS
   Kantharuban Sivalingam : CASSCF convergence, NEVPT2, FIC-MRCI
   Bernardo de Souza      : ESD, SOC TD-DFT
   Georgi Stoychev        : AutoAux, RI-MP2 NMR, DLPNO-MP2 response
   Willem Van den Heuvel  : Paramagnetic NMR
   Boris Wezisla          : Elementary symmetry handling
   Frank Wennmohs         : Technical directorship


 We gratefully acknowledge several colleagues who have allowed us to
 interface, adapt or use parts of their codes:
   Stefan Grimme, W. Hujo, H. Kruse, P. Pracht,  : VdW corrections, initial TS optimization,
                  C. Bannwarth, S. Ehlert          DFT functionals, gCP, sTDA/sTD-DF
   Ed Valeev, F. Pavosevic, A. Kumar             : LibInt (2-el integral package), F12 methods
   Garnet Chan, S. Sharma, J. Yang, R. Olivares  : DMRG
   Ulf Ekstrom                                   : XCFun DFT Library
   Mihaly Kallay                                 : mrcc  (arbitrary order and MRCC methods)
   Jiri Pittner, Ondrej Demel                    : Mk-CCSD
   Frank Weinhold                                : gennbo (NPA and NBO analysis)
   Christopher J. Cramer and Donald G. Truhlar   : smd solvation model
   Lars Goerigk                                  : TD-DFT with DH, B97 family of functionals
   V. Asgeirsson, H. Jonsson                     : NEB implementation
   FAccTs GmbH                                   : IRC, NEB, NEB-TS, DLPNO-Multilevel, CI-OPT
                                                   MM, QMMM, 2- and 3-layer-ONIOM, Crystal-QMMM,
                                                   LR-CPCM, SF, NACMEs, symmetry and pop. for TD-DFT,
                                                   nearIR, NL-DFT gradient (VV10), updates on ESD,
                                                   ML-optimized integration grids
   S Lehtola, MJT Oliveira, MAL Marques          : LibXC Library
   Liviu Ungur et al                             : ANISO software


 Your calculation uses the libint2 library for the computation of 2-el integrals
 For citations please refer to: http://libint.valeyev.net

 Your ORCA version has been built with support for libXC version: 5.1.0
 For citations please refer to: https://tddft.org/programs/libxc/

 This ORCA versions uses:
   CBLAS   interface :  Fast vector & matrix operations
   LAPACKE interface :  Fast linear algebra routines
   SCALAPACK package :  Parallel linear algebra routines
   Shared memory     :  Shared parallel matrices
   BLAS/LAPACK       :  OpenBLAS 0.3.15  USE64BITINT DYNAMIC_ARCH NO_AFFINITY Zen SINGLE_THREADED
        Core in use  :  Zen
   Copyright (c) 2011-2014, The OpenBLAS Project


Your calculation utilizes the atom-pairwise dispersion correction
based on tight binding partial charges (D4)
Cite in your paper:
E.Caldeweyher, C.Bannwarth, S.Grimme, J.Chem.Phys., (2017), 147, 034112.
E.Caldeweyher, S.Ehlert, A.Hansen, H.Neugebauer, S.Grimme, J.Chem.Phys., (2018), in progress.
   

================================================================================

----- Orbital basis set information -----
Your calculation utilizes the basis: pcJ-0
   F. Jensen, Theor. Chem. Acc. 126, 371 (2010).

----- AuxJ basis set information -----
Your calculation utilizes the auxiliary basis: def2/J
   F. Weigend, Phys. Chem. Chem. Phys. 8, 1057 (2006).

================================================================================
                                        WARNINGS
                       Please study these warnings very carefully!
================================================================================


INFO   : the flag for use of the SHARK integral package has been found!

================================================================================
                                       INPUT FILE
================================================================================
NAME = inpJ
|  1> ! pbe0
|  2> ! D4
|  3> ! pcJ-0
|  4> ! def2/J RIJCOSX
|  5> ! DEFGRID2
|  6> ! scfconv7
|  7> ! smallprint printgap noloewdin
|  8> ! NOSOSCF
|  9> %MaxCore 4000
| 10> %output
| 11>        print[P_BondOrder_M] 1
| 12>        print[P_Mayer] 1
| 13>        print[P_basis] 2
| 14> end
| 15> %pal
| 16>     nprocs 4
| 17> end
| 18> ! CPCM(chloroform)
| 19> *xyz 0 1
| 20> C   -4.9393731800   0.3083710100   0.4115522600
| 21> C   -6.3600852000  -0.1012572000   0.1024409200
| 22> C   -6.9357128700   0.6900468900  -1.0783422700
| 23> H   -6.9997380300   0.1062365100   0.9771863300
| 24> H   -6.4166440000  -1.1755179500  -0.1050124900
| 25> C   -4.7452727300   1.7673343500   0.5499205700
| 26> C   -5.3640751400   2.5889943900  -0.5583959600
| 27> C   -6.8226752600   2.1877072700  -0.8170008800
| 28> H   -4.7879839800   2.4175231100  -1.4804076100
| 29> H   -5.2932004400   3.6561278800  -0.3229095100
| 30> H   -7.2233831000   2.7435327700  -1.6728678900
| 31> H   -7.4360834200   2.4392210800   0.0613894100
| 32> O   -8.2861604800   0.2975200900  -1.3570621900
| 33> H   -6.3743966400   0.4351575900  -1.9881846700
| 34> C   -3.9536685500  -0.6160350600   0.4991335600
| 35> C   -4.1166744600   2.3310277700   1.5878787500
| 36> H   -3.7004291700   1.7303058900   2.3917836300
| 37> H   -4.0151746000   3.4112938000   1.6602470400
| 38> C   -2.5459976000  -0.3554083600   0.6917155600
| 39> H   -4.2565316000  -1.6541545500   0.3694494200
| 40> C   -1.5751053500  -1.2798328200   0.8544144300
| 41> H   -2.2520805300   0.6917269200   0.6928950300
| 42> C   -1.7835811500  -2.7712730000   0.9261327700
| 43> C   -0.8803233500  -3.5228696200  -0.0693379100
| 44> H   -2.8279943200  -3.0532201200   0.7671121500
| 45> H   -1.5189844500  -3.0988862200   1.9443518900
| 46> C    0.5933192800  -3.1073838900   0.0381783200
| 47> H   -1.2425726600  -3.3411431100  -1.0890959400
| 48> H   -0.9709784500  -4.6019115800   0.1058066800
| 49> C    0.7693328700  -1.5876089200  -0.0907968900
| 50> H    1.1686952000  -3.6421461600  -0.7242941300
| 51> H    0.9878036700  -3.4207253700   1.0166042600
| 52> C   -0.1279726500  -0.9205869400   0.9999925100
| 53> H    0.2100400000  -1.3748595500   1.9498275200
| 54> C    0.3228019700   0.5364462200   1.0154790000
| 55> H   -8.8188124300   0.5123207500  -0.5796104300
| 56> C    1.8458416300   0.4482483300   0.7492029600
| 57> H    0.0846143600   1.0317831400   1.9626065400
| 58> H   -0.1723185900   1.1047121300   0.2202120400
| 59> C    2.1541235300  -1.0221498100   0.3324803900
| 60> H    2.4293523800   0.7298608800   1.6317185700
| 61> H    2.1360077400   1.1383067600  -0.0522708100
| 62> H    2.4579470000  -1.5823462800   1.2315861500
| 63> C    3.3357116900  -1.1108591000  -0.6641980200
| 64> C    0.3832515600  -1.1032549000  -1.4944205100
| 65> H   -0.6868703500  -1.2343955500  -1.6819315000
| 66> H    0.9313273100  -1.6626887500  -2.2605724100
| 67> H    0.6107756200  -0.0414469900  -1.6321858600
| 68> H    3.0513693700  -0.5246412900  -1.5536104800
| 69> C    3.6440781700  -2.5394572100  -1.1114823800
| 70> C    4.5308248000  -0.4220079200  -0.0485234600
| 71> C    5.6471998000  -1.0018503200   0.3914753000
| 72> H    4.4362085300   0.6580957600   0.0779383000
| 73> H    5.7796297400  -2.0818892100   0.2915728400
| 74> C    6.7923537300  -0.2792490100   1.0453332900
| 75> C    8.0715627800  -0.5038849400   0.2243565800
| 76> C    6.9541493100  -0.7298823000   2.5196978200
| 77> H    6.5641688000   0.7986481800   1.0535426000
| 78> H    7.1160326100  -1.8201331400   2.5112758900
| 79> C    5.6847520600  -0.4366453600   3.3242956900
| 80> C    8.1598419700  -0.0702948600   3.1954898200
| 81> H    7.8989327000  -0.2502432800  -0.8267186300
| 82> H    8.3791825800  -1.5562732500   0.2711784100
| 83> H    8.9015297200   0.1097107900   0.5864019400
| 84> H    5.7966036000  -0.7684647100   4.3623923000
| 85> H    4.8099195700  -0.9345016700   2.8952253000
| 86> H    5.4826863800   0.6425802900   3.3358496100
| 87> H    8.0846726300   1.0231526500   3.1320469500
| 88> H    9.1087838700  -0.3721482800   2.7433547700
| 89> H    8.1972684000  -0.3409743000   4.2565031800
| 90> H    4.5705762100  -2.5688633100  -1.6950020000
| 91> H    2.8431773900  -2.9359241200  -1.7389528600
| 92> H    3.7624474100  -3.2102578500  -0.2524259300
| 93> *
| 94> %eprnmr
| 95>  Nuclei = all H { ssfc }
| 96>  SpinSpinRThresh 8.0
| 97> end
| 98> 
| 99>                          ****END OF INPUT****
================================================================================

                       ****************************
                       * Single Point Calculation *
                       ****************************

---------------------------------
CARTESIAN COORDINATES (ANGSTROEM)
---------------------------------
  C     -4.939373    0.308371    0.411552
  C     -6.360085   -0.101257    0.102441
  C     -6.935713    0.690047   -1.078342
  H     -6.999738    0.106237    0.977186
  H     -6.416644   -1.175518   -0.105012
  C     -4.745273    1.767334    0.549921
  C     -5.364075    2.588994   -0.558396
  C     -6.822675    2.187707   -0.817001
  H     -4.787984    2.417523   -1.480408
  H     -5.293200    3.656128   -0.322910
  H     -7.223383    2.743533   -1.672868
  H     -7.436083    2.439221    0.061389
  O     -8.286160    0.297520   -1.357062
  H     -6.374397    0.435158   -1.988185
  C     -3.953669   -0.616035    0.499134
  C     -4.116674    2.331028    1.587879
  H     -3.700429    1.730306    2.391784
  H     -4.015175    3.411294    1.660247
  C     -2.545998   -0.355408    0.691716
  H     -4.256532   -1.654155    0.369449
  C     -1.575105   -1.279833    0.854414
  H     -2.252081    0.691727    0.692895
  C     -1.783581   -2.771273    0.926133
  C     -0.880323   -3.522870   -0.069338
  H     -2.827994   -3.053220    0.767112
  H     -1.518984   -3.098886    1.944352
  C      0.593319   -3.107384    0.038178
  H     -1.242573   -3.341143   -1.089096
  H     -0.970978   -4.601912    0.105807
  C      0.769333   -1.587609   -0.090797
  H      1.168695   -3.642146   -0.724294
  H      0.987804   -3.420725    1.016604
  C     -0.127973   -0.920587    0.999993
  H      0.210040   -1.374860    1.949828
  C      0.322802    0.536446    1.015479
  H     -8.818812    0.512321   -0.579610
  C      1.845842    0.448248    0.749203
  H      0.084614    1.031783    1.962607
  H     -0.172319    1.104712    0.220212
  C      2.154124   -1.022150    0.332480
  H      2.429352    0.729861    1.631719
  H      2.136008    1.138307   -0.052271
  H      2.457947   -1.582346    1.231586
  C      3.335712   -1.110859   -0.664198
  C      0.383252   -1.103255   -1.494421
  H     -0.686870   -1.234396   -1.681931
  H      0.931327   -1.662689   -2.260572
  H      0.610776   -0.041447   -1.632186
  H      3.051369   -0.524641   -1.553610
  C      3.644078   -2.539457   -1.111482
  C      4.530825   -0.422008   -0.048523
  C      5.647200   -1.001850    0.391475
  H      4.436209    0.658096    0.077938
  H      5.779630   -2.081889    0.291573
  C      6.792354   -0.279249    1.045333
  C      8.071563   -0.503885    0.224357
  C      6.954149   -0.729882    2.519698
  H      6.564169    0.798648    1.053543
  H      7.116033   -1.820133    2.511276
  C      5.684752   -0.436645    3.324296
  C      8.159842   -0.070295    3.195490
  H      7.898933   -0.250243   -0.826719
  H      8.379183   -1.556273    0.271178
  H      8.901530    0.109711    0.586402
  H      5.796604   -0.768465    4.362392
  H      4.809920   -0.934502    2.895225
  H      5.482686    0.642580    3.335850
  H      8.084673    1.023153    3.132047
  H      9.108784   -0.372148    2.743355
  H      8.197268   -0.340974    4.256503
  H      4.570576   -2.568863   -1.695002
  H      2.843177   -2.935924   -1.738953
  H      3.762447   -3.210258   -0.252426

----------------------------
CARTESIAN COORDINATES (A.U.)
----------------------------
  NO LB      ZA    FRAG     MASS         X           Y           Z
   0 C     6.0000    0    12.011   -9.334063    0.582737    0.777721
   1 C     6.0000    0    12.011  -12.018819   -0.191348    0.193585
   2 C     6.0000    0    12.011  -13.106598    1.304000   -2.037772
   3 H     1.0000    0     1.008  -13.227588    0.200758    1.846615
   4 H     1.0000    0     1.008  -12.125700   -2.221407   -0.198445
   5 C     6.0000    0    12.011   -8.967266    3.339778    1.039199
   6 C     6.0000    0    12.011  -10.136633    4.892490   -1.055215
   7 C     6.0000    0    12.011  -12.892988    4.134168   -1.543908
   8 H     1.0000    0     1.008   -9.047978    4.568457   -2.797565
   9 H     1.0000    0     1.008  -10.002699    6.909080   -0.610211
  10 H     1.0000    0     1.008  -13.650216    5.184526   -3.161262
  11 H     1.0000    0     1.008  -14.052161    4.609460    0.116009
  12 O     8.0000    0    15.999  -15.658574    0.562231   -2.564476
  13 H     1.0000    0     1.008  -12.045864    0.822329   -3.757125
  14 C     6.0000    0    12.011   -7.471351   -1.164138    0.943226
  15 C     6.0000    0    12.011   -7.779387    4.405004    3.000656
  16 H     1.0000    0     1.008   -6.992798    3.269804    4.519816
  17 H     1.0000    0     1.008   -7.587580    6.446411    3.137412
  18 C     6.0000    0    12.011   -4.811238   -0.671624    1.307153
  19 H     1.0000    0     1.008   -8.043679   -3.125899    0.698158
  20 C     6.0000    0    12.011   -2.976518   -2.418534    1.614609
  21 H     1.0000    0     1.008   -4.255815    1.307174    1.309382
  22 C     6.0000    0    12.011   -3.370480   -5.236947    1.750137
  23 C     6.0000    0    12.011   -1.663570   -6.657259   -0.131030
  24 H     1.0000    0     1.008   -5.344135   -5.769750    1.449632
  25 H     1.0000    0     1.008   -2.870465   -5.856046    3.674293
  26 C     6.0000    0    12.011    1.121211   -5.872105    0.072147
  27 H     1.0000    0     1.008   -2.348122   -6.313845   -2.058093
  28 H     1.0000    0     1.008   -1.834883   -8.696353    0.199946
  29 C     6.0000    0    12.011    1.453828   -3.000146   -0.171581
  30 H     1.0000    0     1.008    2.208514   -6.882659   -1.368718
  31 H     1.0000    0     1.008    1.866678   -6.464234    1.921104
  32 C     6.0000    0    12.011   -0.241833   -1.739657    1.889712
  33 H     1.0000    0     1.008    0.396918   -2.598108    3.684640
  34 C     6.0000    0    12.011    0.610007    1.013736    1.918977
  35 H     1.0000    0     1.008  -16.665140    0.968146   -1.095305
  36 C     6.0000    0    12.011    3.488135    0.847067    1.415788
  37 H     1.0000    0     1.008    0.159898    1.949788    3.708789
  38 H     1.0000    0     1.008   -0.325635    2.087603    0.416140
  39 C     6.0000    0    12.011    4.070704   -1.931583    0.628297
  40 H     1.0000    0     1.008    4.590811    1.379237    3.083501
  41 H     1.0000    0     1.008    4.036470    2.151088   -0.098778
  42 H     1.0000    0     1.008    4.644847   -2.990201    2.327361
  43 C     6.0000    0    12.011    6.303582   -2.099219   -1.255152
  44 C     6.0000    0    12.011    0.724240   -2.084850   -2.824045
  45 H     1.0000    0     1.008   -1.297997   -2.332670   -3.178390
  46 H     1.0000    0     1.008    1.759954   -3.142026   -4.271863
  47 H     1.0000    0     1.008    1.154199   -0.078323   -3.084384
  48 H     1.0000    0     1.008    5.766252   -0.991428   -2.935898
  49 C     6.0000    0    12.011    6.886310   -4.798879   -2.100397
  50 C     6.0000    0    12.011    8.562018   -0.797479   -0.091696
  51 C     6.0000    0    12.011   10.671661   -1.893223    0.739781
  52 H     1.0000    0     1.008    8.383219    1.243621    0.147282
  53 H     1.0000    0     1.008   10.921917   -3.934200    0.550993
  54 C     6.0000    0    12.011   12.835688   -0.527704    1.975394
  55 C     6.0000    0    12.011   15.253043   -0.952205    0.423972
  56 C     6.0000    0    12.011   13.141438   -1.379278    4.761539
  57 H     1.0000    0     1.008   12.404481    1.509226    1.990907
  58 H     1.0000    0     1.008   13.447353   -3.439553    4.745624
  59 C     6.0000    0    12.011   10.742625   -0.825140    6.282008
  60 C     6.0000    0    12.011   15.419867   -0.132838    6.038601
  61 H     1.0000    0     1.008   14.926820   -0.472891   -1.562272
  62 H     1.0000    0     1.008   15.834360   -2.940930    0.512453
  63 H     1.0000    0     1.008   16.821453    0.207323    1.108139
  64 H     1.0000    0     1.008   10.953993   -1.452188    8.243727
  65 H     1.0000    0     1.008    9.089431   -1.765952    5.471183
  66 H     1.0000    0     1.008   10.360776    1.214301    6.303842
  67 H     1.0000    0     1.008   15.277817    1.933478    5.918711
  68 H     1.0000    0     1.008   17.213107   -0.703258    5.184189
  69 H     1.0000    0     1.008   15.490592   -0.644348    8.043625
  70 H     1.0000    0     1.008    8.637137   -4.854448   -3.203090
  71 H     1.0000    0     1.008    5.372827   -5.548093   -3.286145
  72 H     1.0000    0     1.008    7.109995   -6.066508   -0.477016

--------------------------------
INTERNAL COORDINATES (ANGSTROEM)
--------------------------------
 C      0   0   0     0.000000000000     0.00000000     0.00000000
 C      1   0   0     1.510552129096     0.00000000     0.00000000
 C      2   1   0     1.533544364897   111.75687916     0.00000000
 H      2   1   3     1.103353485939   109.39159872   241.43788546
 H      2   1   3     1.095569246633   110.68359941   122.87971893
 C      1   2   3     1.478308087432   114.22197936    50.39386386
 C      6   1   2     1.512087026142   114.45296013   312.17459566
 C      3   2   1     1.524487926231   110.30938856   305.02244076
 H      7   6   1     1.100631140406   108.37040071   289.88875049
 H      7   6   1     1.095103180853   110.20714159   172.70071216
 H      8   3   2     1.096365403638   109.70180939   179.18125037
 H      8   3   2     1.100499099928   108.66438790   296.64753621
 O      3   2   1     1.433691330056   111.22170263   180.31495265
 H      3   2   1     1.099025776838   109.02906734    65.15441495
 C      1   2   3     1.354182662703   120.84552597   232.51990363
 C      6   1   2     1.337999716079   123.37232223   129.96375461
 H     16   6   1     1.086457534672   121.40307215     0.64876080
 H     16   6   1     1.087434635530   120.93032987   181.35150717
 C     15   1   2     1.444490085446   126.49834421   175.24532749
 H     15   1   2     1.089144654645   116.13832906   357.93536654
 C     19  15   1     1.350430770405   126.38275397   175.97420096
 H     19  15   1     1.087603296155   115.92625055   355.26837067
 C     21  19  15     1.507647004440   125.69690346   357.17662163
 C     23  21  19     1.540043508215   111.77350650   127.72277622
 H     23  21  19     1.093426086085   112.34898497     3.63176197
 H     23  21  19     1.101867511048   107.75107246   246.40313531
 C     24  23  21     1.534865053515   112.68905470    50.90476097
 H     24  23  21     1.097340205580   109.04142869   288.83481554
 H     24  23  21     1.096916371472   109.17177293   172.85296825
 C     27  24  23     1.535360331680   111.84725686   306.14391982
 H     27  24  23     1.094711090535   108.88115898   182.60725174
 H     27  24  23     1.100508126779   109.23009384    66.12860180
 C     21  19  15     1.498146732160   122.82177491   177.75034472
 H     33  21  19     1.105804097468   106.27334931   124.12682439
 C     33  21  19     1.525248576052   121.03313607     1.96585709
 H     13   3   2     0.966586086442   107.56930369    62.73940643
 C     35  33  21     1.548654772120   103.56235381   196.49050228
 H     35  33  21     1.095053687679   112.12371113    74.52867208
 H     35  33  21     1.095682459050   110.76435877   314.88740233
 C     30  27  24     1.554526562291   116.05968996   166.08226554
 H     37  35  33     1.094816982686   111.77189981   248.93774933
 H     37  35  33     1.096693764095   110.48897340   130.36515167
 H     40  30  27     1.102052609265   106.42914107   320.44382621
 C     40  30  27     1.548350015644   118.92671318    80.65721435
 C     30  27  24     1.534215389456   111.13095758   294.16321892
 H     45  30  27     1.094312178364   111.40861123    66.38130208
 H     45  30  27     1.095601202143   110.65159356   306.28075927
 H     45  30  27     1.094615241662   111.65870299   186.38339692
 H     44  40  30     1.102522743397   106.97805076    61.67095672
 C     44  40  30     1.528412818771   113.32175511   302.46613076
 C     44  40  30     1.510584806528   108.37724432   176.59037459
 C     51  44  40     1.332707491637   126.79041698   110.23388061
 H     51  44  40     1.091590021409   115.45866765   292.86457295
 H     52  51  44     1.092704074503   120.09133181     2.22107062
 C     52  51  44     1.503682296130   124.91954688   182.40323155
 C     55  52  51     1.536502474131   109.35630772   239.30696499
 C     55  52  51     1.550160939737   110.69331625   115.12151924
 H     55  52  51     1.101815822749   108.39961604   357.57927713
 H     57  55  52     1.102235921137   107.19364018    58.17525913
 C     57  55  52     1.531252759572   110.95066590   300.02662673
 C     57  55  52     1.531484641989   112.12691285   176.88368262
 H     56  55  52     1.094940333208   110.35172334    52.25965807
 H     56  55  52     1.097425797100   110.53467829   292.98909409
 H     56  55  52     1.093810625321   111.89175358   172.41995308
 H     60  57  55     1.095563516976   110.80886365   179.22444223
 H     60  57  55     1.094209390629   111.69176198    58.27554391
 H     60  57  55     1.098040088393   110.26138637   298.55249477
 H     61  57  55     1.097862871471   110.45977562    56.16155817
 H     61  57  55     1.093632625784   112.44576109   295.32436148
 H     61  57  55     1.095635636058   110.35360030   175.16681215
 H     50  44  40     1.095334872889   110.58841533   188.25428313
 H     50  44  40     1.091946552447   111.07290995    68.69211067
 H     50  44  40     1.096340622202   111.36890827   308.40040954

---------------------------
INTERNAL COORDINATES (A.U.)
---------------------------
 C      0   0   0     0.000000000000     0.00000000     0.00000000
 C      1   0   0     2.854529835003     0.00000000     0.00000000
 C      2   1   0     2.897978863873   111.75687916     0.00000000
 H      2   1   3     2.085035917331   109.39159872   241.43788546
 H      2   1   3     2.070325836883   110.68359941   122.87971893
 C      1   2   3     2.793597426807   114.22197936    50.39386386
 C      6   1   2     2.857430370063   114.45296013   312.17459566
 C      3   2   1     2.880864675046   110.30938856   305.02244076
 H      7   6   1     2.079891429832   108.37040071   289.88875049
 H      7   6   1     2.069445100197   110.20714159   172.70071216
 H      8   3   2     2.071830355582   109.70180939   179.18125037
 H      8   3   2     2.079641909490   108.66438790   296.64753621
 O      3   2   1     2.709283974383   111.22170263   180.31495265
 H      3   2   1     2.076857732343   109.02906734    65.15441495
 C      1   2   3     2.559034367813   120.84552597   232.51990363
 C      6   1   2     2.528453030654   123.37232223   129.96375461
 H     16   6   1     2.053107196665   121.40307215     0.64876080
 H     16   6   1     2.054953649692   120.93032987   181.35150717
 C     15   1   2     2.729690664657   126.49834421   175.24532749
 H     15   1   2     2.058185117502   116.13832906   357.93536654
 C     19  15   1     2.551944318885   126.38275397   175.97420096
 H     19  15   1     2.055272372083   115.92625055   355.26837067
 C     21  19  15     2.849039945018   125.69690346   357.17662163
 C     23  21  19     2.910260464850   111.77350650   127.72277622
 H     23  21  19     2.066275850386   112.34898497     3.63176197
 H     23  21  19     2.082227831746   107.75107246   246.40313531
 C     24  23  21     2.900474603669   112.68905470    50.90476097
 H     24  23  21     2.073672464287   109.04142869   288.83481554
 H     24  23  21     2.072871533896   109.17177293   172.85296825
 C     27  24  23     2.901410543762   111.84725686   306.14391982
 H     27  24  23     2.068704156877   108.88115898   182.60725174
 H     27  24  23     2.079658967767   109.23009384    66.12860180
 C     21  19  15     2.831087032212   122.82177491   177.75034472
 H     33  21  19     2.089666901983   106.27334931   124.12682439
 C     33  21  19     2.882302094891   121.03313607     1.96585709
 H     13   3   2     1.826582988233   107.56930369    62.73940643
 C     35  33  21     2.926533395298   103.56235381   196.49050228
 H     35  33  21     2.069351571654   112.12371113    74.52867208
 H     35  33  21     2.070539777346   110.76435877   314.88740233
 C     30  27  24     2.937629470637   116.05968996   166.08226554
 H     37  35  33     2.068904264042   111.77189981   248.93774933
 H     37  35  33     2.072450866919   110.48897340   130.36515167
 H     40  30  27     2.082577616685   106.42914107   320.44382621
 C     40  30  27     2.925957489020   118.92671318    80.65721435
 C     30  27  24     2.899246916519   111.13095758   294.16321892
 H     45  30  27     2.067950322122   111.40861123    66.38130208
 H     45  30  27     2.070386224045   110.65159356   306.28075927
 H     45  30  27     2.068523028757   111.65870299   186.38339692
 H     44  40  30     2.083466041440   106.97805076    61.67095672
 C     44  40  30     2.888281647052   113.32175511   302.46613076
 C     44  40  30     2.854591586400   108.37724432   176.59037459
 C     51  44  40     2.518452175818   126.79041698   110.23388061
 H     51  44  40     2.062806190985   115.45866765   292.86457295
 H     52  51  44     2.064911446230   120.09133181     2.22107062
 C     52  51  44     2.841547732112   124.91954688   182.40323155
 C     55  52  51     2.903568880200   109.35630772   239.30696499
 C     55  52  51     2.929379639605   110.69331625   115.12151924
 H     55  52  51     2.082130155016   108.39961604   357.57927713
 H     57  55  52     2.082924025919   107.19364018    58.17525913
 C     57  55  52     2.893648357402   110.95066590   300.02662673
 C     57  55  52     2.894086551665   112.12691285   176.88368262
 H     56  55  52     2.069137362747   110.35172334    52.25965807
 H     56  55  52     2.073834208820   110.53467829   292.98909409
 H     56  55  52     2.067002524229   111.89175358   172.41995308
 H     60  57  55     2.070315009400   110.80886365   179.22444223
 H     60  57  55     2.067756081454   111.69176198    58.27554391
 H     60  57  55     2.074995051130   110.26138637   298.55249477
 H     61  57  55     2.074660159681   110.45977562    56.16155817
 H     61  57  55     2.066666153853   112.44576109   295.32436148
 H     61  57  55     2.070451294714   110.35360030   175.16681215
 H     50  44  40     2.069882934693   110.58841533   188.25428313
 H     50  44  40     2.063479937004   111.07290995    68.69211067
 H     50  44  40     2.071783525454   111.36890827   308.40040954

---------------------
BASIS SET INFORMATION
---------------------
There are 3 groups of distinct atoms

 Group   1 Type C   : 7s4p contracted to 4s3p pattern {4111/211}
 Group   2 Type H   : 5s contracted to 3s pattern {311}
 Group   3 Type O   : 7s4p contracted to 4s3p pattern {4111/211}

Atom   0C    basis set group =>   1
Atom   1C    basis set group =>   1
Atom   2C    basis set group =>   1
Atom   3H    basis set group =>   2
Atom   4H    basis set group =>   2
Atom   5C    basis set group =>   1
Atom   6C    basis set group =>   1
Atom   7C    basis set group =>   1
Atom   8H    basis set group =>   2
Atom   9H    basis set group =>   2
Atom  10H    basis set group =>   2
Atom  11H    basis set group =>   2
Atom  12O    basis set group =>   3
Atom  13H    basis set group =>   2
Atom  14C    basis set group =>   1
Atom  15C    basis set group =>   1
Atom  16H    basis set group =>   2
Atom  17H    basis set group =>   2
Atom  18C    basis set group =>   1
Atom  19H    basis set group =>   2
Atom  20C    basis set group =>   1
Atom  21H    basis set group =>   2
Atom  22C    basis set group =>   1
Atom  23C    basis set group =>   1
Atom  24H    basis set group =>   2
Atom  25H    basis set group =>   2
Atom  26C    basis set group =>   1
Atom  27H    basis set group =>   2
Atom  28H    basis set group =>   2
Atom  29C    basis set group =>   1
Atom  30H    basis set group =>   2
Atom  31H    basis set group =>   2
Atom  32C    basis set group =>   1
Atom  33H    basis set group =>   2
Atom  34C    basis set group =>   1
Atom  35H    basis set group =>   2
Atom  36C    basis set group =>   1
Atom  37H    basis set group =>   2
Atom  38H    basis set group =>   2
Atom  39C    basis set group =>   1
Atom  40H    basis set group =>   2
Atom  41H    basis set group =>   2
Atom  42H    basis set group =>   2
Atom  43C    basis set group =>   1
Atom  44C    basis set group =>   1
Atom  45H    basis set group =>   2
Atom  46H    basis set group =>   2
Atom  47H    basis set group =>   2
Atom  48H    basis set group =>   2
Atom  49C    basis set group =>   1
Atom  50C    basis set group =>   1
Atom  51C    basis set group =>   1
Atom  52H    basis set group =>   2
Atom  53H    basis set group =>   2
Atom  54C    basis set group =>   1
Atom  55C    basis set group =>   1
Atom  56C    basis set group =>   1
Atom  57H    basis set group =>   2
Atom  58H    basis set group =>   2
Atom  59C    basis set group =>   1
Atom  60C    basis set group =>   1
Atom  61H    basis set group =>   2
Atom  62H    basis set group =>   2
Atom  63H    basis set group =>   2
Atom  64H    basis set group =>   2
Atom  65H    basis set group =>   2
Atom  66H    basis set group =>   2
Atom  67H    basis set group =>   2
Atom  68H    basis set group =>   2
Atom  69H    basis set group =>   2
Atom  70H    basis set group =>   2
Atom  71H    basis set group =>   2
Atom  72H    basis set group =>   2

-------------------------
BASIS SET IN INPUT FORMAT
-------------------------

 # Basis set for element : H 
 NewGTO H 
 S 3 
   1    1357.7500000000      0.0012928364
   2      54.3100000000      0.0588280685
   3       4.3448000000      0.9761499708
 S 1 
   1       0.6604910000      1.0000000000
 S 1 
   1       0.1366870000      1.0000000000
  end;

 # Basis set for element : C 
 NewGTO C 
 S 4 
   1  139534.0000000000      0.0001655246
   2    5581.3600000000      0.0074486101
   3     446.5090000000      0.1285821065
   4      67.4620000000      0.9218029311
 S 1 
   1      15.0674000000      1.0000000000
 S 1 
   1       3.9387600000      1.0000000000
 S 1 
   1       0.2999150000      1.0000000000
 P 2 
   1      28.3900000000      0.0816325586
   2       4.3676900000      0.9660360576
 P 1 
   1       0.8698170000      1.0000000000
 P 1 
   1       0.1889340000      1.0000000000
  end;

 # Basis set for element : O 
 NewGTO O 
 S 4 
   1  253789.0000000000      0.0001641076
   2   10151.6000000000      0.0074010921
   3     812.1250000000      0.1277711901
   4     122.6930000000      0.9223372164
 S 1 
   1      27.5608000000      1.0000000000
 S 1 
   1       7.3172600000      1.0000000000
 S 1 
   1       0.5792400000      1.0000000000
 P 2 
   1      53.4157000000      0.0793786106
   2       8.2177900000      0.9670506337
 P 1 
   1       1.6754400000      1.0000000000
 P 1 
   1       0.3506720000      1.0000000000
  end;

---------------------------------
AUXILIARY/J BASIS SET INFORMATION
---------------------------------
There are 3 groups of distinct atoms

 Group   1 Type C   : 12s5p4d2f1g contracted to 6s4p3d1f1g pattern {711111/2111/211/2/1}
 Group   2 Type H   : 5s2p1d contracted to 3s1p1d pattern {311/2/1}
 Group   3 Type O   : 12s5p4d2f1g contracted to 6s4p3d1f1g pattern {711111/2111/211/2/1}

Atom   0C    basis set group =>   1
Atom   1C    basis set group =>   1
Atom   2C    basis set group =>   1
Atom   3H    basis set group =>   2
Atom   4H    basis set group =>   2
Atom   5C    basis set group =>   1
Atom   6C    basis set group =>   1
Atom   7C    basis set group =>   1
Atom   8H    basis set group =>   2
Atom   9H    basis set group =>   2
Atom  10H    basis set group =>   2
Atom  11H    basis set group =>   2
Atom  12O    basis set group =>   3
Atom  13H    basis set group =>   2
Atom  14C    basis set group =>   1
Atom  15C    basis set group =>   1
Atom  16H    basis set group =>   2
Atom  17H    basis set group =>   2
Atom  18C    basis set group =>   1
Atom  19H    basis set group =>   2
Atom  20C    basis set group =>   1
Atom  21H    basis set group =>   2
Atom  22C    basis set group =>   1
Atom  23C    basis set group =>   1
Atom  24H    basis set group =>   2
Atom  25H    basis set group =>   2
Atom  26C    basis set group =>   1
Atom  27H    basis set group =>   2
Atom  28H    basis set group =>   2
Atom  29C    basis set group =>   1
Atom  30H    basis set group =>   2
Atom  31H    basis set group =>   2
Atom  32C    basis set group =>   1
Atom  33H    basis set group =>   2
Atom  34C    basis set group =>   1
Atom  35H    basis set group =>   2
Atom  36C    basis set group =>   1
Atom  37H    basis set group =>   2
Atom  38H    basis set group =>   2
Atom  39C    basis set group =>   1
Atom  40H    basis set group =>   2
Atom  41H    basis set group =>   2
Atom  42H    basis set group =>   2
Atom  43C    basis set group =>   1
Atom  44C    basis set group =>   1
Atom  45H    basis set group =>   2
Atom  46H    basis set group =>   2
Atom  47H    basis set group =>   2
Atom  48H    basis set group =>   2
Atom  49C    basis set group =>   1
Atom  50C    basis set group =>   1
Atom  51C    basis set group =>   1
Atom  52H    basis set group =>   2
Atom  53H    basis set group =>   2
Atom  54C    basis set group =>   1
Atom  55C    basis set group =>   1
Atom  56C    basis set group =>   1
Atom  57H    basis set group =>   2
Atom  58H    basis set group =>   2
Atom  59C    basis set group =>   1
Atom  60C    basis set group =>   1
Atom  61H    basis set group =>   2
Atom  62H    basis set group =>   2
Atom  63H    basis set group =>   2
Atom  64H    basis set group =>   2
Atom  65H    basis set group =>   2
Atom  66H    basis set group =>   2
Atom  67H    basis set group =>   2
Atom  68H    basis set group =>   2
Atom  69H    basis set group =>   2
Atom  70H    basis set group =>   2
Atom  71H    basis set group =>   2
Atom  72H    basis set group =>   2

-------------------------------------
AUXILIARY/J BASIS SET IN INPUT FORMAT
-------------------------------------

 # Auxiliary/J basis set for element : H 
 NewAuxJGTO H 
 S 3 
   1      15.6752927000      0.1007184237
   2       3.6063578000      0.3404257499
   3       1.2080016000      0.6491996172
 S 1 
   1       0.4726794000      1.0000000000
 S 1 
   1       0.2018100000      1.0000000000
 P 2 
   1       2.0281365000      0.5596620919
   2       0.5358730000      0.5596620919
 D 1 
   1       2.2165124000      1.0000000000
  end;

 # Auxiliary/J basis set for element : C 
 NewAuxJGTO C 
 S 7 
   1    1861.0916331000      0.0134602335
   2     642.9939764000      0.0299160374
   3     235.1105725000      0.1008649584
   4      90.7028894000      0.2370970548
   5      36.7794552000      0.3924037254
   6      15.6046273000      0.3195862154
   7       6.8907294000      0.0530104441
 S 1 
   1       3.1478850000     -1.0000000000
 S 1 
   1       1.4777287000      1.0000000000
 S 1 
   1       0.7076466000      1.0000000000
 S 1 
   1       0.3430122000      1.0000000000
 S 1 
   1       0.1669453000      1.0000000000
 P 2 
   1      13.5472892000     -0.6769313712
   2       5.4669419000     -0.3779500978
 P 1 
   1       2.1751721000      1.0000000000
 P 1 
   1       0.8582194000      1.0000000000
 P 1 
   1       0.3376720000      1.0000000000
 D 2 
   1       5.9287253000     -0.3533329857
   2       1.9809209000     -0.7456525731
 D 1 
   1       0.8055417000     -1.0000000000
 D 1 
   1       0.3531244000     -1.0000000000
 F 2 
   1       1.6755626000      0.6311076882
   2       0.5997536000      0.4968166032
 G 1 
   1       1.0024600000     -1.0000000000
  end;

 # Auxiliary/J basis set for element : O 
 NewAuxJGTO O 
 S 7 
   1    2876.8216605000      0.0168151159
   2    1004.7443032000      0.0340137548
   3     369.7579954000      0.1194951309
   4     142.9442404000      0.2664627624
   5      57.8366425000      0.4202764046
   6      24.3864983000      0.2765077335
   7      10.6622662000      0.0057008815
 S 1 
   1       4.8070437000     -1.0000000000
 S 1 
   1       2.2210770000      1.0000000000
 S 1 
   1       1.0447795000      1.0000000000
 S 1 
   1       0.4968425000      1.0000000000
 S 1 
   1       0.2371384000      1.0000000000
 P 2 
   1      64.2613382000     -0.2731534179
   2      16.3006076000     -0.8168011598
 P 1 
   1       4.3550542000      1.0000000000
 P 1 
   1       1.2019554000      1.0000000000
 P 1 
   1       0.3354196000      1.0000000000
 D 2 
   1       9.2146611000     -0.4661230638
   2       2.8435251000     -0.6600908911
 D 1 
   1       0.9955759000     -1.0000000000
 D 1 
   1       0.3649441000     -1.0000000000
 F 2 
   1       2.6420115000      0.5931563945
   2       0.7345613000      0.5931563945
 G 1 
   1       1.3931000000     -1.0000000000
  end;



           ************************************************************
           *        Program running with 4 parallel MPI-processes     *
           *              working on a common directory               *
           ************************************************************
------------------------------------------------------------------------------
                           ORCA GTO INTEGRAL CALCULATION
                           -- RI-GTO INTEGRALS CHOSEN --
------------------------------------------------------------------------------
------------------------------------------------------------------------------
                   ___                                                        
                  /   \      - P O W E R E D   B Y -                         
                 /     \                                                     
                 |  |  |   _    _      __       _____    __    __             
                 |  |  |  | |  | |    /  \     |  _  \  |  |  /  |          
                  \  \/   | |  | |   /    \    | | | |  |  | /  /          
                 / \  \   | |__| |  /  /\  \   | |_| |  |  |/  /          
                |  |  |   |  __  | /  /__\  \  |    /   |      \           
                |  |  |   | |  | | |   __   |  |    \   |  |\   \          
                \     /   | |  | | |  |  |  |  | |\  \  |  | \   \       
                 \___/    |_|  |_| |__|  |__|  |_| \__\ |__|  \__/        
                                                                              
                      - O R C A' S   B I G   F R I E N D -                    
                                      &                                       
                       - I N T E G R A L  F E E D E R -                       
                                                                              
 v1 FN, 2020, v2 2021                                                         
------------------------------------------------------------------------------


Reading SHARK input file inpJ.SHARKINP.tmp ... ok
----------------------
SHARK INTEGRAL PACKAGE
----------------------

Number of atoms                             ...     73
Number of basis functions                   ...    509
Number of shells                            ...    335
Maximum angular momentum                    ...      1
Integral batch strategy                     ... SHARK/LIBINT Hybrid
RI-J (if used) integral strategy            ... SPLIT-RIJ (Revised 2003 algorithm where possible)
Printlevel                                  ...      1
Contraction scheme used                     ... SEGMENTED contraction
Coulomb Range Separation                    ... NOT USED
Exchange Range Separation                   ... NOT USED
Finite Nucleus Model                        ... NOT USED
Auxiliary Coulomb fitting basis             ... AVAILABLE
   # of basis functions in Aux-J            ...   1905
   # of shells in Aux-J                     ...    655
   Maximum angular momentum in Aux-J        ...      4
Auxiliary J/K fitting basis                 ... NOT available
Auxiliary Correlation fitting basis         ... NOT available
Auxiliary 'external' fitting basis          ... NOT available
Integral threshold                          ...     3.000000e-11
Primitive cut-off                           ...     1.000000e-12
Primitive pair pre-selection threshold      ...     1.000000e-12

Calculating pre-screening integrals         ... done (  0.0 sec) Dimension = 335
Organizing shell pair data                  ... done (  0.1 sec)
Shell pair information
Total number of shell pairs                 ...     56280
Shell pairs after pre-screening             ...     21689
Total number of primitive shell pairs       ...    145865
Primitive shell pairs kept                  ...     37336
          la=0 lb=0:  10935 shell pairs
          la=1 lb=0:   8903 shell pairs
          la=1 lb=1:   1851 shell pairs

Calculating one electron integrals          ... done (  0.0 sec)
Calculating RI/J V-Matrix + Cholesky decomp.... done (  0.2 sec)
Calculating Nuclear repulsion               ... done (  0.0 sec) ENN=   2762.965631719105 Eh

SHARK setup successfully completed in   0.4 seconds

Maximum memory used throughout the entire GTOINT-calculation: 46.2 MB


           ************************************************************
           *        Program running with 4 parallel MPI-processes     *
           *              working on a common directory               *
           ************************************************************
-------------------------------------------------------------------------------
                                 ORCA SCF
-------------------------------------------------------------------------------

------------
SCF SETTINGS
------------
Hamiltonian:
 Density Functional     Method          .... DFT(GTOs)
 Exchange Functional    Exchange        .... PBE
   PBE kappa parameter   XKappa         ....  0.804000
   PBE mue parameter    XMuePBE         ....  0.219520
 Correlation Functional Correlation     .... PBE
   PBE beta parameter  CBetaPBE         ....  0.066725
 LDA part of GGA corr.  LDAOpt          .... PW91-LDA
 Gradients option       PostSCFGGA      .... off
 Hybrid DFT is turned on
   Fraction HF Exchange ScalHFX         ....  0.250000
   Scaling of DF-GGA-X  ScalDFX         ....  0.750000
   Scaling of DF-GGA-C  ScalDFC         ....  1.000000
   Scaling of DF-LDA-C  ScalLDAC        ....  1.000000
   Perturbative correction              ....  0.000000
   Density functional embedding theory  .... OFF
   NL short-range parameter             ....  6.900000
 RI-approximation to the Coulomb term is turned on
   Number of AuxJ basis functions       .... 1905
   RIJ-COSX (HFX calculated with COS-X)).... on


General Settings:
 Integral files         IntName         .... inpJ
 Hartree-Fock type      HFTyp           .... RHF
 Total Charge           Charge          ....    0
 Multiplicity           Mult            ....    1
 Number of Electrons    NEL             ....  220
 Basis Dimension        Dim             ....  509
 Nuclear Repulsion      ENuc            ....   2762.9656317191 Eh

Convergence Acceleration:
 DIIS                   CNVDIIS         .... on
   Start iteration      DIISMaxIt       ....    12
   Startup error        DIISStart       ....  0.200000
   # of expansion vecs  DIISMaxEq       ....     5
   Bias factor          DIISBfac        ....   1.050
   Max. coefficient     DIISMaxC        ....  10.000
 Trust-Rad. Augm. Hess. CNVTRAH         .... auto
   Auto Start mean grad. ratio tolernc. ....  1.125000
   Auto Start start iteration           ....    20
   Auto Start num. interpolation iter.  ....    10
   Max. Number of Micro iterations      ....    16
   Max. Number of Macro iterations      .... Maxiter - #DIIS iter
   Number of Davidson start vectors     ....     2
   Converg. threshold I  (grad. norm)   ....   1.000e-04
   Converg. threshold II (energy diff.) ....   1.000e-07
   Grad. Scal. Fac. for Micro threshold ....   0.100
   Minimum threshold for Micro iter.    ....   0.010
   NR start threshold (gradient norm)   ....   0.001
   Initial trust radius                 ....   0.400
   Minimum AH scaling param. (alpha)    ....   1.000
   Maximum AH scaling param. (alpha)    .... 1000.000
   Orbital update algorithm             .... Taylor
   White noise on init. David. guess    .... on
   Maximum white noise                  ....   0.010
   Quad. conv. algorithm                .... NR
 SOSCF                  CNVSOSCF        .... off
 Level Shifting         CNVShift        .... on
   Level shift para.    LevelShift      ....    0.2500
   Turn off err/grad.   ShiftErr        ....    0.0010
 Zerner damping         CNVZerner       .... off
 Static damping         CNVDamp         .... on
   Fraction old density DampFac         ....    0.7000
   Max. Damping (<1)    DampMax         ....    0.9800
   Min. Damping (>=0)   DampMin         ....    0.0000
   Turn off err/grad.   DampErr         ....    0.1000
 Fernandez-Rico         CNVRico         .... off

SCF Procedure:
 Maximum # iterations   MaxIter         ....   125
 SCF integral mode      SCFMode         .... Direct
   Integral package                     .... SHARK and LIBINT hybrid scheme
 Reset frequency        DirectResetFreq ....    20
 Integral Threshold     Thresh          ....  3.000e-11 Eh
 Primitive CutOff       TCut            ....  1.000e-12 Eh

Convergence Tolerance:
 Convergence Check Mode ConvCheckMode   .... Total+1el-Energy
 Convergence forced     ConvForced      .... 0
 Energy Change          TolE            ....  1.000e-07 Eh
 1-El. energy change                    ....  1.000e-04 Eh
 DIIS Error             TolErr          ....  1.000e-07


Diagonalization of the overlap matrix:
Smallest eigenvalue                        ... 7.553e-03
Time for diagonalization                   ...    0.029 sec
Threshold for overlap eigenvalues          ... 1.000e-08
Number of eigenvalues below threshold      ... 0
Time for construction of square roots      ...    0.029 sec
Total time needed                          ...    0.059 sec

Time for model grid setup =    0.728 sec

------------------------------
INITIAL GUESS: MODEL POTENTIAL
------------------------------
Loading Hartree-Fock densities                     ... done
Calculating cut-offs                               ... done
Initializing the effective Hamiltonian             ... done
Setting up the integral package (SHARK)            ... done
Starting the Coulomb interaction                   ... done (   0.3 sec)
Reading the grid                                   ... done
Mapping shells                                     ... done
Starting the XC term evaluation                    ... done (   0.1 sec)
  promolecular density results
     # of electrons  =    219.983020448
     EX              =   -164.432128301
     EC              =     -7.324805951
     EX+EC           =   -171.756934252
Transforming the Hamiltonian                       ... done (   0.0 sec)
Diagonalizing the Hamiltonian                      ... done (   0.0 sec)
Back transforming the eigenvectors                 ... done (   0.0 sec)
Now organizing SCF variables                       ... done
                      ------------------
                      INITIAL GUESS DONE (   1.3 sec)
                      ------------------
-------------------
DFT GRID GENERATION
-------------------

General Integration Accuracy     IntAcc      ... 4.388
Radial Grid Type                 RadialGrid  ... OptM3 with GC (2021)
Angular Grid (max. ang.)         AngularGrid ... 4 (Lebedev-302)
Angular grid pruning method      GridPruning ... 4 (adaptive)
Weight generation scheme         WeightScheme... Becke
Basis function cutoff            BFCut       ... 1.0000e-11
Integration weight cutoff        WCut        ... 1.0000e-14
Angular grids for H and He will be reduced by one unit
Partially contracted basis set               ... off
Rotationally invariant grid construction     ... off

Total number of grid points                  ...   309882
Total number of batches                      ...     4874
Average number of points per batch           ...       63
Average number of grid points per atom       ...     4245
Time for grid setup =    2.805 sec

--------------------
COSX GRID GENERATION
--------------------

GRIDX 1
-------
General Integration Accuracy     IntAcc      ... 3.816
Radial Grid Type                 RadialGrid  ... OptM3 with GC (2021)
Angular Grid (max. ang.)         AngularGrid ... 1 (Lebedev-50)
Angular grid pruning method      GridPruning ... 4 (adaptive)
Weight generation scheme         WeightScheme... Becke
Basis function cutoff            BFCut       ... 1.0000e-11
Integration weight cutoff        WCut        ... 1.0000e-14
Angular grids for H and He will be reduced by one unit
Partially contracted basis set               ... on
Rotationally invariant grid construction     ... off

Total number of grid points                  ...    39439
Total number of batches                      ...      659
Average number of points per batch           ...       59
Average number of grid points per atom       ...      540
UseSFitting                                  ... on

GRIDX 2
-------
General Integration Accuracy     IntAcc      ... 4.020
Radial Grid Type                 RadialGrid  ... OptM3 with GC (2021)
Angular Grid (max. ang.)         AngularGrid ... 2 (Lebedev-110)
Angular grid pruning method      GridPruning ... 4 (adaptive)
Weight generation scheme         WeightScheme... Becke
Basis function cutoff            BFCut       ... 1.0000e-11
Integration weight cutoff        WCut        ... 1.0000e-14
Angular grids for H and He will be reduced by one unit
Partially contracted basis set               ... on
Rotationally invariant grid construction     ... off

Total number of grid points                  ...    81484
Total number of batches                      ...     1313
Average number of points per batch           ...       62
Average number of grid points per atom       ...     1116
UseSFitting                                  ... on

GRIDX 3
-------
General Integration Accuracy     IntAcc      ... 4.338
Radial Grid Type                 RadialGrid  ... OptM3 with GC (2021)
Angular Grid (max. ang.)         AngularGrid ... 3 (Lebedev-194)
Angular grid pruning method      GridPruning ... 4 (adaptive)
Weight generation scheme         WeightScheme... Becke
Basis function cutoff            BFCut       ... 1.0000e-11
Integration weight cutoff        WCut        ... 1.0000e-14
Angular grids for H and He will be reduced by one unit
Partially contracted basis set               ... on
Rotationally invariant grid construction     ... off

Total number of grid points                  ...   176429
Total number of batches                      ...     2793
Average number of points per batch           ...       63
Average number of grid points per atom       ...     2417
UseSFitting                                  ... on

Time for X-Grid setup             =    3.257 sec


--------------------
CPCM SOLVATION MODEL
--------------------
CPCM parameters:
  Epsilon                                         ...       4.9000
  Refrac                                          ...       1.4500
  Rsolv                                           ...       1.3000
  Surface type                                    ... GAUSSIAN VDW
  Epsilon function type                           ...         CPCM
Radii:
 Radius for C  used is    3.8550 Bohr (=   2.0400 Ang.)
 Radius for H  used is    2.4944 Bohr (=   1.3200 Ang.)
 Radius for O  used is    3.4469 Bohr (=   1.8240 Ang.)
Calculating surface                               ...        done! (  0.0s)
GEPOL surface points                              ...         3630
GEPOL Volume                                      ...    3588.2980
GEPOL Surface-area                                ...    1786.4667
Calculating surface distance matrix               ...        done! (  0.1s)
Performing Cholesky decomposition & store         ...        done! (  0.5s)
Overall time for CPCM initialization              ...                 0.6s
--------------
SCF ITERATIONS
--------------
ITER       Energy         Delta-E        Max-DP      RMS-DP      [F,P]     Damp
               ***  Starting incremental Fock matrix formation  ***

  HOMO= 109 E= -3.890 eV LUMO=  7.782 eV gap=  11.672 eV
  0  -1165.0089280712   0.000000000000 0.09740784  0.00105931  0.1939081 0.7000

  HOMO= 109 E= -4.739 eV LUMO=  7.086 eV gap=  11.825 eV
  1  -1165.2272680115  -0.218339940337 0.06536988  0.00078072  0.0944055 0.7000
                               ***Turning on DIIS***

  HOMO= 109 E= -5.339 eV LUMO=  6.528 eV gap=  11.867 eV
  2  -1165.3282226171  -0.100954605558 0.10346527  0.00138616  0.0376726 0.0000

  HOMO= 109 E= -5.906 eV LUMO=  5.986 eV gap=  11.891 eV
  3  -1165.4725416173  -0.144319000222 0.05151113  0.00056799  0.0453555 0.0000

  HOMO= 109 E= -5.985 eV LUMO=  5.907 eV gap=  11.891 eV
  4  -1165.5080142996  -0.035472682349 0.01181130  0.00013544  0.0063131 0.0000

  HOMO= 109 E= -5.932 eV LUMO=  5.967 eV gap=  11.899 eV
  5  -1165.5088916225  -0.000877322921 0.00282187  0.00003843  0.0044549 0.0000

  HOMO= 109 E= -5.918 eV LUMO=  5.981 eV gap=  11.899 eV
  6  -1165.5089705885  -0.000078965935 0.00115802  0.00001166  0.0010394 0.0000

  HOMO= 109 E= -5.920 eV LUMO= -0.824 eV gap=   5.096 eV
  7  -1165.5089752257  -0.000004637214 0.00050689  0.00000596  0.0002310 0.0000
               *** Restarting incremental Fock matrix formation ***
                                   *** Resetting DIIS ***

  HOMO= 109 E= -5.919 eV LUMO= -0.823 eV gap=   5.097 eV
  8  -1165.5091011520  -0.000125926263 0.00041326  0.00000281  0.0001152 0.0000

  HOMO= 109 E= -5.919 eV LUMO= -0.823 eV gap=   5.097 eV
  9  -1165.5091011967  -0.000000044775 0.00013965  0.00000126  0.0001488 0.0000

  HOMO= 109 E= -5.920 eV LUMO= -0.823 eV gap=   5.097 eV
 10  -1165.5091013142  -0.000000117419 0.00006566  0.00000041  0.0000413 0.0000

  HOMO= 109 E= -5.920 eV LUMO= -0.823 eV gap=   5.097 eV
 11  -1165.5091013566  -0.000000042497 0.00002434  0.00000018  0.0000218 0.0000

  HOMO= 109 E= -5.920 eV LUMO= -0.823 eV gap=   5.097 eV
 12  -1165.5091013381   0.000000018535 0.00000733  0.00000005  0.0000040 0.0000
                 **** Energy Check signals convergence ****

               *****************************************************
               *                     SUCCESS                       *
               *           SCF CONVERGED AFTER  13 CYCLES          *
               *****************************************************

Old exchange energy                            =    -42.067386628 Eh
New exchange energy                            =    -42.067445155 Eh
Exchange energy change after final integration =     -0.000058527 Eh
Total energy after final integration           =  -1165.509159867 Eh
Final COS-X integration done in                =    13.761 sec

----------------
TOTAL SCF ENERGY
----------------

Total Energy       :        -1165.50915987 Eh          -31715.11661 eV

Components:
Nuclear Repulsion  :         2762.96563172 Eh           75184.11713 eV
Electronic Energy  :        -3928.47479159 Eh         -106899.23373 eV
One Electron Energy:        -7067.89731904 Eh         -192327.26378 eV
Two Electron Energy:         3139.42252746 Eh           85428.03005 eV
Max COSX asymmetry :            0.00000267 Eh               0.00007 eV
CPCM Dielectric    :           -0.01515552 Eh              -0.41240 eV

Virial components:
Potential Energy   :        -2322.41058286 Eh          -63196.00478 eV
Kinetic Energy     :         1156.90142299 Eh           31480.88818 eV
Virial Ratio       :            2.00744034


DFT components:
N(Alpha)           :      110.000199147437 electrons
N(Beta)            :      110.000199147437 electrons
N(Total)           :      220.000398294874 electrons
E(X)               :     -125.745340540342 Eh       
E(C)               :       -7.326534702551 Eh       
E(XC)              :     -133.071875242893 Eh       
DFET-embed. en.    :        0.000000000000 Eh       
CPCM Solvation Model Properties:
Surface-charge          :           -0.03456129
Charge-correction       :           -0.00004927 Eh              -0.00134 eV
Free-energy (cav+disp)  :  This term is not implemented in the current solvation scheme

---------------
SCF CONVERGENCE
---------------

  Last Energy change         ...   -1.4693e-09  Tolerance :   1.0000e-07
  Last MAX-Density change    ...    0.0000e+00  Tolerance :   1.0000e-05
  Last RMS-Density change    ...    0.0000e+00  Tolerance :   1.0000e-06
  Last DIIS Error            ...    2.6423e-06  Tolerance :   1.0000e-07

             **** THE GBW FILE WAS UPDATED (inpJ.gbw) ****
             **** DENSITY inpJ.scfp WAS UPDATED ****
             **** ENERGY FILE WAS UPDATED (inpJ.en.tmp) ****
             **** THE GBW FILE WAS UPDATED (inpJ.gbw) ****
             **** DENSITY inpJ.scfp WAS UPDATED ****
----------------
ORBITAL ENERGIES
----------------

  NO   OCC          E(Eh)            E(eV) 
   0   2.0000     -19.215076      -522.8688 
   1   2.0000     -10.301382      -280.3148 
   2   2.0000     -10.269516      -279.4477 
   3   2.0000     -10.266770      -279.3730 
   4   2.0000     -10.261928      -279.2413 
   5   2.0000     -10.256573      -279.0955 
   6   2.0000     -10.253401      -279.0092 
   7   2.0000     -10.251818      -278.9661 
   8   2.0000     -10.249269      -278.8968 
   9   2.0000     -10.249253      -278.8963 
  10   2.0000     -10.248503      -278.8760 
  11   2.0000     -10.246568      -278.8233 
  12   2.0000     -10.246089      -278.8103 
  13   2.0000     -10.245672      -278.7989 
  14   2.0000     -10.243904      -278.7508 
  15   2.0000     -10.243214      -278.7320 
  16   2.0000     -10.243078      -278.7283 
  17   2.0000     -10.241897      -278.6962 
  18   2.0000     -10.241714      -278.6912 
  19   2.0000     -10.241085      -278.6741 
  20   2.0000     -10.239106      -278.6202 
  21   2.0000     -10.235211      -278.5142 
  22   2.0000     -10.234706      -278.5005 
  23   2.0000     -10.233580      -278.4699 
  24   2.0000     -10.225905      -278.2610 
  25   2.0000     -10.224331      -278.2182 
  26   2.0000     -10.224108      -278.2121 
  27   2.0000     -10.221671      -278.1458 
  28   2.0000     -10.220710      -278.1197 
  29   2.0000      -1.045792       -28.4574 
  30   2.0000      -0.901138       -24.5212 
  31   2.0000      -0.883677       -24.0461 
  32   2.0000      -0.859907       -23.3993 
  33   2.0000      -0.845895       -23.0180 
  34   2.0000      -0.822188       -22.3729 
  35   2.0000      -0.814205       -22.1556 
  36   2.0000      -0.795064       -21.6348 
  37   2.0000      -0.794790       -21.6273 
  38   2.0000      -0.776153       -21.1202 
  39   2.0000      -0.758037       -20.6272 
  40   2.0000      -0.741106       -20.1665 
  41   2.0000      -0.733670       -19.9642 
  42   2.0000      -0.714262       -19.4361 
  43   2.0000      -0.700286       -19.0557 
  44   2.0000      -0.699253       -19.0277 
  45   2.0000      -0.693988       -18.8844 
  46   2.0000      -0.669201       -18.2099 
  47   2.0000      -0.659243       -17.9389 
  48   2.0000      -0.632965       -17.2238 
  49   2.0000      -0.622049       -16.9268 
  50   2.0000      -0.619483       -16.8570 
  51   2.0000      -0.608503       -16.5582 
  52   2.0000      -0.597615       -16.2619 
  53   2.0000      -0.575905       -15.6712 
  54   2.0000      -0.566451       -15.4139 
  55   2.0000      -0.547165       -14.8891 
  56   2.0000      -0.540984       -14.7209 
  57   2.0000      -0.529841       -14.4177 
  58   2.0000      -0.515052       -14.0153 
  59   2.0000      -0.509132       -13.8542 
  60   2.0000      -0.498142       -13.5551 
  61   2.0000      -0.491134       -13.3644 
  62   2.0000      -0.480351       -13.0710 
  63   2.0000      -0.478208       -13.0127 
  64   2.0000      -0.475781       -12.9467 
  65   2.0000      -0.469361       -12.7720 
  66   2.0000      -0.461721       -12.5641 
  67   2.0000      -0.459589       -12.5061 
  68   2.0000      -0.456998       -12.4355 
  69   2.0000      -0.450652       -12.2629 
  70   2.0000      -0.447141       -12.1673 
  71   2.0000      -0.443758       -12.0753 
  72   2.0000      -0.435921       -11.8620 
  73   2.0000      -0.432400       -11.7662 
  74   2.0000      -0.430357       -11.7106 
  75   2.0000      -0.424585       -11.5536 
  76   2.0000      -0.415669       -11.3109 
  77   2.0000      -0.413656       -11.2561 
  78   2.0000      -0.408580       -11.1180 
  79   2.0000      -0.402359       -10.9487 
  80   2.0000      -0.400008       -10.8848 
  81   2.0000      -0.397013       -10.8033 
  82   2.0000      -0.395391       -10.7591 
  83   2.0000      -0.390753       -10.6329 
  84   2.0000      -0.385627       -10.4934 
  85   2.0000      -0.380439       -10.3523 
  86   2.0000      -0.378956       -10.3119 
  87   2.0000      -0.370769       -10.0891 
  88   2.0000      -0.367421        -9.9980 
  89   2.0000      -0.364726        -9.9247 
  90   2.0000      -0.362178        -9.8554 
  91   2.0000      -0.358521        -9.7558 
  92   2.0000      -0.350633        -9.5412 
  93   2.0000      -0.344775        -9.3818 
  94   2.0000      -0.342586        -9.3223 
  95   2.0000      -0.340200        -9.2573 
  96   2.0000      -0.338934        -9.2229 
  97   2.0000      -0.334102        -9.0914 
  98   2.0000      -0.329149        -8.9566 
  99   2.0000      -0.327936        -8.9236 
 100   2.0000      -0.326671        -8.8892 
 101   2.0000      -0.323185        -8.7943 
 102   2.0000      -0.320227        -8.7138 
 103   2.0000      -0.316178        -8.6037 
 104   2.0000      -0.311821        -8.4851 
 105   2.0000      -0.300460        -8.1759 
 106   2.0000      -0.280072        -7.6211 
 107   2.0000      -0.274774        -7.4770 
 108   2.0000      -0.255400        -6.9498 
 109   2.0000      -0.217541        -5.9196 
 110   0.0000      -0.030230        -0.8226 
 111   0.0000       0.021292         0.5794 
 112   0.0000       0.030135         0.8200 
 113   0.0000       0.080709         2.1962 
 114   0.0000       0.091162         2.4806 
 115   0.0000       0.094602         2.5743 
 116   0.0000       0.101800         2.7701 
 117   0.0000       0.105133         2.8608 
 118   0.0000       0.108233         2.9452 
 119   0.0000       0.117889         3.2079 
 120   0.0000       0.118787         3.2324 
 121   0.0000       0.124016         3.3746 
 122   0.0000       0.128140         3.4869 
 123   0.0000       0.131195         3.5700 
 124   0.0000       0.137049         3.7293 
 125   0.0000       0.139054         3.7839 
 126   0.0000       0.141337         3.8460 
 127   0.0000       0.143069         3.8931 
 128   0.0000       0.150138         4.0855 
 129   0.0000       0.153192         4.1686 
 130   0.0000       0.153816         4.1855 
 131   0.0000       0.159247         4.3333 
 132   0.0000       0.161306         4.3894 
 133   0.0000       0.164507         4.4765 
 134   0.0000       0.165896         4.5143 
 135   0.0000       0.168995         4.5986 
 136   0.0000       0.171495         4.6666 
 137   0.0000       0.172505         4.6941 
 138   0.0000       0.175040         4.7631 
 139   0.0000       0.180895         4.9224 
 140   0.0000       0.183919         5.0047 
 141   0.0000       0.185005         5.0342 
 142   0.0000       0.185315         5.0427 
 143   0.0000       0.187499         5.1021 
 144   0.0000       0.189819         5.1652 
 145   0.0000       0.191838         5.2202 
 146   0.0000       0.197330         5.3696 
 147   0.0000       0.200918         5.4672 
 148   0.0000       0.202264         5.5039 
 149   0.0000       0.206588         5.6215 
 150   0.0000       0.209963         5.7134 
 151   0.0000       0.215539         5.8651 
 152   0.0000       0.217914         5.9298 
 153   0.0000       0.226691         6.1686 
 154   0.0000       0.230168         6.2632 
 155   0.0000       0.238095         6.4789 
 156   0.0000       0.240107         6.5337 
 157   0.0000       0.245513         6.6808 
 158   0.0000       0.250329         6.8118 
 159   0.0000       0.251946         6.8558 
 160   0.0000       0.254260         6.9188 
 161   0.0000       0.261009         7.1024 
 162   0.0000       0.261915         7.1271 
 163   0.0000       0.270600         7.3634 
 164   0.0000       0.271813         7.3964 
 165   0.0000       0.275481         7.4962 
 166   0.0000       0.276334         7.5194 
 167   0.0000       0.283895         7.7252 
 168   0.0000       0.285302         7.7635 
 169   0.0000       0.291504         7.9322 
 170   0.0000       0.295479         8.0404 
 171   0.0000       0.298337         8.1182 
 172   0.0000       0.304237         8.2787 
 173   0.0000       0.306464         8.3393 
 174   0.0000       0.312129         8.4935 
 175   0.0000       0.320054         8.7091 
 176   0.0000       0.328294         8.9333 
 177   0.0000       0.335890         9.1400 
 178   0.0000       0.353694         9.6245 
 179   0.0000       0.357549         9.7294 
 180   0.0000       0.366670         9.9776 
 181   0.0000       0.379037        10.3141 
 182   0.0000       0.381216        10.3734 
 183   0.0000       0.408783        11.1236 
 184   0.0000       0.419747        11.4219 
 185   0.0000       0.463514        12.6129 
 186   0.0000       0.470563        12.8047 
 187   0.0000       0.490236        13.3400 
 188   0.0000       0.503939        13.7129 
 189   0.0000       0.521246        14.1838 
 190   0.0000       0.524327        14.2677 
 191   0.0000       0.533370        14.5137 
 192   0.0000       0.543335        14.7849 
 193   0.0000       0.548672        14.9301 
 194   0.0000       0.557181        15.1617 
 195   0.0000       0.561405        15.2766 
 196   0.0000       0.573600        15.6084 
 197   0.0000       0.575956        15.6726 
 198   0.0000       0.583944        15.8899 
 199   0.0000       0.593777        16.1575 
 200   0.0000       0.612076        16.6554 
 201   0.0000       0.618978        16.8432 
 202   0.0000       0.625382        17.0175 
 203   0.0000       0.626671        17.0526 
 204   0.0000       0.641067        17.4443 
 205   0.0000       0.649170        17.6648 
 206   0.0000       0.655702        17.8426 
 207   0.0000       0.657025        17.8786 
 208   0.0000       0.661907        18.0114 
 209   0.0000       0.667027        18.1507 
 210   0.0000       0.675422        18.3792 
 211   0.0000       0.683394        18.5961 
 212   0.0000       0.691131        18.8066 
 213   0.0000       0.699465        19.0334 
 214   0.0000       0.704369        19.1669 
 215   0.0000       0.707601        19.2548 
 216   0.0000       0.711733        19.3672 
 217   0.0000       0.716883        19.5074 
 218   0.0000       0.726340        19.7647 
 219   0.0000       0.726730        19.7753 
 220   0.0000       0.729779        19.8583 
 221   0.0000       0.734663        19.9912 
 222   0.0000       0.739004        20.1093 
 223   0.0000       0.741380        20.1740 
 224   0.0000       0.749059        20.3829 
 225   0.0000       0.750557        20.4237 
 226   0.0000       0.757501        20.6127 
 227   0.0000       0.759211        20.6592 
 228   0.0000       0.763733        20.7822 
 229   0.0000       0.767373        20.8813 
 230   0.0000       0.774715        21.0811 
 231   0.0000       0.775870        21.1125 
 232   0.0000       0.777806        21.1652 
 233   0.0000       0.781413        21.2633 
 234   0.0000       0.788564        21.4579 
 235   0.0000       0.790720        21.5166 
 236   0.0000       0.801131        21.7999 
 237   0.0000       0.813204        22.1284 
 238   0.0000       0.820319        22.3220 
 239   0.0000       0.821020        22.3411 
 240   0.0000       0.826448        22.4888 
 241   0.0000       0.833103        22.6699 
 242   0.0000       0.839105        22.8332 
 243   0.0000       0.841587        22.9008 
 244   0.0000       0.852027        23.1848 
 245   0.0000       0.855594        23.2819 
 246   0.0000       0.855967        23.2921 
 247   0.0000       0.863563        23.4987 
 248   0.0000       0.866722        23.5847 
 249   0.0000       0.869602        23.6631 
 250   0.0000       0.872013        23.7287 
 251   0.0000       0.872704        23.7475 
 252   0.0000       0.876102        23.8400 
 253   0.0000       0.877904        23.8890 
 254   0.0000       0.880119        23.9492 
 255   0.0000       0.883357        24.0374 
 256   0.0000       0.885232        24.0884 
 257   0.0000       0.888004        24.1638 
 258   0.0000       0.890672        24.2364 
 259   0.0000       0.898989        24.4627 
 260   0.0000       0.901470        24.5303 
 261   0.0000       0.907167        24.6853 
 262   0.0000       0.914252        24.8781 
 263   0.0000       0.919439        25.0192 
 264   0.0000       0.923085        25.1184 
 265   0.0000       0.927266        25.2322 
 266   0.0000       0.928642        25.2696 
 267   0.0000       0.930788        25.3280 
 268   0.0000       0.935633        25.4599 
 269   0.0000       0.938390        25.5349 
 270   0.0000       0.941524        25.6202 
 271   0.0000       0.942290        25.6410 
 272   0.0000       0.945878        25.7386 
 273   0.0000       0.953889        25.9566 
 274   0.0000       0.957721        26.0609 
 275   0.0000       0.962906        26.2020 
 276   0.0000       0.968828        26.3632 
 277   0.0000       0.970854        26.4183 
 278   0.0000       0.975055        26.5326 
 279   0.0000       0.980660        26.6851 
 280   0.0000       0.986821        26.8528 
 281   0.0000       1.000302        27.2196 
 282   0.0000       1.002616        27.2826 
 283   0.0000       1.009753        27.4768 
 284   0.0000       1.017771        27.6950 
 285   0.0000       1.026614        27.9356 
 286   0.0000       1.029128        28.0040 
 287   0.0000       1.041584        28.3429 
 288   0.0000       1.052562        28.6417 
 289   0.0000       1.060422        28.8555 
 290   0.0000       1.078978        29.3605 
 291   0.0000       1.086195        29.5569 
 292   0.0000       1.087952        29.6047 
 293   0.0000       1.092776        29.7359 
 294   0.0000       1.099858        29.9286 
 295   0.0000       1.114695        30.3324 
 296   0.0000       1.123936        30.5838 
 297   0.0000       1.130956        30.7749 
 298   0.0000       1.141646        31.0658 
 299   0.0000       1.145041        31.1581 
 300   0.0000       1.162397        31.6304 
 301   0.0000       1.171528        31.8789 
 302   0.0000       1.184133        32.2219 
 303   0.0000       1.211355        32.9627 
 304   0.0000       1.240687        33.7608 
 305   0.0000       1.247656        33.9505 
 306   0.0000       1.258647        34.2495 
 307   0.0000       1.262818        34.3630 
 308   0.0000       1.288894        35.0726 
 309   0.0000       1.308966        35.6188 
 310   0.0000       1.330683        36.2097 
 311   0.0000       1.342301        36.5259 
 312   0.0000       1.354367        36.8542 
 313   0.0000       1.372538        37.3487 
 314   0.0000       1.406326        38.2681 
 315   0.0000       1.525367        41.5073 
 316   0.0000       1.526329        41.5335 
 317   0.0000       1.564994        42.5856 
 318   0.0000       1.605893        43.6986 
 319   0.0000       1.657407        45.1003 
 320   0.0000       6.207810       168.9231 
 321   0.0000       6.239930       169.7971 
 322   0.0000       6.260726       170.3630 
 323   0.0000       6.276153       170.7828 
 324   0.0000       6.283050       170.9705 
 325   0.0000       6.292024       171.2147 
 326   0.0000       6.302717       171.5057 
 327   0.0000       6.314411       171.8239 
 328   0.0000       6.317088       171.8967 
 329   0.0000       6.335846       172.4071 
 330   0.0000       6.343604       172.6182 
 331   0.0000       6.352347       172.8562 
 332   0.0000       6.364630       173.1904 
 333   0.0000       6.366235       173.2341 
 334   0.0000       6.384958       173.7436 
 335   0.0000       6.390120       173.8840 
 336   0.0000       6.394293       173.9976 
 337   0.0000       6.410096       174.4276 
 338   0.0000       6.416666       174.6063 
 339   0.0000       6.420612       174.7137 
 340   0.0000       6.428149       174.9188 
 341   0.0000       6.436003       175.1325 
 342   0.0000       6.448630       175.4761 
 343   0.0000       6.457864       175.7274 
 344   0.0000       6.467291       175.9839 
 345   0.0000       6.468456       176.0156 
 346   0.0000       6.483426       176.4230 
 347   0.0000       6.493874       176.7073 
 348   0.0000       6.508612       177.1083 
 349   0.0000       6.513211       177.2335 
 350   0.0000       6.523860       177.5232 
 351   0.0000       6.526639       177.5989 
 352   0.0000       6.541096       177.9923 
 353   0.0000       6.542689       178.0356 
 354   0.0000       6.548451       178.1924 
 355   0.0000       6.552554       178.3041 
 356   0.0000       6.556831       178.4205 
 357   0.0000       6.562484       178.5743 
 358   0.0000       6.569105       178.7544 
 359   0.0000       6.576669       178.9603 
 360   0.0000       6.582754       179.1258 
 361   0.0000       6.583677       179.1510 
 362   0.0000       6.587945       179.2671 
 363   0.0000       6.599884       179.5920 
 364   0.0000       6.604028       179.7047 
 365   0.0000       6.606922       179.7835 
 366   0.0000       6.612706       179.9409 
 367   0.0000       6.617860       180.0811 
 368   0.0000       6.618189       180.0901 
 369   0.0000       6.619250       180.1189 
 370   0.0000       6.623899       180.2454 
 371   0.0000       6.629261       180.3914 
 372   0.0000       6.634653       180.5381 
 373   0.0000       6.638596       180.6454 
 374   0.0000       6.641193       180.7161 
[...]
     69 H        0.000      0.000      0.000      0.000      0.000      0.000
     70 H        0.000      0.000      0.000      0.000      0.003      0.036
     71 H        0.000      0.000      0.000     -0.000      0.001      0.020
     72 H        0.000      0.000      0.000      0.000      0.001      0.012
                 25 H       27 H       28 H       30 H       31 H       33 H  
      3 H        2.497     -0.107      0.069      0.000      0.000      2.421
      4 H        0.113     -0.004      0.004      0.000      0.000      0.101
      8 H       -0.342      0.012      0.000      0.000      0.000     -0.313
      9 H        0.000      0.000      0.000      0.000      0.000      0.135
     10 H        0.000      0.000      0.000      0.000      0.000      0.000
     11 H        0.000      0.000      0.000      0.000      0.000      0.000
     13 H       -0.101      0.004     -0.004      0.000      0.000     -0.105
     16 H       -0.375      0.012     -0.007     -0.022     -0.001     -0.347
     17 H       -0.368      0.012      0.000      0.000      0.000     -0.323
     19 H        0.939     -0.049      0.022      0.086      0.006      1.153
     21 H       -2.831      0.199      0.635     -0.215     -0.026     -2.607
     24 H      -14.085      4.342      2.293      0.712     -0.509     -0.118
     25 H        0.000     13.042      5.236     -0.632     -0.357     -2.356
     27 H       13.042      0.000    -13.580      3.986     13.004      0.070
     28 H        5.236    -13.580      0.000      2.661      4.102      0.284
     30 H       -0.632      3.986      2.661      0.000    -12.958      0.018
     31 H       -0.357     13.004      4.102    -12.958      0.000     -0.321
     33 H       -2.356      0.070      0.284      0.018     -0.321      0.000
     35 H        0.000      0.000      0.000      0.000      0.000      0.000
     37 H        0.271      0.005     -0.036      0.515     -0.037      6.536
     38 H        0.191      0.001     -0.030     -0.015      0.126     12.185
     40 H       -0.013      0.018      0.150     -0.003     -0.033     -0.238
     41 H        0.013      0.022     -0.025      0.013      0.077     -0.425
     42 H       -0.018      0.015     -0.015     -0.257     -0.367     -0.213
     45 H       -0.018     -0.230      0.011     -0.207     -0.477     -0.191
     46 H        0.013      0.048      0.071     -0.339      0.027      0.928
     47 H       -0.057     -0.127     -0.144     -0.156      1.832     -0.467
     48 H       -0.017      0.029      0.024      0.038      0.007     -0.023
     52 H        0.001      0.000      0.003     -0.014     -0.002      0.003
     53 H       -0.001      0.000     -0.000     -0.002     -0.003     -0.007
     57 H        0.000      0.000      0.000      0.001     -0.000      0.000
     58 H        0.000      0.000      0.000     -0.000     -0.000     -0.000
     61 H        0.000      0.000      0.000     -0.000     -0.000      0.000
     62 H        0.000      0.000      0.000     -0.000     -0.000      0.000
     63 H        0.000      0.000      0.000      0.000      0.000      0.000
     64 H        0.000      0.000      0.000      0.000      0.000     -0.000
     65 H        0.000     -0.000      0.000      0.000      0.000      0.000
     66 H        0.000      0.000      0.000      0.000      0.000      0.000
     67 H        0.000      0.000      0.000      0.000      0.000      0.000
     68 H        0.000      0.000      0.000      0.000      0.000      0.000
     69 H        0.000      0.000      0.000      0.000      0.000      0.000
     70 H        0.001     -0.010     -0.011      0.077     -0.045      0.005
     71 H        0.003     -0.007     -0.008     -0.468     -0.092      0.004
     72 H        0.000     -0.004     -0.005      0.060      0.008     -0.000
                 35 H       37 H       38 H       40 H       41 H       42 H  
      3 H       -0.076     -0.044     -0.038      0.000      0.000      0.000
      4 H       -0.167     -0.002     -0.002      0.000      0.000      0.000
      8 H        0.020      0.006      0.004      0.000      0.001      0.000
      9 H       -0.092     -0.002     -0.001      0.000     -0.000      0.000
     10 H       -0.180      0.000     -0.001      0.000      0.000      0.000
     11 H       -0.101     -0.000     -0.000      0.000      0.000      0.000
     13 H       13.742      0.002      0.001      0.000      0.000      0.000
     16 H        0.005      0.007      0.002     -0.000      0.001     -0.001
     17 H        0.007      0.005      0.005      0.000      0.002      0.000
     19 H       -0.004     -0.013      0.114      0.004     -0.009      0.006
     21 H       -0.004      0.045     -0.535     -0.010      0.058     -0.024
     24 H       -0.001     -0.053     -0.079     -0.020      0.066     -0.025
     25 H        0.000      0.271      0.191     -0.013      0.013     -0.018
     27 H        0.000      0.005      0.001      0.018      0.022      0.015
     28 H        0.000     -0.036     -0.030      0.150     -0.025     -0.015
     30 H        0.000      0.515     -0.015     -0.003      0.013     -0.257
     31 H        0.000     -0.037      0.126     -0.033      0.077     -0.367
     33 H        0.000      6.536     12.185     -0.238     -0.425     -0.213
     35 H        0.000      0.000      0.000      0.000      0.000      0.000
     37 H        0.000      0.000    -12.202      9.537      2.632     -0.263
     38 H        0.000    -12.202      0.000      6.590     11.569     -0.480
     40 H        0.000      9.537      6.590      0.000    -13.349      9.295
     41 H        0.000      2.632     11.569    -13.349      0.000      8.879
     42 H        0.000     -0.263     -0.480      9.295      8.879      0.000
     45 H        0.000      0.063      0.039     -0.081      0.005      1.121
     46 H        0.000     -0.173      0.009      0.053      0.039     -0.414
     47 H        0.000      0.062     -0.067     -0.112     -0.067     -0.087
     48 H        0.000      0.109     -0.005     -0.195     -0.414     10.446
     52 H        0.000     -0.017     -0.015      0.234     -0.167     -0.173
     53 H        0.000     -0.003     -0.005     -0.028      0.097      0.111
     57 H        0.000      0.000      0.000      0.002     -0.002     -0.005
     58 H        0.000      0.000      0.000     -0.002     -0.000      0.004
     61 H        0.000      0.000      0.000      0.000     -0.000      0.002
     62 H        0.000      0.000      0.000     -0.002      0.000      0.003
     63 H        0.000      0.000      0.000      0.010     -0.001     -0.019
     64 H        0.000      0.001      0.002     -0.004     -0.003     -0.006
     65 H        0.000      0.001      0.003     -0.013     -0.006     -0.050
     66 H        0.000      0.001      0.002     -0.004     -0.002     -0.005
     67 H        0.000      0.000      0.000     -0.000      0.000      0.000
     68 H        0.000      0.000      0.000     -0.001     -0.000     -0.002
     69 H        0.000      0.000      0.000      0.002      0.001     -0.010
     70 H        0.000      0.066      0.015     -0.050      0.004     -0.438
     71 H        0.000     -0.007      0.001      0.084      0.030     -0.202
     72 H        0.000     -0.021      0.037      0.019     -0.047     -0.360
                 45 H       46 H       47 H       48 H       52 H       53 H  
      3 H       -0.021      0.000      0.000      0.000      0.000      0.000
      4 H       -0.001     -0.001      0.001      0.000      0.000      0.000
      8 H        0.002      0.002     -0.003      0.000      0.000      0.000
      9 H       -0.001      0.000      0.001      0.000      0.000      0.000
     10 H       -0.001      0.000      0.000      0.000      0.000      0.000
     11 H       -0.000      0.000      0.000      0.000      0.000      0.000
     13 H        0.001      0.001     -0.001      0.000      0.000      0.000
     16 H        0.002      0.002     -0.004      0.000      0.000      0.000
     17 H        0.003      0.000     -0.004      0.000      0.000      0.000
     19 H       -0.010     -0.007      0.011      0.007      0.000      0.000
     21 H        0.033      0.015     -0.015     -0.018      0.001      0.000
     24 H       -0.023     -0.017     -0.023      0.005      0.000      0.000
     25 H       -0.018      0.013     -0.057     -0.017      0.001     -0.001
     27 H       -0.230      0.048     -0.127      0.029      0.000      0.000
     28 H        0.011      0.071     -0.144      0.024      0.003     -0.000
     30 H       -0.207     -0.339     -0.156      0.038     -0.014     -0.002
     31 H       -0.477      0.027      1.832      0.007     -0.002     -0.003
     33 H       -0.191      0.928     -0.467     -0.023      0.003     -0.007
     35 H        0.000      0.000      0.000      0.000      0.000      0.000
     37 H        0.063     -0.173      0.062      0.109     -0.017     -0.003
     38 H        0.039      0.009     -0.067     -0.005     -0.015     -0.005
     40 H       -0.081      0.053     -0.112     -0.195      0.234     -0.028
     41 H        0.005      0.039     -0.067     -0.414     -0.167      0.097
     42 H        1.121     -0.414     -0.087     10.446     -0.173      0.111
     45 H        0.000    -12.912    -13.597     -0.176      0.019     -0.035
     46 H      -12.912      0.000    -12.956     -0.109      0.004     -0.009
     47 H      -13.597    -12.956      0.000     -0.202      0.006     -0.015
     48 H       -0.176     -0.109     -0.202      0.000      5.101     -2.224
     52 H        0.019      0.004      0.006      5.101      0.000     16.621
     53 H       -0.035     -0.009     -0.015     -2.224     16.621      0.000
     57 H        0.000     -0.000      0.001      0.095     -0.687      9.874
     58 H        0.000     -0.000     -0.001     -0.071      0.075     -0.316
     61 H        0.000      0.000     -0.000     -0.014      0.101     -0.148
     62 H        0.000     -0.001      0.000     -0.081      0.091     -0.305
     63 H        0.000      0.000      0.000      0.679     -0.381     -0.048
     64 H        0.000      0.000     -0.000     -0.037      0.067     -0.047
     65 H        0.000      0.000      0.000     -0.001      0.028      0.019
     66 H        0.000      0.000      0.000      0.012      0.022     -0.001
     67 H        0.000      0.000      0.000      0.000      0.039      0.129
     68 H        0.000      0.000      0.000      0.010     -0.011      0.037
     69 H        0.000      0.000      0.000      0.089     -0.095      0.046
     70 H       -0.029     -0.021     -0.011      1.874     -0.353     -0.197
     71 H       -0.059     -0.230     -0.017      5.274      0.825     -0.186
     72 H       -0.030     -0.039      0.031     12.543     -0.522     -0.174
                 57 H       58 H       61 H       62 H       63 H       64 H  
      3 H        0.000      0.000      0.000      0.000      0.000      0.000
      4 H        0.000      0.000      0.000      0.000      0.000      0.000
      8 H        0.000      0.000      0.000      0.000      0.000      0.000
      9 H        0.000      0.000      0.000      0.000      0.000      0.000
     10 H        0.000      0.000      0.000      0.000      0.000      0.000
     11 H        0.000      0.000      0.000      0.000      0.000      0.000
     13 H        0.000      0.000      0.000      0.000      0.000      0.000
     16 H        0.000      0.000      0.000      0.000      0.000      0.000
     17 H        0.000      0.000      0.000      0.000      0.000      0.000
     19 H        0.000      0.000      0.000      0.000      0.000      0.000
     21 H        0.000      0.000      0.000      0.000      0.000      0.000
     24 H        0.000      0.000      0.000      0.000      0.000      0.000
     25 H        0.000      0.000      0.000      0.000      0.000      0.000
     27 H        0.000      0.000      0.000      0.000      0.000      0.000
     28 H        0.000      0.000      0.000      0.000      0.000      0.000
     30 H        0.001     -0.000     -0.000     -0.000      0.000      0.000
     31 H       -0.000     -0.000     -0.000     -0.000      0.000      0.000
     33 H        0.000     -0.000      0.000      0.000      0.000     -0.000
     35 H        0.000      0.000      0.000      0.000      0.000      0.000
     37 H        0.000      0.000      0.000      0.000      0.000      0.001
     38 H        0.000      0.000      0.000      0.000      0.000      0.002
     40 H        0.002     -0.002      0.000     -0.002      0.010     -0.004
     41 H       -0.002     -0.000     -0.000      0.000     -0.001     -0.003
     42 H       -0.005      0.004      0.002      0.003     -0.019     -0.006
     45 H        0.000      0.000      0.000      0.000      0.000      0.000
     46 H       -0.000     -0.000      0.000     -0.001      0.000      0.000
     47 H        0.001     -0.001     -0.000      0.000      0.000     -0.000
     48 H        0.095     -0.071     -0.014     -0.081      0.679     -0.037
     52 H       -0.687      0.075      0.101      0.091     -0.381      0.067
     53 H        9.874     -0.316     -0.148     -0.305     -0.048     -0.047
     57 H        0.000      9.945      2.641     12.735      4.026     -0.300
     58 H        9.945      0.000     -0.507     -0.336     -0.195      3.105
     61 H        2.641     -0.507      0.000    -12.629    -12.936      0.707
     62 H       12.735     -0.336    -12.629      0.000    -12.253     -0.078
     63 H        4.026     -0.195    -12.936    -12.253      0.000      0.032
     64 H       -0.300      3.105      0.707     -0.078      0.032      0.000
     65 H       -0.216      3.492      0.034      0.033      0.018    -12.446
     66 H       -0.383     12.793     -0.047      0.070      0.059    -12.516
     67 H       -0.314     12.672      0.006      0.097     -0.030     -0.216
     68 H       -0.194      4.230      0.009     -0.025     -0.260      0.025
     69 H       -0.463      2.484     -0.086      0.009     -0.073     -0.252
     70 H        0.091      0.000     -0.000      0.003     -0.011      0.003
     71 H        0.266      0.005     -0.003      0.001     -0.015      0.003
     72 H        0.088     -0.001     -0.001     -0.002     -0.009     -0.000
                 65 H       66 H       67 H       68 H       69 H       70 H  
      3 H        0.000      0.000      0.000      0.000      0.000      0.000
      4 H        0.000      0.000      0.000      0.000      0.000      0.000
      8 H        0.000      0.000      0.000      0.000      0.000      0.000
      9 H        0.000      0.000      0.000      0.000      0.000      0.000
     10 H        0.000      0.000      0.000      0.000      0.000      0.000
     11 H        0.000      0.000      0.000      0.000      0.000      0.000
     13 H        0.000      0.000      0.000      0.000      0.000      0.000
     16 H        0.000      0.000      0.000      0.000      0.000      0.000
     17 H        0.000      0.000      0.000      0.000      0.000      0.000
     19 H        0.000      0.000      0.000      0.000      0.000      0.000
     21 H        0.000      0.000      0.000      0.000      0.000      0.003
     24 H        0.000      0.000      0.000      0.000      0.000      0.036
     25 H        0.000      0.000      0.000      0.000      0.000      0.001
     27 H       -0.000      0.000      0.000      0.000      0.000     -0.010
     28 H        0.000      0.000      0.000      0.000      0.000     -0.011
     30 H        0.000      0.000      0.000      0.000      0.000      0.077
     31 H        0.000      0.000      0.000      0.000      0.000     -0.045
     33 H        0.000      0.000      0.000      0.000      0.000      0.005
     35 H        0.000      0.000      0.000      0.000      0.000      0.000
     37 H        0.001      0.001      0.000      0.000      0.000      0.066
     38 H        0.003      0.002      0.000      0.000      0.000      0.015
     40 H       -0.013     -0.004     -0.000     -0.001      0.002     -0.050
     41 H       -0.006     -0.002      0.000     -0.000      0.001      0.004
     42 H       -0.050     -0.005      0.000     -0.002     -0.010     -0.438
     45 H        0.000      0.000      0.000      0.000      0.000     -0.029
     46 H        0.000      0.000      0.000      0.000      0.000     -0.021
     47 H        0.000      0.000      0.000      0.000      0.000     -0.011
     48 H       -0.001      0.012      0.000      0.010      0.089      1.874
     52 H        0.028      0.022      0.039     -0.011     -0.095     -0.353
     53 H        0.019     -0.001      0.129      0.037      0.046     -0.197
     57 H       -0.216     -0.383     -0.314     -0.194     -0.463      0.091
     58 H        3.492     12.793     12.672      4.230      2.484      0.000
     61 H        0.034     -0.047      0.006      0.009     -0.086     -0.000
     62 H        0.033      0.070      0.097     -0.025      0.009      0.003
     63 H        0.018      0.059     -0.030     -0.260     -0.073     -0.011
     64 H      -12.446    -12.516     -0.216      0.025     -0.252      0.003
     65 H        0.000    -12.580     -0.382      2.884      0.204      0.001
     66 H      -12.580      0.000     -0.301     -0.297     -0.220      0.001
     67 H       -0.382     -0.301      0.000    -12.036    -12.822      0.000
     68 H        2.884     -0.297    -12.036      0.000    -12.987      0.000
     69 H        0.204     -0.220    -12.822    -12.987      0.000     -0.005
     70 H        0.001      0.001      0.000      0.000     -0.005      0.000
     71 H        0.003     -0.000      0.000      0.000      0.000    -13.603
     72 H       -0.000     -0.000      0.000     -0.000     -0.001    -12.386
                 71 H       72 H  
      3 H        0.000      0.000
      4 H        0.000      0.000
      8 H        0.000      0.000
      9 H        0.000      0.000
     10 H        0.000      0.000
     11 H        0.000      0.000
     13 H        0.000      0.000
     16 H        0.000      0.000
     17 H        0.000      0.000
     19 H       -0.000      0.000
     21 H        0.001      0.001
     24 H        0.020      0.012
     25 H        0.003      0.000
     27 H       -0.007     -0.004
     28 H       -0.008     -0.005
     30 H       -0.468      0.060
     31 H       -0.092      0.008
     33 H        0.004     -0.000
     35 H        0.000      0.000
     37 H       -0.007     -0.021
     38 H        0.001      0.037
     40 H        0.084      0.019
     41 H        0.030     -0.047
     42 H       -0.202     -0.360
     45 H       -0.059     -0.030
     46 H       -0.230     -0.039
     47 H       -0.017      0.031
     48 H        5.274     12.543
     52 H        0.825     -0.522
     53 H       -0.186     -0.174
     57 H        0.266      0.088
     58 H        0.005     -0.001
     61 H       -0.003     -0.001
     62 H        0.001     -0.002
     63 H       -0.015     -0.009
     64 H        0.003     -0.000
     65 H        0.003     -0.000
     66 H       -0.000     -0.000
     67 H        0.000      0.000
     68 H        0.000     -0.000
     69 H        0.000     -0.001
     70 H      -13.603    -12.386
     71 H        0.000    -12.747
     72 H      -12.747      0.000

Maximum memory used throughout the entire EPRNMR-calculation: 966.9 MB

Timings for individual modules:

Sum of individual times         ...      393.345 sec (=   6.556 min)
GTO integral calculation        ...        0.569 sec (=   0.009 min)   0.1 %
SCF iterations                  ...      102.537 sec (=   1.709 min)  26.1 %
EPR/NMR calculation             ...      290.240 sec (=   4.837 min)  73.8 %
                             ****ORCA TERMINATED NORMALLY****
TOTAL RUN TIME: 0 days 0 hours 6 minutes 33 seconds 806 msec
