
                                 *****************
                                 * O   R   C   A *
                                 *****************

                                            #,                                       
                                            ###                                      
                                            ####                                     
                                            #####                                    
                                            ######                                   
                                           ########,                                 
                                     ,,################,,,,,                         
                               ,,#################################,,                 
                          ,,##########################################,,             
                       ,#########################################, ''#####,          
                    ,#############################################,,   '####,        
                  ,##################################################,,,,####,       
                ,###########''''           ''''###############################       
              ,#####''   ,,,,##########,,,,          '''####'''          '####       
            ,##' ,,,,###########################,,,                        '##       
           ' ,,###''''                  '''############,,,                           
         ,,##''                                '''############,,,,        ,,,,,,###''
      ,#''                                            '''#######################'''  
     '                                                          ''''####''''         
             ,#######,   #######,   ,#######,      ##                                
            ,#'     '#,  ##    ##  ,#'     '#,    #''#        ,####,   ,####,        
            ##       ##  ##   ,#'  ##            #'  '#       #'       #'  '#        
            ##       ##  #######   ##           ,######,      #####,   #    #        
            '#,     ,#'  ##    ##  '#,     ,#' ,#      #,     #,   #   #,  ,#        
             '#######'   ##     ##  '#######'  #'      '#     '####' # '####'        



                #########################################################
                #                        -***-                          #
                #          Department of theory and spectroscopy        #
                #                                                       #
                #                      Frank Neese                      #
                #                                                       #
                #     Directorship, Architecture, Infrastructure        #
                #                    SHARK, DRIVERS                     #
                #        Core code/Algorithms in most modules           #
                #                                                       #
                #        Max Planck Institute fuer Kohlenforschung      #
                #                Kaiser Wilhelm Platz 1                 #
                #                 D-45470 Muelheim/Ruhr                 #
                #                      Germany                          #
                #                                                       #
                #                  All rights reserved                  #
                #                        -***-                          #
                #########################################################


                         Program Version 6.0.0  -   RELEASE  -


 With contributions from (in alphabetic order):
   Daniel Aravena         : Magnetic Suceptibility
   Michael Atanasov       : Ab Initio Ligand Field Theory (pilot matlab implementation)
   Alexander A. Auer      : GIAO ZORA, VPT2 properties, NMR spectrum
   Ute Becker             : All parallelization in ORCA, NUMFREQ, NUMCALC
   Giovanni Bistoni       : ED, misc. LED, open-shell LED, HFLD
   Martin Brehm           : Molecular dynamics
   Dmytro Bykov           : pre 5.0 version of the SCF Hessian
   Marcos Casanova-Páez   : Triplet and SCS-CIS(D). UHF-(DLPNO)-IP/EA/STEOM-CCSD. UHF-CVS-IP/STEOM-CCSD
   Vijay G. Chilkuri      : MRCI spin determinant printing, contributions to CSF-ICE
   Pauline Colinet        : FMM embedding
   Dipayan Datta          : RHF DLPNO-CCSD density
   Achintya Kumar Dutta   : EOM-CC, STEOM-CC
   Nicolas Foglia         : Exact transition moments, OPA infrastructure, MCD improvements
   Dmitry Ganyushin       : Spin-Orbit,Spin-Spin,Magnetic field MRCI
   Miquel Garcia          : C-PCM and meta-GGA Hessian, CCSD/C-PCM, Gaussian charge scheme
   Tiago L. C. Gouveia    : GS-ROHF, GS-ROCIS
   Yang Guo               : DLPNO-NEVPT2, F12-NEVPT2, CIM, IAO-localization
   Andreas Hansen         : Spin unrestricted coupled pair/coupled cluster methods
   Ingolf Harden          : AUTO-CI MPn and infrastructure 
   Benjamin Helmich-Paris : MC-RPA, TRAH-(SCF,CASSCF), AVAS, COSX integrals, SCF dyn. polar.
   Lee Huntington         : MR-EOM, pCC
   Robert Izsak           : Overlap fitted RIJCOSX, COSX-SCS-MP3, EOM
   Riya Kayal             : Wick's Theorem for AUTO-CI, AUTO-CI UHF-CCSDT
   Emily Kempfer          : AUTO-CI, RHF CISDT and CCSDT
   Christian Kollmar      : KDIIS, OOCD, Brueckner-CCSD(T), CCSD density, CASPT2, CASPT2-K, improved NEVPT2
   Axel Koslowski         : Symmetry handling
   Simone Kossmann        : Meta GGA functionals, TD-DFT gradient, OOMP2, (MP2 Hessian; deprecated post 5.0)
   Lucas Lang             : DCDCAS
   Marvin Lechner         : AUTO-CI (C++ implementation), FIC-MRCC
   Spencer Leger          : CASSCF response
   Dagmar Lenk            : GEPOL surface, SMD, ORCA-2-JSON
   Dimitrios Liakos       : Extrapolation schemes; Compound Job, initial MDCI parallelization
   Dimitrios Manganas     : Further ROCIS development; embedding schemes. LFT, Crystal Embedding
   Dimitrios Pantazis     : SARC Basis sets
   Anastasios Papadopoulos: AUTO-CI, single reference methods and gradients
   Taras Petrenko         : pre 6.0 DFT Hessian and TD-DFT gradient, (ASA, deprecated), ECA, 1-Electron XAS/XES, NRVS
   Peter Pinski           : DLPNO-MP2, DLPNO-MP2 Gradient
   Christoph Reimann      : Effective Core Potentials
   Marius Retegan         : Local ZFS, SOC
   Christoph Riplinger    : Optimizer, TS searches, QM/MM, DLPNO-CCSD(T), (RO)-DLPNO pert. Triples
   Michael Roemelt        : Original ROCIS implementation
   Masaaki Saitow         : Open-shell DLPNO-CCSD energy and density
   Barbara Sandhoefer     : DKH picture change effects
   Kantharuban Sivalingam : CASSCF convergence/infrastructure, NEVPT2 and variants, FIC-MRCI
   Bernardo de Souza      : ESD, SOC TD-DFT
   Georgi Stoychev        : AutoAux, RI-MP2 NMR, DLPNO-MP2 response, X2C
   Van Anh Tran           : RI-MP2 g-tensors
   Willem Van den Heuvel  : Paramagnetic NMR
   Zikuan Wang            : NOTCH, Electric field optimization 
   Frank Wennmohs         : Technical directorship and infrastructure
   Hang Xu                : AUTO-CI-Response properties 


 We gratefully acknowledge several colleagues who have allowed us to
 interface, adapt or use parts of their codes:
   Stefan Grimme, W. Hujo, H. Kruse, P. Pracht,  : VdW corrections, initial TS optimization,
                  C. Bannwarth, S. Ehlert,         DFT functionals, gCP, sTDA/sTD-DF
                  L. Wittmann, M. Mueller
   Ed Valeev, F. Pavosevic, A. Kumar             : LibInt (2-el integral package), F12 methods
   Garnet Chan, S. Sharma, J. Yang, R. Olivares  : DMRG
   Ulf Ekstrom                                   : XCFun DFT Library
   Mihaly Kallay                                 : mrcc  (arbitrary order and MRCC methods)
   Frank Weinhold                                : gennbo (NPA and NBO analysis)
   Simon Mueller                                 : openCOSMO-RS
   Christopher J. Cramer and Donald G. Truhlar   : smd solvation model
   Lars Goerigk                                  : TD-DFT with DH, B97 family of functionals
   V. Asgeirsson, H. Jonsson                     : NEB implementation
   FAccTs GmbH                                   : IRC, NEB, NEB-TS, DLPNO-Multilevel, CI-OPT
                                                   MM, QMMM, 2- and 3-layer-ONIOM, Crystal-QMMM,
                                                   LR-CPCM, SF, NACMEs, symmetry and pop. for TD-DFT,
                                                   nearIR, NL-DFT gradient (VV10), updates on ESD,
                                                   ML-optimized integration grids, MBIS, APM,
                                                   GOAT, DOCKER, SOLVATOR, interface openCOSMO-RS
   S Lehtola, MJT Oliveira, MAL Marques          : LibXC Library
   Liviu Ungur et al                             : ANISO software


 Your calculation uses the libint2 library for the computation of 2-el integrals
 For citations please refer to: http://libint.valeyev.net

 Your ORCA version has been built with support for libXC version: 6.2.2
 For citations please refer to: https://libxc.gitlab.io

 This ORCA versions uses:
   CBLAS   interface :  Fast vector & matrix operations
   LAPACKE interface :  Fast linear algebra routines
   SCALAPACK package :  Parallel linear algebra routines
   Shared memory     :  Shared parallel matrices
   BLAS/LAPACK       :  OpenBLAS 0.3.27  USE64BITINT DYNAMIC_ARCH NO_AFFINITY Zen SINGLE_THREADED
        Core in use  :  Zen
   Copyright (c) 2011-2014, The OpenBLAS Project


NOTE: MaxCore=8000 MB was set to SCF,MP2,MDCI,CIPSI,MRCI and CIS
      => If you want to overwrite this, your respective input block should be placed after the MaxCore statement
Your calculation utilizes the atom-pairwise dispersion correction
based on EEQ partial charges (D4)


================================================================================

----- Orbital basis set information -----
Your calculation utilizes the basis: pcJ-0
   F. Jensen, Theor. Chem. Acc. 126, 371 (2010).

----- AuxJ basis set information -----
Your calculation utilizes the auxiliary basis: def2/J
   F. Weigend, Phys. Chem. Chem. Phys. 8, 1057 (2006).

================================================================================
                                        WARNINGS
                       Please study these warnings very carefully!
================================================================================


================================================================================
                                       INPUT FILE
================================================================================
NAME = inpJ
|  1> ! pbe0
|  2> ! D4
|  3> ! pcJ-0
|  4> ! def2/J RIJCOSX
|  5> ! DEFGRID2
|  6> ! scfconv7
|  7> ! smallprint printgap noloewdin
|  8> ! NOSOSCF
|  9> %MaxCore 8000
| 10> %output
| 11>        print[P_BondOrder_M] 1
| 12>        print[P_Mayer] 1
| 13>        print[P_basis] 2
| 14> end
| 15> %pal
| 16>     nprocs 4
| 17> end
| 18> ! CPCM(chloroform)
| 19> *xyz 0 1
| 20> C   -5.0048251900   0.3546378800   0.3352610700
| 21> C   -6.4215642700  -0.0386852000  -0.0107683400
| 22> C   -6.9472907000   0.7414970100  -1.2218645000
| 23> H   -7.0843951100   0.1936421000   0.8400927500
| 24> H   -6.4887352900  -1.1152955500  -0.2022594100
| 25> C   -4.7938798600   1.8126338200   0.4590143900
| 26> C   -5.3658507200   2.6266023500  -0.6798217400
| 27> C   -6.8207919800   2.2414204600  -0.9799961200
| 28> H   -4.7629540800   2.4347586200  -1.5804543100
| 29> H   -5.2878919700   3.6959137200  -0.4567434300
| 30> H   -7.1853394900   2.7891332000  -1.8570191100
| 31> H   -7.4590883500   2.5153023900  -0.1263764700
| 32> O   -8.2936676100   0.3639438200  -1.5381265400
| 33> H   -6.3606714600   0.4639830700  -2.1088368500
| 34> C   -4.0356632100  -0.5821473000   0.4644119000
| 35> C   -4.1893972800   2.3825379500   1.5077776800
| 36> H   -3.8066926900   1.7879010200   2.3325796600
| 37> H   -4.0745135400   3.4622174900   1.5679887500
| 38> C   -2.6306794200  -0.3382712600   0.6955992900
| 39> H   -4.3491908900  -1.6176636700   0.3395154400
| 40> C   -1.6778221900  -1.2735890400   0.8971844700
| 41> H   -2.3230533200   0.7049307500   0.6930164000
| 42> C   -1.9086404400  -2.7611728400   0.9790603100
| 43> C   -0.9880801400  -3.5350452200   0.0171091000
| 44> H   -2.9519834600  -3.0307799000   0.7939361600
| 45> H   -1.6762796500  -3.0808052700   2.0075865000
| 46> C    0.4873051700  -3.1388470500   0.1632845300
| 47> H   -1.3187912800  -3.3588051500  -1.0142986900
| 48> H   -1.0986605900  -4.6109068900   0.2002335300
| 49> C    0.6883824500  -1.6230578300   0.0234133400
| 50> H    1.0772384300  -3.6905630500  -0.5755410000
| 51> H    0.8481230300  -3.4464416400   1.1564145000
| 52> C   -0.2306020100  -0.9323459500   1.0811443600
| 53> H    0.0732937000  -1.3802317400   2.0453391100
| 54> C    0.2389287600   0.5185185300   1.0926598300
| 55> H   -8.8475283400   0.5975863900  -0.7812080500
| 56> C    1.7679379200   0.4066468700   0.8748528200
| 57> H   -0.0212244000   1.0292652100   2.0257171400
| 58> H   -0.2240931000   1.0827427000   0.2755136200
| 59> C    2.0692173900  -1.0714662100   0.4781224900
| 60> H    2.3250213300   0.6879998300   1.7740851000
| 61> H    2.0928483800   1.0870888700   0.0783556200
| 62> H    2.3442006700  -1.6281197700   1.3886391100
| 63> C    3.2731107700  -1.1807378000  -0.4897646400
| 64> C    0.3468943100  -1.1470358600  -1.3948149900
| 65> H   -0.7203243300  -1.2607532600  -1.6088037000
| 66> H    0.9037530100  -1.7232221700  -2.1417513200
| 67> H    0.5969270300  -0.0909033300  -1.5369133700
| 68> H    3.0197996700  -0.5842194100  -1.3823946700
| 69> C    3.5628882100  -2.6110515900  -0.9407005700
| 70> C    4.4664284500  -0.5104327000   0.1519530700
| 71> C    5.6023854500  -1.1011377300   0.5252400200
| 72> H    4.3411497900   0.5554391300   0.3356525600
| 73> H    5.7231459100  -2.1707793800   0.3442355500
| 74> C    6.8003971400  -0.4633326300   1.1896874700
| 75> C    7.2558394300  -1.3529944400   2.3591407000
| 76> C    6.6150264900   1.0165485900   1.5880937400
| 77> H    7.6141647700  -0.4856061900   0.4441754500
| 78> H    6.1597518500   1.5231117600   0.7248901300
| 79> C    7.9609346400   1.7023311900   1.8440059900
| 80> C    5.6893035900   1.2026359000   2.7950522700
| 81> H    7.4971437200  -2.3587504800   1.9986334000
| 82> H    6.4658430500  -1.4509586600   3.1113587300
| 83> H    8.1485304000  -0.9510681800   2.8487496200
| 84> H    7.8167741300   2.7712818200   2.0372102100
| 85> H    8.6297873200   1.6011610600   0.9817024800
| 86> H    8.4669348000   1.2766514400   2.7180823500
| 87> H    6.1773948900   0.8619258200   3.7155450000
| 88> H    4.7547837000   0.6439298100   2.6833858000
| 89> H    5.4401688300   2.2615218400   2.9266956600
| 90> H    4.4877908400  -2.6521614000  -1.5260669000
| 91> H    2.7575677100  -2.9950081400  -1.5698801800
| 92> H    3.6728640600  -3.2855577900  -0.0832720800
| 93> *
| 94> %eprnmr
| 95>  Nuclei = all C { ssfc }
| 96>  SpinSpinRThresh 8.0
| 97> end
| 98> 
| 99>                          ****END OF INPUT****
================================================================================

                       ****************************
                       * Single Point Calculation *
                       ****************************

---------------------------------
CARTESIAN COORDINATES (ANGSTROEM)
---------------------------------
  C     -5.004825    0.354638    0.335261
  C     -6.421564   -0.038685   -0.010768
  C     -6.947291    0.741497   -1.221864
  H     -7.084395    0.193642    0.840093
  H     -6.488735   -1.115296   -0.202259
  C     -4.793880    1.812634    0.459014
  C     -5.365851    2.626602   -0.679822
  C     -6.820792    2.241420   -0.979996
  H     -4.762954    2.434759   -1.580454
  H     -5.287892    3.695914   -0.456743
  H     -7.185339    2.789133   -1.857019
  H     -7.459088    2.515302   -0.126376
  O     -8.293668    0.363944   -1.538127
  H     -6.360671    0.463983   -2.108837
  C     -4.035663   -0.582147    0.464412
  C     -4.189397    2.382538    1.507778
  H     -3.806693    1.787901    2.332580
  H     -4.074514    3.462217    1.567989
  C     -2.630679   -0.338271    0.695599
  H     -4.349191   -1.617664    0.339515
  C     -1.677822   -1.273589    0.897184
  H     -2.323053    0.704931    0.693016
  C     -1.908640   -2.761173    0.979060
  C     -0.988080   -3.535045    0.017109
  H     -2.951983   -3.030780    0.793936
  H     -1.676280   -3.080805    2.007586
  C      0.487305   -3.138847    0.163285
  H     -1.318791   -3.358805   -1.014299
  H     -1.098661   -4.610907    0.200234
  C      0.688382   -1.623058    0.023413
  H      1.077238   -3.690563   -0.575541
  H      0.848123   -3.446442    1.156414
  C     -0.230602   -0.932346    1.081144
  H      0.073294   -1.380232    2.045339
  C      0.238929    0.518519    1.092660
  H     -8.847528    0.597586   -0.781208
  C      1.767938    0.406647    0.874853
  H     -0.021224    1.029265    2.025717
  H     -0.224093    1.082743    0.275514
  C      2.069217   -1.071466    0.478122
  H      2.325021    0.688000    1.774085
  H      2.092848    1.087089    0.078356
  H      2.344201   -1.628120    1.388639
  C      3.273111   -1.180738   -0.489765
  C      0.346894   -1.147036   -1.394815
  H     -0.720324   -1.260753   -1.608804
  H      0.903753   -1.723222   -2.141751
  H      0.596927   -0.090903   -1.536913
  H      3.019800   -0.584219   -1.382395
  C      3.562888   -2.611052   -0.940701
  C      4.466428   -0.510433    0.151953
  C      5.602385   -1.101138    0.525240
  H      4.341150    0.555439    0.335653
  H      5.723146   -2.170779    0.344236
  C      6.800397   -0.463333    1.189687
  C      7.255839   -1.352994    2.359141
  C      6.615026    1.016549    1.588094
  H      7.614165   -0.485606    0.444175
  H      6.159752    1.523112    0.724890
  C      7.960935    1.702331    1.844006
  C      5.689304    1.202636    2.795052
  H      7.497144   -2.358750    1.998633
  H      6.465843   -1.450959    3.111359
  H      8.148530   -0.951068    2.848750
  H      7.816774    2.771282    2.037210
  H      8.629787    1.601161    0.981702
  H      8.466935    1.276651    2.718082
  H      6.177395    0.861926    3.715545
  H      4.754784    0.643930    2.683386
  H      5.440169    2.261522    2.926696
  H      4.487791   -2.652161   -1.526067
  H      2.757568   -2.995008   -1.569880
  H      3.672864   -3.285558   -0.083272

----------------------------
CARTESIAN COORDINATES (A.U.)
----------------------------
  NO LB      ZA    FRAG     MASS         X           Y           Z
   0 C     6.0000    0    12.011   -9.457749    0.670168    0.633552
   1 C     6.0000    0    12.011  -12.134998   -0.073104   -0.020349
   2 C     6.0000    0    12.011  -13.128477    1.401226   -2.308989
   3 H     1.0000    0     1.008  -13.387567    0.365931    1.587545
   4 H     1.0000    0     1.008  -12.261933   -2.107603   -0.382215
   5 C     6.0000    0    12.011   -9.059120    3.425382    0.867411
   6 C     6.0000    0    12.011  -10.139988    4.963559   -1.284677
   7 C     6.0000    0    12.011  -12.889429    4.235671   -1.851924
   8 H     1.0000    0     1.008   -9.000679    4.601027   -2.986626
   9 H     1.0000    0     1.008   -9.992668    6.984265   -0.863120
  10 H     1.0000    0     1.008  -13.578324    5.270698   -3.509258
  11 H     1.0000    0     1.008  -14.095634    4.753233   -0.238817
  12 O     8.0000    0    15.999  -15.672760    0.687754   -2.906638
  13 H     1.0000    0     1.008  -12.019927    0.876801   -3.985124
  14 C     6.0000    0    12.011   -7.626298   -1.100099    0.877611
  15 C     6.0000    0    12.011   -7.916814    4.502344    2.849287
  16 H     1.0000    0     1.008   -7.193607    3.378643    4.407937
  17 H     1.0000    0     1.008   -7.699715    6.542643    2.963069
  18 C     6.0000    0    12.011   -4.971264   -0.639240    1.314492
  19 H     1.0000    0     1.008   -8.218780   -3.056941    0.641591
  20 C     6.0000    0    12.011   -3.170624   -2.406734    1.695433
  21 H     1.0000    0     1.008   -4.389935    1.332126    1.309611
  22 C     6.0000    0    12.011   -3.606808   -5.217860    1.850156
  23 C     6.0000    0    12.011   -1.867201   -6.680267    0.032332
  24 H     1.0000    0     1.008   -5.578440   -5.727344    1.500322
  25 H     1.0000    0     1.008   -3.167709   -5.821878    3.793789
  26 C     6.0000    0    12.011    0.920873   -5.931561    0.308563
  27 H     1.0000    0     1.008   -2.492154   -6.347222   -1.916747
  28 H     1.0000    0     1.008   -2.076168   -8.713351    0.378387
  29 C     6.0000    0    12.011    1.300854   -3.067135    0.044245
  30 H     1.0000    0     1.008    2.035686   -6.974153   -1.087615
  31 H     1.0000    0     1.008    1.602720   -6.512831    2.185307
  32 C     6.0000    0    12.011   -0.435775   -1.761879    2.043067
  33 H     1.0000    0     1.008    0.138505   -2.608260    3.865131
  34 C     6.0000    0    12.011    0.451510    0.979858    2.064828
  35 H     1.0000    0     1.008  -16.719406    1.129275   -1.476269
  36 C     6.0000    0    12.011    3.340918    0.768451    1.653232
  37 H     1.0000    0     1.008   -0.040108    1.945029    3.828051
  38 H     1.0000    0     1.008   -0.423475    2.046087    0.520645
  39 C     6.0000    0    12.011    3.910254   -2.024778    0.903521
  40 H     1.0000    0     1.008    4.393654    1.300131    3.352535
  41 H     1.0000    0     1.008    3.954910    2.054300    0.148071
  42 H     1.0000    0     1.008    4.429897   -3.076700    2.624148
  43 C     6.0000    0    12.011    6.185283   -2.231271   -0.925521
  44 C     6.0000    0    12.011    0.655535   -2.167584   -2.635818
  45 H     1.0000    0     1.008   -1.361216   -2.382478   -3.040198
  46 H     1.0000    0     1.008    1.707846   -3.256418   -4.047323
  47 H     1.0000    0     1.008    1.128029   -0.171782   -2.904345
  48 H     1.0000    0     1.008    5.706594   -1.104015   -2.612347
  49 C     6.0000    0    12.011    6.732883   -4.934172   -1.777666
  50 C     6.0000    0    12.011    8.440327   -0.964578    0.287150
  51 C     6.0000    0    12.011   10.586974   -2.080849    0.992560
  52 H     1.0000    0     1.008    8.203584    1.049628    0.634291
  53 H     1.0000    0     1.008   10.815178   -4.102179    0.650511
  54 C     6.0000    0    12.011   12.850888   -0.875572    2.248184
  55 C     6.0000    0    12.011   13.711549   -2.556789    4.458130
  56 C     6.0000    0    12.011   12.500588    1.920998    3.001062
  57 H     1.0000    0     1.008   14.388686   -0.917663    0.839370
  58 H     1.0000    0     1.008   11.640244    2.878264    1.369844
  59 C     6.0000    0    12.011   15.043986    3.216940    3.484666
  60 C     6.0000    0    12.011   10.751226    2.272652    5.281883
  61 H     1.0000    0     1.008   14.167548   -4.457392    3.776870
  62 H     1.0000    0     1.008   12.218673   -2.741914    5.879616
  63 H     1.0000    0     1.008   15.398491   -1.797258    5.383357
  64 H     1.0000    0     1.008   14.771562    5.236964    3.849769
  65 H     1.0000    0     1.008   16.307935    3.025756    1.855149
  66 H     1.0000    0     1.008   16.000188    2.412522    5.136431
  67 H     1.0000    0     1.008   11.673585    1.628804    7.021362
  68 H     1.0000    0     1.008    8.985239    1.216851    5.070864
  69 H     1.0000    0     1.008   10.280429    4.273657    5.530653
  70 H     1.0000    0     1.008    8.480696   -5.011859   -2.883849
  71 H     1.0000    0     1.008    5.211048   -5.659745   -2.966644
  72 H     1.0000    0     1.008    6.940707   -6.208804   -0.157361

--------------------------------
INTERNAL COORDINATES (ANGSTROEM)
--------------------------------
 C      0   0   0     0.000000000000     0.00000000     0.00000000
 C      1   0   0     1.510492972061     0.00000000     0.00000000
 C      2   1   0     1.533566584393   111.71415367     0.00000000
 H      2   1   3     1.103306526427   109.38895502   241.45405112
 H      2   1   3     1.095568629318   110.69754458   122.86718261
 C      1   2   3     1.478365644053   114.19316823    50.56250317
 C      6   1   2     1.512165058290   114.44686568   312.10162854
 C      3   2   1     1.524556524129   110.29073358   304.90755316
 H      7   6   1     1.100648627587   108.37549307   289.80386445
 H      7   6   1     1.095111092586   110.19764445   172.63203925
 H      8   3   2     1.096381985256   109.69398457   179.16835030
 H      8   3   2     1.100499920219   108.64973540   296.60673911
 O      3   2   1     1.433631358825   111.23446247   180.21386508
 H      3   2   1     1.099025053990   109.02065353    65.04428435
 C      1   2   3     1.354075830164   120.86485143   232.73756497
 C      6   1   2     1.337944074080   123.37862668   129.91742155
 H     16   6   1     1.086441065101   121.40628134     0.65469926
 H     16   6   1     1.087442667804   120.93377479   181.35210406
 C     15   1   2     1.444611567981   126.48231183   175.24590211
 H     15   1   2     1.089124824979   116.15466057   357.93030757
 C     19  15   1     1.350330639193   126.38785508   176.09486583
 H     19  15   1     1.087617084451   115.88899229   355.34971191
 C     21  19  15     1.507609458624   125.69914319   357.18994136
 C     23  21  19     1.540019433930   111.73980824   127.62274619
 H     23  21  19     1.093400006904   112.34603981     3.53122404
 H     23  21  19     1.101826914970   107.73698976   246.26535933
 C     24  23  21     1.534634177650   112.67170829    50.98817289
 H     24  23  21     1.097375254718   109.04065535   288.88561992
 H     24  23  21     1.096923391017   109.16688777   172.90413422
 C     27  24  23     1.535452044771   111.84448451   306.07369556
 H     27  24  23     1.094657462264   108.88714456   182.47821974
 H     27  24  23     1.100504928296   109.20841818    66.02480148
 C     21  19  15     1.498243750863   122.83248341   177.73538580
 H     33  21  19     1.105724106352   106.27745669   124.14446455
 C     33  21  19     1.524991635830   120.99902119     1.93930002
 H     13   3   2     0.966579618684   107.56133528    62.64826911
 C     35  33  21     1.548490934194   103.54571394   196.39762346
 H     35  33  21     1.095051497206   112.14982636    74.45178075
 H     35  33  21     1.095657832248   110.74362150   314.80623504
 C     30  27  24     1.554901558901   116.09481317   166.20542216
 H     37  35  33     1.094586728949   111.61801960   249.18563663
 H     37  35  33     1.096802585696   110.47706847   130.70964437
 H     40  30  27     1.102052405939   106.49991117   320.67978450
 C     40  30  27     1.548581624329   118.85396319    80.99009411
 C     30  27  24     1.534464943131   111.17991886   294.31228887
 H     45  30  27     1.094384959981   111.43883060    66.61206001
 H     45  30  27     1.095443360777   110.72643994   306.47416013
 H     45  30  27     1.094588612947   111.62135963   186.58547725
 H     44  40  30     1.103081625923   106.80334545    62.41592472
 C     44  40  30     1.527452688486   113.45810865   303.38755491
 C     44  40  30     1.511660554428   108.48667581   176.92788700
 C     51  44  40     1.333669331340   126.49838009   115.63848749
 H     51  44  40     1.088817249710   114.51119137   297.28066085
 H     52  51  44     1.091548884052   118.80604185     1.41016580
 C     52  51  44     1.511131287736   127.69008219   181.17054014
 C     55  52  51     1.538358434452   108.95826632   134.27486240
 C     55  52  51     1.543741642622   115.01727203     5.97671750
 H     55  52  51     1.103857798394   106.19876802   248.60117452
 H     57  55  52     1.099546140616   106.78361176   313.85730554
 C     57  55  52     1.532076239095   111.51351278   197.56393523
 C     57  55  52     1.532429531061   113.09227472    72.74832418
 H     56  55  52     1.095325744116   110.24557853    58.01262089
 H     56  55  52     1.095227480239   111.11821066   298.77306055
 H     56  55  52     1.094604394720   111.66159695   177.74494926
 H     60  57  55     1.095794493802   110.51974411   174.93636007
 H     60  57  55     1.095977484306   111.30793797    54.92351730
 H     60  57  55     1.096015006554   111.40364843   294.25133882
 H     61  57  55     1.096185815331   110.77223628    71.43667252
 H     61  57  55     1.094508711857   111.92816820   310.98122553
 H     61  57  55     1.095736074381   110.44596576   190.42650777
 H     50  44  40     1.095348634799   110.67738450   186.61595647
 H     50  44  40     1.091709998877   111.07153098    67.21070376
 H     50  44  40     1.096465647836   111.35897417   306.84913416

---------------------------
INTERNAL COORDINATES (A.U.)
---------------------------
 C      0   0   0     0.000000000000     0.00000000     0.00000000
 C      1   0   0     2.854418044408     0.00000000     0.00000000
 C      2   1   0     2.898020852636   111.71415367     0.00000000
 H      2   1   3     2.084947176715   109.38895502   241.45405112
 H      2   1   3     2.070324670326   110.69754458   122.86718261
 C      1   2   3     2.793706193058   114.19316823    50.56250317
 C      6   1   2     2.857577829453   114.44686568   312.10162854
 C      3   2   1     2.880994306287   110.29073358   304.90755316
 H      7   6   1     2.079924475815   108.37549307   289.80386445
 H      7   6   1     2.069460051207   110.19764445   172.63203925
 H      8   3   2     2.071861690299   109.69398457   179.16835030
 H      8   3   2     2.079643459616   108.64973540   296.60673911
 O      3   2   1     2.709170645180   111.23446247   180.21386508
 H      3   2   1     2.076856366359   109.02065353    65.04428435
 C      1   2   3     2.558832483572   120.86485143   232.73756497
 C      6   1   2     2.528347882514   123.37862668   129.91742155
 H     16   6   1     2.053076073687   121.40628134     0.65469926
 H     16   6   1     2.054968828491   120.93377479   181.35210406
 C     15   1   2     2.729920233378   126.48231183   175.24590211
 H     15   1   2     2.058147644864   116.15466057   357.93030757
 C     19  15   1     2.551755098317   126.38785508   176.09486583
 H     19  15   1     2.055298428187   115.88899229   355.34971191
 C     21  19  15     2.848968993708   125.69914319   357.18994136
 C     23  21  19     2.910214971045   111.73980824   127.62274619
 H     23  21  19     2.066226567876   112.34603981     3.53122404
 H     23  21  19     2.082151116277   107.73698976   246.26535933
 C     24  23  21     2.900038311514   112.67170829    50.98817289
 H     24  23  21     2.073738697558   109.04065535   288.88561992
 H     24  23  21     2.072884798914   109.16688777   172.90413422
 C     27  24  23     2.901583856387   111.84448451   306.07369556
 H     27  24  23     2.068602814132   108.88714456   182.47821974
 H     27  24  23     2.079652923511   109.20841818    66.02480148
 C     21  19  15     2.831270370990   122.83248341   177.73538580
 H     33  21  19     2.089515740680   106.27745669   124.14446455
 C     33  21  19     2.881816548239   120.99902119     1.93930002
 H     13   3   2     1.826570765944   107.56133528    62.64826911
 C     35  33  21     2.926223786486   103.54571394   196.39762346
 H     35  33  21     2.069347432260   112.14982636    74.45178075
 H     35  33  21     2.070493239435   110.74362150   314.80623504
 C     30  27  24     2.938338111530   116.09481317   166.20542216
 H     37  35  33     2.068469147539   111.61801960   249.18563663
 H     37  35  33     2.072656509942   110.47706847   130.70964437
 H     40  30  27     2.082577232454   106.49991117   320.67978450
 C     40  30  27     2.926395166004   118.85396319    80.99009411
 C     30  27  24     2.899718504621   111.17991886   294.31228887
 H     45  30  27     2.068087859447   111.43883060    66.61206001
 H     45  30  27     2.070087947091   110.72643994   306.47416013
 H     45  30  27     2.068472707779   111.62135963   186.58547725
 H     44  40  30     2.084522176355   106.80334545    62.41592472
 C     44  40  30     2.886467263760   113.45810865   303.38755491
 C     44  40  30     2.856624455321   108.48667581   176.92788700
 C     51  44  40     2.520269789442   126.49838009   115.63848749
 H     51  44  40     2.057566411841   114.51119137   297.28066085
 H     52  51  44     2.062728452645   118.80604185     1.41016580
 C     52  51  44     2.855624286220   127.69008219   181.17054014
 C     55  52  51     2.907076136923   108.95826632   134.27486240
 C     55  52  51     2.917248926085   115.01727203     5.97671750
 H     55  52  51     2.085988929758   106.19876802   248.60117452
 H     57  55  52     2.077841077375   106.78361176   313.85730554
 C     57  55  52     2.895204508177   111.51351278   197.56393523
 C     57  55  52     2.895872133238   113.09227472    72.74832418
 H     56  55  52     2.069865683812   110.24557853    58.01262089
 H     56  55  52     2.069679991996   111.11821066   298.77306055
 H     56  55  52     2.068502531008   111.66159695   177.74494926
 H     60  57  55     2.070751492345   110.51974411   174.93636007
 H     60  57  55     2.071097294282   111.30793797    54.92351730
 H     60  57  55     2.071168201054   111.40364843   294.25133882
 H     61  57  55     2.071490982864   110.77223628    71.43667252
 H     61  57  55     2.068321716601   111.92816820   310.98122553
 H     61  57  55     2.070641095639   110.44596576   190.42650777
 H     50  44  40     2.069908940935   110.67738450   186.61595647
 H     50  44  40     2.063032915541   111.07153098    67.21070376
 H     50  44  40     2.072019789663   111.35897417   306.84913416

---------------------
BASIS SET INFORMATION
---------------------
There are 3 groups of distinct atoms

 Group   1 Type C   : 7s4p contracted to 4s3p pattern {4111/211}
 Group   2 Type H   : 5s contracted to 3s pattern {311}
 Group   3 Type O   : 7s4p contracted to 4s3p pattern {4111/211}

Atom   0C    basis set group =>   1
Atom   1C    basis set group =>   1
Atom   2C    basis set group =>   1
Atom   3H    basis set group =>   2
Atom   4H    basis set group =>   2
Atom   5C    basis set group =>   1
Atom   6C    basis set group =>   1
Atom   7C    basis set group =>   1
Atom   8H    basis set group =>   2
Atom   9H    basis set group =>   2
Atom  10H    basis set group =>   2
Atom  11H    basis set group =>   2
Atom  12O    basis set group =>   3
Atom  13H    basis set group =>   2
Atom  14C    basis set group =>   1
Atom  15C    basis set group =>   1
Atom  16H    basis set group =>   2
Atom  17H    basis set group =>   2
Atom  18C    basis set group =>   1
Atom  19H    basis set group =>   2
Atom  20C    basis set group =>   1
Atom  21H    basis set group =>   2
Atom  22C    basis set group =>   1
Atom  23C    basis set group =>   1
Atom  24H    basis set group =>   2
Atom  25H    basis set group =>   2
Atom  26C    basis set group =>   1
Atom  27H    basis set group =>   2
Atom  28H    basis set group =>   2
Atom  29C    basis set group =>   1
Atom  30H    basis set group =>   2
Atom  31H    basis set group =>   2
Atom  32C    basis set group =>   1
Atom  33H    basis set group =>   2
Atom  34C    basis set group =>   1
Atom  35H    basis set group =>   2
Atom  36C    basis set group =>   1
Atom  37H    basis set group =>   2
Atom  38H    basis set group =>   2
Atom  39C    basis set group =>   1
Atom  40H    basis set group =>   2
Atom  41H    basis set group =>   2
Atom  42H    basis set group =>   2
Atom  43C    basis set group =>   1
Atom  44C    basis set group =>   1
Atom  45H    basis set group =>   2
Atom  46H    basis set group =>   2
Atom  47H    basis set group =>   2
Atom  48H    basis set group =>   2
Atom  49C    basis set group =>   1
Atom  50C    basis set group =>   1
Atom  51C    basis set group =>   1
Atom  52H    basis set group =>   2
Atom  53H    basis set group =>   2
Atom  54C    basis set group =>   1
Atom  55C    basis set group =>   1
Atom  56C    basis set group =>   1
Atom  57H    basis set group =>   2
Atom  58H    basis set group =>   2
Atom  59C    basis set group =>   1
Atom  60C    basis set group =>   1
Atom  61H    basis set group =>   2
Atom  62H    basis set group =>   2
Atom  63H    basis set group =>   2
Atom  64H    basis set group =>   2
Atom  65H    basis set group =>   2
Atom  66H    basis set group =>   2
Atom  67H    basis set group =>   2
Atom  68H    basis set group =>   2
Atom  69H    basis set group =>   2
Atom  70H    basis set group =>   2
Atom  71H    basis set group =>   2
Atom  72H    basis set group =>   2

-------------------------
BASIS SET IN INPUT FORMAT
-------------------------

 # Basis set for element : H 
 NewGTO H 
 S 3 
   1    1357.7500000000      0.0012928364
   2      54.3100000000      0.0588280685
   3       4.3448000000      0.9761499708
 S 1 
   1       0.6604910000      1.0000000000
 S 1 
   1       0.1366870000      1.0000000000
  end;

 # Basis set for element : C 
 NewGTO C 
 S 4 
   1  139534.0000000000      0.0001655246
   2    5581.3600000000      0.0074486101
   3     446.5090000000      0.1285821065
   4      67.4620000000      0.9218029311
 S 1 
   1      15.0674000000      1.0000000000
 S 1 
   1       3.9387600000      1.0000000000
 S 1 
   1       0.2999150000      1.0000000000
 P 2 
   1      28.3900000000      0.0816325586
   2       4.3676900000      0.9660360576
 P 1 
   1       0.8698170000      1.0000000000
 P 1 
   1       0.1889340000      1.0000000000
  end;

 # Basis set for element : O 
 NewGTO O 
 S 4 
   1  253789.0000000000      0.0001641076
   2   10151.6000000000      0.0074010921
   3     812.1250000000      0.1277711901
   4     122.6930000000      0.9223372164
 S 1 
   1      27.5608000000      1.0000000000
 S 1 
   1       7.3172600000      1.0000000000
 S 1 
   1       0.5792400000      1.0000000000
 P 2 
   1      53.4157000000      0.0793786106
   2       8.2177900000      0.9670506337
 P 1 
   1       1.6754400000      1.0000000000
 P 1 
   1       0.3506720000      1.0000000000
  end;

---------------------------------
AUXILIARY/J BASIS SET INFORMATION
---------------------------------
There are 3 groups of distinct atoms

 Group   1 Type C   : 12s5p4d2f1g contracted to 6s4p3d1f1g pattern {711111/2111/211/2/1}
 Group   2 Type H   : 5s2p1d contracted to 3s1p1d pattern {311/2/1}
 Group   3 Type O   : 12s5p4d2f1g contracted to 6s4p3d1f1g pattern {711111/2111/211/2/1}

Atom   0C    basis set group =>   1
Atom   1C    basis set group =>   1
Atom   2C    basis set group =>   1
Atom   3H    basis set group =>   2
Atom   4H    basis set group =>   2
Atom   5C    basis set group =>   1
Atom   6C    basis set group =>   1
Atom   7C    basis set group =>   1
Atom   8H    basis set group =>   2
Atom   9H    basis set group =>   2
Atom  10H    basis set group =>   2
Atom  11H    basis set group =>   2
Atom  12O    basis set group =>   3
Atom  13H    basis set group =>   2
Atom  14C    basis set group =>   1
Atom  15C    basis set group =>   1
Atom  16H    basis set group =>   2
Atom  17H    basis set group =>   2
Atom  18C    basis set group =>   1
Atom  19H    basis set group =>   2
Atom  20C    basis set group =>   1
Atom  21H    basis set group =>   2
Atom  22C    basis set group =>   1
Atom  23C    basis set group =>   1
Atom  24H    basis set group =>   2
Atom  25H    basis set group =>   2
Atom  26C    basis set group =>   1
Atom  27H    basis set group =>   2
Atom  28H    basis set group =>   2
Atom  29C    basis set group =>   1
Atom  30H    basis set group =>   2
Atom  31H    basis set group =>   2
Atom  32C    basis set group =>   1
Atom  33H    basis set group =>   2
Atom  34C    basis set group =>   1
Atom  35H    basis set group =>   2
Atom  36C    basis set group =>   1
Atom  37H    basis set group =>   2
Atom  38H    basis set group =>   2
Atom  39C    basis set group =>   1
Atom  40H    basis set group =>   2
Atom  41H    basis set group =>   2
Atom  42H    basis set group =>   2
Atom  43C    basis set group =>   1
Atom  44C    basis set group =>   1
Atom  45H    basis set group =>   2
Atom  46H    basis set group =>   2
Atom  47H    basis set group =>   2
Atom  48H    basis set group =>   2
Atom  49C    basis set group =>   1
Atom  50C    basis set group =>   1
Atom  51C    basis set group =>   1
Atom  52H    basis set group =>   2
Atom  53H    basis set group =>   2
Atom  54C    basis set group =>   1
Atom  55C    basis set group =>   1
Atom  56C    basis set group =>   1
Atom  57H    basis set group =>   2
Atom  58H    basis set group =>   2
Atom  59C    basis set group =>   1
Atom  60C    basis set group =>   1
Atom  61H    basis set group =>   2
Atom  62H    basis set group =>   2
Atom  63H    basis set group =>   2
Atom  64H    basis set group =>   2
Atom  65H    basis set group =>   2
Atom  66H    basis set group =>   2
Atom  67H    basis set group =>   2
Atom  68H    basis set group =>   2
Atom  69H    basis set group =>   2
Atom  70H    basis set group =>   2
Atom  71H    basis set group =>   2
Atom  72H    basis set group =>   2

-------------------------------------
AUXILIARY/J BASIS SET IN INPUT FORMAT
-------------------------------------

 # Auxiliary/J basis set for element : H 
 NewAuxJGTO H 
 S 3 
   1      15.6752927000      0.1007184237
   2       3.6063578000      0.3404257499
   3       1.2080016000      0.6491996172
 S 1 
   1       0.4726794000      1.0000000000
 S 1 
   1       0.2018100000      1.0000000000
 P 2 
   1       2.0281365000      0.5596620919
   2       0.5358730000      0.5596620919
 D 1 
   1       2.2165124000      1.0000000000
  end;

 # Auxiliary/J basis set for element : C 
 NewAuxJGTO C 
 S 7 
   1    1861.0916331000      0.0134602335
   2     642.9939764000      0.0299160374
   3     235.1105725000      0.1008649584
   4      90.7028894000      0.2370970548
   5      36.7794552000      0.3924037254
   6      15.6046273000      0.3195862154
   7       6.8907294000      0.0530104441
 S 1 
   1       3.1478850000     -1.0000000000
 S 1 
   1       1.4777287000      1.0000000000
 S 1 
   1       0.7076466000      1.0000000000
 S 1 
   1       0.3430122000      1.0000000000
 S 1 
   1       0.1669453000      1.0000000000
 P 2 
   1      13.5472892000     -0.6769313712
   2       5.4669419000     -0.3779500978
 P 1 
   1       2.1751721000      1.0000000000
 P 1 
   1       0.8582194000      1.0000000000
 P 1 
   1       0.3376720000      1.0000000000
 D 2 
   1       5.9287253000     -0.3533329857
   2       1.9809209000     -0.7456525731
 D 1 
   1       0.8055417000     -1.0000000000
 D 1 
   1       0.3531244000     -1.0000000000
 F 2 
   1       1.6755626000      0.6311076882
   2       0.5997536000      0.4968166032
 G 1 
   1       1.0024600000     -1.0000000000
  end;

 # Auxiliary/J basis set for element : O 
 NewAuxJGTO O 
 S 7 
   1    2876.8216605000      0.0168151159
   2    1004.7443032000      0.0340137548
   3     369.7579954000      0.1194951309
   4     142.9442404000      0.2664627624
   5      57.8366425000      0.4202764046
   6      24.3864983000      0.2765077335
   7      10.6622662000      0.0057008815
 S 1 
   1       4.8070437000     -1.0000000000
 S 1 
   1       2.2210770000      1.0000000000
 S 1 
   1       1.0447795000      1.0000000000
 S 1 
   1       0.4968425000      1.0000000000
 S 1 
   1       0.2371384000      1.0000000000
 P 2 
   1      64.2613382000     -0.2731534179
   2      16.3006076000     -0.8168011598
 P 1 
   1       4.3550542000      1.0000000000
 P 1 
   1       1.2019554000      1.0000000000
 P 1 
   1       0.3354196000      1.0000000000
 D 2 
   1       9.2146611000     -0.4661230638
   2       2.8435251000     -0.6600908911
 D 1 
   1       0.9955759000     -1.0000000000
 D 1 
   1       0.3649441000     -1.0000000000
 F 2 
   1       2.6420115000      0.5931563945
   2       0.7345613000      0.5931563945
 G 1 
   1       1.3931000000     -1.0000000000
  end;



           ************************************************************
           *        Program running with 4 parallel MPI-processes     *
           *              working on a common directory               *
           ************************************************************
------------------------------------------------------------------------------
                             ORCA STARTUP CALCULATIONS
                           -- RI-GTO INTEGRALS CHOSEN --
------------------------------------------------------------------------------
------------------------------------------------------------------------------
                   ___                                                        
                  /   \      - P O W E R E D   B Y -                         
                 /     \                                                     
                 |  |  |   _    _      __       _____    __    __             
                 |  |  |  | |  | |    /  \     |  _  \  |  |  /  |          
                  \  \/   | |  | |   /    \    | | | |  |  | /  /          
                 / \  \   | |__| |  /  /\  \   | |_| |  |  |/  /          
                |  |  |   |  __  | /  /__\  \  |    /   |      \           
                |  |  |   | |  | | |   __   |  |    \   |  |\   \          
                \     /   | |  | | |  |  |  |  | |\  \  |  | \   \       
                 \___/    |_|  |_| |__|  |__|  |_| \__\ |__|  \__/        
                                                                              
                      - O R C A' S   B I G   F R I E N D -                    
                                      &                                       
                       - I N T E G R A L  F E E D E R -                       
                                                                              
 v1 FN, 2020, v2 2021, v3 2022-2024                                           
------------------------------------------------------------------------------


----------------------
SHARK INTEGRAL PACKAGE
----------------------

Number of atoms                             ...     73
Number of basis functions                   ...    509
Number of shells                            ...    335
Maximum angular momentum                    ...      1
Integral batch strategy                     ... SHARK/LIBINT Hybrid
RI-J (if used) integral strategy            ... SPLIT-RIJ (Revised 2003 algorithm where possible)
Printlevel                                  ...      1
Contraction scheme used                     ... SEGMENTED contraction
Prescreening option                         ... SCHWARTZ
   Thresh                                   ... 3.000e-11
   Tcut                                     ... 1.000e-12
   Tpresel                                  ... 1.000e-12 
Coulomb Range Separation                    ... NOT USED
Exchange Range Separation                   ... NOT USED
Multipole approximations                    ... NOT USED
Finite Nucleus Model                        ... NOT USED
CABS basis                                  ... NOT available
Auxiliary Coulomb fitting basis             ... AVAILABLE
   # of basis functions in Aux-J            ...   1905
   # of shells in Aux-J                     ...    655
   Maximum angular momentum in Aux-J        ...      4
Auxiliary J/K fitting basis                 ... NOT available
Auxiliary Correlation fitting basis         ... NOT available
Auxiliary 'external' fitting basis          ... NOT available

Checking pre-screening integrals            ... done (  0.0 sec) Dimension = 335
Check shell pair data                       ... done (  0.0 sec)
Shell pair information
Shell pair cut-off parameter TPreSel        ...   1.0e-12
Total number of shell pairs                 ...     56280
Shell pairs after pre-screening             ...     21780
Total number of primitive shell pairs       ...    145865
Primitive shell pairs kept                  ...     37439
          la=0 lb=0:  10970 shell pairs
          la=1 lb=0:   8941 shell pairs
          la=1 lb=1:   1869 shell pairs

Calculating one electron integrals          ... done (  0.0 sec)
Calculating RI/J V-Matrix + Cholesky decomp.... done (  0.2 sec)
Calculating Nuclear repulsion               ... done (  0.0 sec) ENN=   2770.269770540025 Eh

Diagonalization of the overlap matrix:
Smallest eigenvalue                        ... 7.551e-03
Time for diagonalization                   ...    0.026 sec
Threshold for overlap eigenvalues          ... 1.000e-07
Number of eigenvalues below threshold      ... 0
Time for construction of square roots      ...    0.013 sec
Total time needed                          ...    0.041 sec

-------------------
DFT GRID GENERATION
-------------------

General Integration Accuracy     IntAcc      ... 4.388
Radial Grid Type                 RadialGrid  ... OptM3 with GC (2021)
Angular Grid (max. ang.)         AngularGrid ... 4 (Lebedev-302)
Angular grid pruning method      GridPruning ... 4 (adaptive)
Weight generation scheme         WeightScheme... mBecke (2022)
Basis function cutoff            BFCut       ... 1.0000e-11
Integration weight cutoff        WCut        ... 1.0000e-14
Partially contracted basis set               ... off
Rotationally invariant grid construction     ... off
Angular grids for H and He will be reduced by one unit

Total number of grid points                  ...   309876
Total number of batches                      ...     4871
Average number of points per batch           ...       63
Average number of grid points per atom       ...     4245

--------------------
COSX GRID GENERATION
--------------------

GRIDX 1
-------
General Integration Accuracy     IntAcc      ... 3.816
Radial Grid Type                 RadialGrid  ... OptM3 with GC (2021)
Angular Grid (max. ang.)         AngularGrid ... 1 (Lebedev-50)
Angular grid pruning method      GridPruning ... 4 (adaptive)
Weight generation scheme         WeightScheme... mBecke (2022)
Basis function cutoff            BFCut       ... 1.0000e-11
Integration weight cutoff        WCut        ... 1.0000e-14
Partially contracted basis set               ... on
Rotationally invariant grid construction     ... off
Angular grids for H and He will be reduced by one unit

Total number of grid points                  ...    39394
Total number of batches                      ...      354
Average number of points per batch           ...      111
Average number of grid points per atom       ...      540
UseSFitting                                  ... on

GRIDX 2
-------
General Integration Accuracy     IntAcc      ... 4.020
Radial Grid Type                 RadialGrid  ... OptM3 with GC (2021)
Angular Grid (max. ang.)         AngularGrid ... 2 (Lebedev-110)
Angular grid pruning method      GridPruning ... 4 (adaptive)
Weight generation scheme         WeightScheme... mBecke (2022)
Basis function cutoff            BFCut       ... 1.0000e-11
Integration weight cutoff        WCut        ... 1.0000e-14
Partially contracted basis set               ... on
Rotationally invariant grid construction     ... off
Angular grids for H and He will be reduced by one unit

Total number of grid points                  ...    81424
Total number of batches                      ...      677
Average number of points per batch           ...      120
Average number of grid points per atom       ...     1115
UseSFitting                                  ... on

GRIDX 3
-------
General Integration Accuracy     IntAcc      ... 4.338
Radial Grid Type                 RadialGrid  ... OptM3 with GC (2021)
Angular Grid (max. ang.)         AngularGrid ... 3 (Lebedev-194)
Angular grid pruning method      GridPruning ... 4 (adaptive)
Weight generation scheme         WeightScheme... mBecke (2022)
Basis function cutoff            BFCut       ... 1.0000e-11
Integration weight cutoff        WCut        ... 1.0000e-14
Partially contracted basis set               ... on
Rotationally invariant grid construction     ... off
Angular grids for H and He will be reduced by one unit

Total number of grid points                  ...   176311
Total number of batches                      ...     1421
Average number of points per batch           ...      124
Average number of grid points per atom       ...     2415
UseSFitting                                  ... on
Initializing property integral containers    ... done (  0.0 sec)

SHARK setup successfully completed in   3.8 seconds

Maximum memory used throughout the entire STARTUP-calculation: 85.2 MB


           ************************************************************
           *        Program running with 4 parallel MPI-processes     *
           *              working on a common directory               *
           ************************************************************
-------------------------------------------------------------------------------
                                 ORCA GUESS
                   Start orbitals & Density for SCF / CASSCF
-------------------------------------------------------------------------------

------------
SCF SETTINGS
------------
Hamiltonian:
 Density Functional     Method          .... DFT(GTOs)
 Exchange Functional    Exchange        .... PBE
   PBE kappa parameter   XKappa         ....  0.804000
   PBE mue parameter    XMuePBE         ....  0.219520
 Correlation Functional Correlation     .... PBE
   PBE beta parameter  CBetaPBE         ....  0.066725
 LDA part of GGA corr.  LDAOpt          .... PW91-LDA
 Gradients option       PostSCFGGA      .... off
 Hybrid DFT is turned on
   Fraction HF Exchange ScalHFX         ....  0.250000
   Scaling of DF-GGA-X  ScalDFX         ....  0.750000
   Scaling of DF-GGA-C  ScalDFC         ....  1.000000
   Scaling of DF-LDA-C  ScalLDAC        ....  1.000000
   Perturbative correction              ....  0.000000
   NL short-range parameter             ....  6.900000
 RI-approximation to the Coulomb term is turned on
   Number of AuxJ basis functions       .... 1905
   RIJ-COSX (HFX calculated with COS-X)).... on


General Settings:
 Integral files         IntName         .... inpJ
 Hartree-Fock type      HFTyp           .... RHF
 Total Charge           Charge          ....    0
 Multiplicity           Mult            ....    1
 Number of Electrons    NEL             ....  220
 Basis Dimension        Dim             ....  509
 Nuclear Repulsion      ENuc            ....   2770.2697705400 Eh

Convergence Acceleration:
 AO-DIIS                CNVDIIS         .... on
   Start iteration      DIISMaxIt       ....    12
   Startup error        DIISStart       ....  0.200000
   # of expansion vecs  DIISMaxEq       ....     5
   Bias factor          DIISBfac        ....   1.050
   Max. coefficient     DIISMaxC        ....  10.000
 MO-DIIS                CNVKDIIS        .... off
 Trust-Rad. Augm. Hess. CNVTRAH         .... auto
   Auto Start mean grad. ratio tolernc. ....  1.125000
   Auto Start start iteration           ....    50
   Auto Start num. interpolation iter.  ....    10
   Max. Number of Micro iterations      ....    24
   Max. Number of Macro iterations      .... Maxiter - #DIIS iter
   Number of Davidson start vectors     ....     2
   Converg. threshold    (grad. norm)   ....   1.000e-04
   Grad. Scal. Fac. for Micro threshold ....   0.100
   Minimum threshold for Micro iter.    ....   1.000e-02
   NR start threshold (gradient norm)   ....   1.000e-04
   Initial trust radius                 ....   0.400
   Minimum AH scaling param. (alpha)    ....   1.000
   Maximum AH scaling param. (alpha)    .... 1000.000
   Quad. conv. algorithm                .... NR
   White noise on init. David. guess    .... on
   Maximum white noise                  ....   0.010
   Pseudo random numbers                .... off
   Inactive MOs                         .... canonical
   Orbital update algorithm             .... Taylor
   Preconditioner                       .... Diag
   Full preconditioner red. dimension   ....   250
 SOSCF                  CNVSOSCF        .... off
 Level Shifting         CNVShift        .... on
   Level shift para.    LevelShift      ....    0.2500
   Turn off err/grad.   ShiftErr        ....    0.0010
 Zerner damping         CNVZerner       .... off
 Static damping         CNVDamp         .... on
   Fraction old density DampFac         ....    0.7000
   Max. Damping (<1)    DampMax         ....    0.9800
   Min. Damping (>=0)   DampMin         ....    0.0000
   Turn off err/grad.   DampErr         ....    0.1000

SCF Procedure:
 Maximum # iterations   MaxIter         ....   125
 SCF integral mode      SCFMode         .... Direct
   Integral package                     .... SHARK and LIBINT hybrid scheme
 Reset frequency        DirectResetFreq ....    20
 Integral Threshold     Thresh          ....  3.000e-11 Eh
 Primitive CutOff       TCut            ....  1.000e-12 Eh

Convergence Tolerance:
 Convergence Check Mode ConvCheckMode   .... Total+1el-Energy
 Convergence forced     ConvForced      .... 0
 Energy Change          TolE            ....  1.000e-07 Eh
 1-El. energy change                    ....  1.000e-04 Eh
 DIIS Error             TolErr          ....  1.000e-07

------------------------------
INITIAL GUESS: MODEL POTENTIAL
------------------------------
Loading Hartree-Fock densities                     ... done
Calculating cut-offs                               ... done
Initializing the effective Hamiltonian             ... done
Setting up the integral package (SHARK)            ... done
Starting the Coulomb interaction                   ... done (   0.3 sec)
Making the grid                                    ... done (   0.4 sec)
Mapping shells                                     ... done
Starting the XC term evaluation                    ... done (   0.1 sec)
  promolecular density results
     # of electrons  =    219.975671429
     EX              =   -164.434963966
     EC              =     -7.328764805
     EX+EC           =   -171.763728772
Transforming the Hamiltonian                       ... done (   0.0 sec)
Diagonalizing the Hamiltonian                      ... done (   0.0 sec)
Back transforming the eigenvectors                 ... done (   0.0 sec)
Now organizing SCF variables                       ... done
                      ------------------
                      INITIAL GUESS DONE (   0.9 sec)
                      ------------------
             **** ENERGY FILE WAS UPDATED (inpJ.en.tmp) ****
Finished Guess after   1.1 sec
Maximum memory used throughout the entire GUESS-calculation: 45.6 MB


           ************************************************************
           *        Program running with 4 parallel MPI-processes     *
           *              working on a common directory               *
           ************************************************************

-------------------------------------------------------------------------------------------
                                      ORCA LEAN-SCF
                              memory conserving SCF solver
-------------------------------------------------------------------------------------------

--------------------
CPCM SOLVATION MODEL
--------------------
CPCM parameters:
  Epsilon                                         ...       4.8030
  Refrac                                          ...       1.4459
  Rsolv                                           ...       1.3000
  Surface type                                    ... GAUSSIAN VDW
  Discretization scheme                           ... Constant charge density
    Threshold for H atoms                         ...       5.0000 (charges/Ang^2)
    Threshold for non-H atoms                     ...       5.0000 (charges/Ang^2)
  Epsilon function type                           ...         CPCM
Solvent:                                          ... CHLOROFORM
Radii:
  Scheme                                          ... Element-dependent radii
  Radius for C  used is    3.8550 Bohr (=   2.0400 Ang.)
  Radius for H  used is    2.4944 Bohr (=   1.3200 Ang.)
  Radius for O  used is    3.4469 Bohr (=   1.8240 Ang.)
Calculating surface                               ...        done! (  0.0s)
Cavity surface points                             ...         5386
Cavity Volume                                     ...    3611.6183
Cavity Surface-area                               ...    1792.2092
Calculating surface distance matrix               ...        done! (  0.2s)
Performing Cholesky decomposition & store         ...        done! (  0.9s)
Overall time for CPCM initialization              ...                 1.2s

----------------------------------------D-I-I-S--------------------------------------------
Iteration    Energy (Eh)           Delta-E    RMSDP     MaxDP     DIISErr   Damp  Time(sec)
-------------------------------------------------------------------------------------------
               ***  Starting incremental Fock matrix formation  ***
    1    -1165.0073762390907177     0.00e+00  1.50e-03  9.74e-02  1.94e-01  0.700   6.1

  HOMO= 109 E= -3.903 eV LUMO=  7.774 eV gap=  11.676 eV
    2    -1165.2258022198939216    -2.18e-01  1.11e-03  6.54e-02  9.41e-02  0.700   3.6

  HOMO= 109 E= -4.750 eV LUMO=  7.080 eV gap=  11.829 eV
                               ***Turning on AO-DIIS***
    3    -1165.3265466287434720    -1.01e-01  4.53e-04  2.22e-02  3.77e-02  0.700   3.6

  HOMO= 109 E= -5.753 eV LUMO=  6.137 eV gap=  11.890 eV
    4    -1165.3843891143756082    -5.78e-02  7.63e-04  3.20e-02  2.69e-02  0.000   3.7

  HOMO= 109 E= -5.919 eV LUMO=  5.974 eV gap=  11.893 eV
    5    -1165.5068588487415582    -1.22e-01  1.07e-04  6.27e-03  3.23e-03  0.000   3.9

  HOMO= 109 E= -5.967 eV LUMO=  5.930 eV gap=  11.897 eV
    6    -1165.5070817804712533    -2.23e-04  3.17e-05  1.93e-03  8.55e-04  0.000   3.4

  HOMO= 109 E= -5.932 eV LUMO=  5.970 eV gap=  11.902 eV
               *** Restarting incremental Fock matrix formation ***
                             ****Resetting DIIS****
    7    -1165.5072396075297547    -1.58e-04  1.53e-05  1.13e-03  3.00e-04  0.000   6.9

  HOMO= 109 E= -5.925 eV LUMO= -0.826 eV gap=   5.099 eV
    8    -1165.5072409865156260    -1.38e-06  6.92e-06  6.91e-04  4.40e-04  0.000   4.3

  HOMO= 109 E= -5.927 eV LUMO= -0.827 eV gap=   5.100 eV
    9    -1165.5072418778554493    -8.91e-07  2.71e-06  2.49e-04  2.04e-04  0.000   3.7

  HOMO= 109 E= -5.928 eV LUMO= -0.828 eV gap=   5.100 eV
   10    -1165.5072420620849698    -1.84e-07  8.87e-07  8.56e-05  5.53e-05  0.000   3.5

  HOMO= 109 E= -5.927 eV LUMO= -0.827 eV gap=   5.101 eV
   11    -1165.5072420722585775    -1.02e-08  2.77e-07  3.00e-05  1.38e-05  0.000   3.1
                 **** Energy Check signals convergence ****

  HOMO= 109 E= -5.927 eV LUMO= -0.827 eV gap=   5.101 eV

               *****************************************************
               *                     SUCCESS                       *
               *           SCF CONVERGED AFTER  11 CYCLES          *
               *****************************************************

Recomputing exchange energy using gridx3       ... done (    8.741 sec)
Old exchange energy                            :    -42.068052780 Eh
New exchange energy                            :    -42.068100092 Eh
Exchange energy change after final integration :     -0.000047312 Eh
Total energy after final integration           :  -1165.507289384 Eh
             **** ENERGY FILE WAS UPDATED (inpJ.en.tmp) ****

----------------
TOTAL SCF ENERGY
----------------

Total Energy       :      -1165.50728938420798 Eh          -31715.06571 eV

Components:
Nuclear Repulsion  :       2770.26977054002509 Eh           75382.87285 eV
Electronic Energy  :      -3935.76152353648376 Eh         -107097.51579 eV
One Electron Energy:      -7082.52290958810863 Eh         -192725.24633 eV
Two Electron Energy:       3146.76138605162487 Eh           85627.73054 eV
CPCM Dielectric    :         -0.01548907579973 Eh              -0.42148 eV

Virial components:
Potential Energy   :      -2322.40855888560236 Eh          -63195.94971 eV
Kinetic Energy     :       1156.90126950139461 Eh           31480.88400 eV
Virial Ratio       :          2.00743885421314

DFT components:
N(Alpha)           :      110.000148548779 electrons
N(Beta)            :      110.000148548779 electrons
N(Total)           :      220.000297097558 electrons
E(X)               :     -125.747216410374 Eh       
E(C)               :       -7.328183749868 Eh       
E(XC)              :     -133.075400160242 Eh       

CPCM Solvation Model Properties:
Surface-charge          :         -0.03310438932897
Corrected charge        :          0.00000000000000
Outlying charge corr.   :          0.00003828327737 Eh               0.00104 eV
Free-energy (cav+disp)  :  This term is not implemented in the current solvation scheme

---------------
SCF CONVERGENCE
---------------

  Last Energy change         ...    1.0174e-08  Tolerance :   1.0000e-07
  Last MAX-Density change    ...    2.9992e-05  Tolerance :   1.0000e-05
  Last RMS-Density change    ...    2.7727e-07  Tolerance :   1.0000e-06
  Last DIIS Error            ...    1.3799e-05  Tolerance :   1.0000e-07


----------------
ORBITAL ENERGIES
----------------

  NO   OCC          E(Eh)            E(eV) 
   0   2.0000     -19.215221      -522.8727 
   1   2.0000     -10.301464      -280.3171 
   2   2.0000     -10.269700      -279.4527 
   3   2.0000     -10.267006      -279.3794 
   4   2.0000     -10.262130      -279.2467 
   5   2.0000     -10.256825      -279.1024 
   6   2.0000     -10.253614      -279.0150 
   7   2.0000     -10.252208      -278.9768 
   8   2.0000     -10.251405      -278.9549 
   9   2.0000     -10.249375      -278.8997 
  10   2.0000     -10.247211      -278.8408 
  11   2.0000     -10.246689      -278.8266 
  12   2.0000     -10.246208      -278.8135 
  13   2.0000     -10.245858      -278.8040 
  14   2.0000     -10.243982      -278.7529 
  15   2.0000     -10.243424      -278.7377 
  16   2.0000     -10.243176      -278.7310 
  17   2.0000     -10.242062      -278.7007 
  18   2.0000     -10.241809      -278.6938 
  19   2.0000     -10.241252      -278.6786 
  20   2.0000     -10.239267      -278.6246 
  21   2.0000     -10.235541      -278.5232 
  22   2.0000     -10.234955      -278.5073 
  23   2.0000     -10.233714      -278.4735 
  24   2.0000     -10.226272      -278.2710 
  25   2.0000     -10.224696      -278.2281 
  26   2.0000     -10.224142      -278.2131 
  27   2.0000     -10.221988      -278.1544 
  28   2.0000     -10.220789      -278.1218 
  29   2.0000      -1.045944       -28.4616 
  30   2.0000      -0.901287       -24.5253 
  31   2.0000      -0.883850       -24.0508 
  32   2.0000      -0.859900       -23.3991 
  33   2.0000      -0.845853       -23.0168 
  34   2.0000      -0.822010       -22.3680 
  35   2.0000      -0.814283       -22.1578 
  36   2.0000      -0.795055       -21.6346 
  37   2.0000      -0.794925       -21.6310 
  38   2.0000      -0.775253       -21.0957 
  39   2.0000      -0.758304       -20.6345 
  40   2.0000      -0.741465       -20.1763 
  41   2.0000      -0.733493       -19.9594 
  42   2.0000      -0.714502       -19.4426 
  43   2.0000      -0.701880       -19.0991 
  44   2.0000      -0.699481       -19.0338 
  45   2.0000      -0.694223       -18.8908 
  46   2.0000      -0.669439       -18.2164 
  47   2.0000      -0.663020       -18.0417 
  48   2.0000      -0.636079       -17.3086 
  49   2.0000      -0.622231       -16.9318 
  50   2.0000      -0.619625       -16.8609 
  51   2.0000      -0.610037       -16.6000 
  52   2.0000      -0.597890       -16.2694 
  53   2.0000      -0.583387       -15.8748 
  54   2.0000      -0.557992       -15.1837 
  55   2.0000      -0.541590       -14.7374 
  56   2.0000      -0.531532       -14.4637 
  57   2.0000      -0.529382       -14.4052 
  58   2.0000      -0.515181       -14.0188 
  59   2.0000      -0.509431       -13.8623 
  60   2.0000      -0.502674       -13.6785 
  61   2.0000      -0.493025       -13.4159 
  62   2.0000      -0.487177       -13.2568 
  63   2.0000      -0.480352       -13.0710 
  64   2.0000      -0.476068       -12.9545 
  65   2.0000      -0.471261       -12.8237 
  66   2.0000      -0.466049       -12.6818 
  67   2.0000      -0.458191       -12.4680 
  68   2.0000      -0.457130       -12.4391 
  69   2.0000      -0.452946       -12.3253 
  70   2.0000      -0.448374       -12.2009 
  71   2.0000      -0.440933       -11.9984 
  72   2.0000      -0.434352       -11.8193 
  73   2.0000      -0.431854       -11.7513 
  74   2.0000      -0.430596       -11.7171 
  75   2.0000      -0.417955       -11.3731 
  76   2.0000      -0.414170       -11.2701 
  77   2.0000      -0.411148       -11.1879 
  78   2.0000      -0.409272       -11.1369 
  79   2.0000      -0.403501       -10.9798 
  80   2.0000      -0.402216       -10.9449 
  81   2.0000      -0.400818       -10.9068 
  82   2.0000      -0.394869       -10.7449 
  83   2.0000      -0.390066       -10.6142 
  84   2.0000      -0.386344       -10.5130 
  85   2.0000      -0.384929       -10.4745 
  86   2.0000      -0.379148       -10.3171 
  87   2.0000      -0.370959       -10.0943 
  88   2.0000      -0.367743       -10.0068 
  89   2.0000      -0.366543        -9.9741 
  90   2.0000      -0.363477        -9.8907 
  91   2.0000      -0.357901        -9.7390 
  92   2.0000      -0.356016        -9.6877 
  93   2.0000      -0.343540        -9.3482 
  94   2.0000      -0.342489        -9.3196 
  95   2.0000      -0.340645        -9.2694 
  96   2.0000      -0.335844        -9.1388 
  97   2.0000      -0.333964        -9.0876 
  98   2.0000      -0.329844        -8.9755 
  99   2.0000      -0.327977        -8.9247 
 100   2.0000      -0.326678        -8.8894 
 101   2.0000      -0.321822        -8.7572 
 102   2.0000      -0.317717        -8.6455 
 103   2.0000      -0.315899        -8.5960 
 104   2.0000      -0.311813        -8.4849 
 105   2.0000      -0.301152        -8.1948 
 106   2.0000      -0.280219        -7.6251 
 107   2.0000      -0.274908        -7.4806 
 108   2.0000      -0.254913        -6.9365 
 109   2.0000      -0.217828        -5.9274 
 110   0.0000      -0.030385        -0.8268 
 111   0.0000       0.021144         0.5754 
 112   0.0000       0.030783         0.8377 
 113   0.0000       0.081476         2.2171 
 114   0.0000       0.093188         2.5358 
 115   0.0000       0.099727         2.7137 
 116   0.0000       0.102037         2.7766 
 117   0.0000       0.107196         2.9169 
 118   0.0000       0.110326         3.0021 
 119   0.0000       0.114448         3.1143 
 120   0.0000       0.118431         3.2227 
*Only the first 10 virtual orbitals were printed.

                    ********************************
                    * MULLIKEN POPULATION ANALYSIS *
                    ********************************

-----------------------
MULLIKEN ATOMIC CHARGES
-----------------------
   0 C :    0.107963
   1 C :   -0.499972
   2 C :   -0.054922
   3 H :    0.207287
   4 H :    0.222194
   5 C :    0.135602
   6 C :   -0.475641
   7 C :   -0.451689
   8 H :    0.214207
   9 H :    0.224104
  10 H :    0.229143
  11 H :    0.204662
  12 O :   -0.487310
  13 H :    0.233916
  14 C :   -0.283389
  15 C :   -0.516737
  16 H :    0.201322
  17 H :    0.196790
  18 C :   -0.260172
  19 H :    0.217906
  20 C :    0.150871
  21 H :    0.218954
  22 C :   -0.479918
  23 C :   -0.427294
  24 H :    0.211744
  25 H :    0.206700
  26 C :   -0.396970
  27 H :    0.208056
  28 H :    0.216932
  29 C :    0.001034
  30 H :    0.222317
  31 H :    0.194277
  32 C :   -0.228690
  33 H :    0.227574
  34 C :   -0.430114
  35 H :    0.343199
  36 C :   -0.433161
  37 H :    0.208007
  38 H :    0.199080
  39 C :   -0.185603
  40 H :    0.215063
  41 H :    0.206822
  42 H :    0.211945
  43 C :   -0.238171
  44 C :   -0.627505
  45 H :    0.209028
  46 H :    0.201325
  47 H :    0.205735
  48 H :    0.218699
  49 C :   -0.639811
  50 C :   -0.187682
  51 C :   -0.180265
  52 H :    0.225643
  53 H :    0.215899
  54 C :   -0.228972
  55 C :   -0.630719
  56 C :   -0.214191
  57 H :    0.226826
  58 H :    0.222322
  59 C :   -0.609686
  60 C :   -0.625308
  61 H :    0.203102
  62 H :    0.201693
  63 H :    0.209233
  64 H :    0.204140
  65 H :    0.200009
  66 H :    0.196631
  67 H :    0.196896
  68 H :    0.214461
  69 H :    0.197500
  70 H :    0.200676
  71 H :    0.215057
  72 H :    0.191349
Sum of atomic charges:    0.0000000

--------------------------------
MULLIKEN REDUCED ORBITAL CHARGES
--------------------------------
  0 C s       :     3.355914  s :     3.355914
      pz      :     1.008711  p :     2.536123
      px      :     0.795985
      py      :     0.731427

  1 C s       :     3.383652  s :     3.383652
      pz      :     1.023545  p :     3.116320
      px      :     0.946025
      py      :     1.146750

  2 C s       :     3.306268  s :     3.306268
      pz      :     1.062308  p :     2.748654
      px      :     0.791306
      py      :     0.895040

  3 H s       :     0.792713  s :     0.792713

  4 H s       :     0.777806  s :     0.777806

  5 C s       :     3.345324  s :     3.345324
      pz      :     0.824078  p :     2.519074
      px      :     0.938600
      py      :     0.756396

  6 C s       :     3.368286  s :     3.368286
      pz      :     1.033939  p :     3.107355
      px      :     0.946909
      py      :     1.126507

  7 C s       :     3.340473  s :     3.340473
      pz      :     1.188703  p :     3.111216
      px      :     0.984903
      py      :     0.937610

  8 H s       :     0.785793  s :     0.785793

  9 H s       :     0.775896  s :     0.775896

 10 H s       :     0.770857  s :     0.770857

 11 H s       :     0.795338  s :     0.795338

 12 O s       :     3.685456  s :     3.685456
      pz      :     1.647406  p :     4.801855
      px      :     1.279379
      py      :     1.875069

 13 H s       :     0.766084  s :     0.766084

 14 C s       :     3.392441  s :     3.392441
      pz      :     1.008821  p :     2.890948
      px      :     0.811857
      py      :     1.070270

 15 C s       :     3.386857  s :     3.386857
      pz      :     0.996169  p :     3.129880
      px      :     1.009942
      py      :     1.123768

 16 H s       :     0.798678  s :     0.798678

 17 H s       :     0.803210  s :     0.803210

 18 C s       :     3.396901  s :     3.396901
      pz      :     1.030497  p :     2.863271
      px      :     0.762092
      py      :     1.070683

 19 H s       :     0.782094  s :     0.782094

 20 C s       :     3.350355  s :     3.350355
      pz      :     0.957110  p :     2.498774
      px      :     0.754120
      py      :     0.787544

 21 H s       :     0.781046  s :     0.781046

 22 C s       :     3.372420  s :     3.372420
      pz      :     1.096484  p :     3.107498
      px      :     1.127076
      py      :     0.883938

 23 C s       :     3.327100  s :     3.327100
      pz      :     1.086696  p :     3.100194
      px      :     0.898925
      py      :     1.114572

 24 H s       :     0.788256  s :     0.788256

 25 H s       :     0.793300  s :     0.793300

 26 C s       :     3.349988  s :     3.349988
      pz      :     1.178431  p :     3.046982
      px      :     0.952060
      py      :     0.916490

 27 H s       :     0.791944  s :     0.791944

 28 H s       :     0.783068  s :     0.783068

 29 C s       :     3.318303  s :     3.318303
      pz      :     0.868093  p :     2.680663
      px      :     0.905400
      py      :     0.907170

 30 H s       :     0.777683  s :     0.777683

 31 H s       :     0.805723  s :     0.805723

 32 C s       :     3.362414  s :     3.362414
      pz      :     1.069174  p :     2.866276
      px      :     0.867355
      py      :     0.929746

 33 H s       :     0.772426  s :     0.772426

 34 C s       :     3.344556  s :     3.344556
      pz      :     1.188529  p :     3.085559
      px      :     0.926041
      py      :     0.970989

 35 H s       :     0.656801  s :     0.656801

 36 C s       :     3.336080  s :     3.336080
      pz      :     1.166329  p :     3.097081
      px      :     0.958481
      py      :     0.972272

 37 H s       :     0.791993  s :     0.791993

 38 H s       :     0.800920  s :     0.800920

 39 C s       :     3.338735  s :     3.338735
      pz      :     1.052586  p :     2.846868
      px      :     0.862617
      py      :     0.931665

 40 H s       :     0.784937  s :     0.784937

 41 H s       :     0.793178  s :     0.793178

 42 H s       :     0.788055  s :     0.788055

 43 C s       :     3.348450  s :     3.348450
      pz      :     1.043193  p :     2.889721
      px      :     0.876810
      py      :     0.969718

 44 C s       :     3.365940  s :     3.365940
      pz      :     0.962613  p :     3.261564
      px      :     1.158231
      py      :     1.140721

 45 H s       :     0.790972  s :     0.790972

 46 H s       :     0.798675  s :     0.798675

 47 H s       :     0.794265  s :     0.794265

 48 H s       :     0.781301  s :     0.781301

 49 C s       :     3.352349  s :     3.352349
      pz      :     1.145226  p :     3.287462
      px      :     1.168031
      py      :     0.974205

 50 C s       :     3.348479  s :     3.348479
      pz      :     0.967284  p :     2.839203
      px      :     0.795804
      py      :     1.076115

 51 C s       :     3.351487  s :     3.351487
      pz      :     0.966359  p :     2.828778
      px      :     0.791815
      py      :     1.070603

 52 H s       :     0.774357  s :     0.774357

 53 H s       :     0.784101  s :     0.784101

 54 C s       :     3.340569  s :     3.340569
      pz      :     0.995325  p :     2.888404
      px      :     1.001882
      py      :     0.891196

 55 C s       :     3.346891  s :     3.346891
      pz      :     1.034996  p :     3.283828
      px      :     1.154818
      py      :     1.094014

 56 C s       :     3.315778  s :     3.315778
      pz      :     1.030998  p :     2.898413
      px      :     0.932522
      py      :     0.934893

 57 H s       :     0.773174  s :     0.773174

 58 H s       :     0.777678  s :     0.777678

 59 C s       :     3.340560  s :     3.340560
      pz      :     1.156465  p :     3.269126
      px      :     0.990178
      py      :     1.122484

 60 C s       :     3.347644  s :     3.347644
      pz      :     1.026526  p :     3.277665
      px      :     1.092334
      py      :     1.158805

 61 H s       :     0.796898  s :     0.796898

 62 H s       :     0.798307  s :     0.798307

 63 H s       :     0.790767  s :     0.790767

 64 H s       :     0.795860  s :     0.795860

 65 H s       :     0.799991  s :     0.799991

 66 H s       :     0.803369  s :     0.803369

 67 H s       :     0.803104  s :     0.803104

 68 H s       :     0.785539  s :     0.785539

 69 H s       :     0.802500  s :     0.802500

 70 H s       :     0.799324  s :     0.799324

 71 H s       :     0.784943  s :     0.784943

 72 H s       :     0.808651  s :     0.808651


------------------------
MULLIKEN OVERLAP CHARGES
------------------------
B(  0-C ,  1-C ) :   0.4961 B(  0-C ,  2-C ) :  -0.1308 B(  0-C ,  3-H ) :  -0.0876 
B(  0-C ,  4-H ) :  -0.0673 B(  0-C ,  5-C ) :   0.4213 B(  0-C ,  6-C ) :  -0.1562 
B(  0-C , 14-C ) :   0.9461 B(  0-C , 15-C ) :  -0.2027 B(  0-C , 18-C ) :  -0.1835 
B(  0-C , 19-H ) :  -0.0751 B(  1-C ,  2-C ) :   0.5269 B(  1-C ,  3-H ) :   0.7958 
B(  1-C ,  4-H ) :   0.8136 B(  1-C ,  5-C ) :  -0.1484 B(  1-C ,  7-C ) :  -0.1691 
[...]
        0.0000         1.6030        0.0000
        0.0000         0.0000        1.6030

 Diagonalized JT*J matrix:
 
 J[55,60](FC)             1.603            1.603            1.603  iso=      1.603
                ---------------  ---------------  ---------------  ---------------
 J[55,60](Total)          1.603            1.603            1.603  iso=      1.603



-----------------------------------------------------------
 NUCLEUS A = C   56 NUCLEUS B = C   59 
 ( 13C  gnA =  1.405  13C  gnB =  1.405) r(AB) =     1.5321
-----------------------------------------------------------

Fermi-contact contribution to J (Hz):
       26.8957         0.0000        0.0000
        0.0000        26.8957        0.0000
        0.0000         0.0000       26.8957

Total spin-spin coupling tensor J (Hz):
       26.8957         0.0000        0.0000
        0.0000        26.8957        0.0000
        0.0000         0.0000       26.8957

 Diagonalized JT*J matrix:
 
 J[56,59](FC)            26.896           26.896           26.896  iso=     26.896
                ---------------  ---------------  ---------------  ---------------
 J[56,59](Total)         26.896           26.896           26.896  iso=     26.896



-----------------------------------------------------------
 NUCLEUS A = C   56 NUCLEUS B = C   60 
 ( 13C  gnA =  1.405  13C  gnB =  1.405) r(AB) =     1.5324
-----------------------------------------------------------

Fermi-contact contribution to J (Hz):
       26.1250         0.0000        0.0000
        0.0000        26.1250        0.0000
        0.0000         0.0000       26.1250

Total spin-spin coupling tensor J (Hz):
       26.1250         0.0000        0.0000
        0.0000        26.1250        0.0000
        0.0000         0.0000       26.1250

 Diagonalized JT*J matrix:
 
 J[56,60](FC)            26.125           26.125           26.125  iso=     26.125
                ---------------  ---------------  ---------------  ---------------
 J[56,60](Total)         26.125           26.125           26.125  iso=     26.125



-----------------------------------------------------------
 NUCLEUS A = C   59 NUCLEUS B = C   60 
 ( 13C  gnA =  1.405  13C  gnB =  1.405) r(AB) =     2.5129
-----------------------------------------------------------

Fermi-contact contribution to J (Hz):
       -1.0229         0.0000        0.0000
        0.0000        -1.0229        0.0000
        0.0000         0.0000       -1.0229

Total spin-spin coupling tensor J (Hz):
       -1.0229         0.0000        0.0000
        0.0000        -1.0229        0.0000
        0.0000         0.0000       -1.0229

 Diagonalized JT*J matrix:
 
 J[59,60](FC)            -1.023           -1.023           -1.023  iso=     -1.023
                ---------------  ---------------  ---------------  ---------------
 J[59,60](Total)         -1.023           -1.023           -1.023  iso=     -1.023



-----------------------------------------------------------------------------
                SUMMARY OF ISOTROPIC COUPLING CONSTANTS J (Hz)                
-----------------------------------------------------------------------------
                  0 C        1 C        2 C        5 C        6 C        7 C  
      0 C        0.000     32.402     -2.393     42.195     -0.175      0.886
      1 C       32.402      0.000     25.289     -1.181      0.379     -0.378
      2 C       -2.393     25.289      0.000      2.019     -1.359     25.793
      5 C       42.195     -1.181      2.019      0.000     30.986     -2.886
      6 C       -0.175      0.379     -1.359     30.986      0.000     23.088
      7 C        0.886     -0.378     25.793     -2.886     23.088      0.000
     14 C       70.207     -0.374      3.569     -3.177      2.737     -0.706
     15 C       -3.284      2.727     -0.840     64.301     -0.898      2.835
     18 C       -2.641      4.229     -1.078      3.279     -1.013      0.206
     20 C        6.941     -1.152      1.260     -1.504      0.781     -0.147
     22 C       -0.938      0.333     -0.381      0.446     -0.235      0.046
     23 C        0.796     -0.271      0.294     -0.333      0.189      0.000
     26 C       -0.077      0.030      0.000      0.041      0.000      0.000
     29 C        1.122     -0.359      0.000     -0.485      0.256      0.000
     32 C       -1.150      0.557     -0.416      0.514     -0.276      0.058
     34 C        0.021     -0.015      0.016     -0.017      0.008     -0.002
     36 C       -0.013      0.000      0.000      0.015     -0.008      0.000
     39 C       -0.080      0.000      0.000      0.033      0.000      0.000
     43 C        0.000      0.000      0.000      0.000      0.000      0.000
     44 C        0.007     -0.003      0.003     -0.005      0.005     -0.001
     49 C        0.000      0.000      0.000      0.000      0.000      0.000
     50 C        0.000      0.000      0.000      0.000      0.000      0.000
     51 C        0.000      0.000      0.000      0.000      0.000      0.000
     54 C        0.000      0.000      0.000      0.000      0.000      0.000
     55 C        0.000      0.000      0.000      0.000      0.000      0.000
     56 C        0.000      0.000      0.000      0.000      0.000      0.000
     59 C        0.000      0.000      0.000      0.000      0.000      0.000
     60 C        0.000      0.000      0.000      0.000      0.000      0.000
                 14 C       15 C       18 C       20 C       22 C       23 C  
      0 C       70.207     -3.284     -2.641      6.941     -0.938      0.796
      1 C       -0.374      2.727      4.229     -1.152      0.333     -0.271
      2 C        3.569     -0.840     -1.078      1.260     -0.381      0.294
      5 C       -3.177     64.301      3.279     -1.504      0.446     -0.333
      6 C        2.737     -0.898     -1.013      0.781     -0.235      0.189
      7 C       -0.706      2.835      0.206     -0.147      0.046      0.000
     14 C        0.000      3.064     54.445     -2.768      3.889     -0.895
     15 C        3.064      0.000     -1.128      1.070     -0.276      0.238
     18 C       54.445     -1.128      0.000     70.067     -2.150      2.474
     20 C       -2.768      1.070     70.067      0.000     32.225     -2.862
     22 C        3.889     -0.276     -2.150     32.225      0.000     24.421
     23 C       -0.895      0.238      2.474     -2.862     24.421      0.000
     26 C        0.116     -0.021     -0.364      1.025     -1.915     25.385
     29 C       -1.152      0.341      2.389     -2.345      1.083     -2.180
     32 C        4.412     -0.337     -1.327     37.005     -0.194      1.527
     34 C        0.062      0.005      2.459     -1.323      1.624     -0.253
     36 C        0.012     -0.014     -0.156      3.488      0.071      0.172
     39 C        0.267     -0.024     -0.054      2.941     -0.337      2.540
     43 C        0.013      0.000      0.297      0.226     -0.005     -0.107
     44 C        0.004      0.003     -0.075      0.701     -0.133      0.613
     49 C       -0.002      0.000     -0.009     -0.030      0.144      0.053
     50 C        0.000      0.000      0.004      0.227     -0.008      0.116
     51 C        0.000      0.000      0.000      0.068     -0.003      0.002
     54 C        0.000      0.000      0.000      0.000      0.000      0.000
     55 C        0.000      0.000      0.000      0.000      0.000      0.000
     56 C        0.000      0.000      0.000      0.000      0.000      0.000
     59 C        0.000      0.000      0.000      0.000      0.000      0.000
     60 C        0.000      0.000      0.000      0.000      0.000      0.000
                 26 C       29 C       32 C       34 C       36 C       39 C  
      0 C       -0.077      1.122     -1.150      0.021     -0.013     -0.080
      1 C        0.030     -0.359      0.557     -0.015      0.000      0.000
      2 C        0.000      0.000     -0.416      0.016      0.000      0.000
      5 C        0.041     -0.485      0.514     -0.017      0.015      0.033
      6 C        0.000      0.256     -0.276      0.008     -0.008      0.000
      7 C        0.000      0.000      0.058     -0.002      0.000      0.000
     14 C        0.116     -1.152      4.412      0.062      0.012      0.267
     15 C       -0.021      0.341     -0.337      0.005     -0.014     -0.024
     18 C       -0.364      2.389     -1.327      2.459     -0.156     -0.054
     20 C        1.025     -2.345     37.005     -1.323      3.488      2.941
     22 C       -1.915      1.083     -0.194      1.624      0.071     -0.337
     23 C       25.385     -2.180      1.527     -0.253      0.172      2.540
     26 C        0.000     27.826     -0.927      2.305      3.032     -0.551
     29 C       27.826      0.000     23.321      0.880      0.714     28.071
     32 C       -0.927     23.321      0.000     28.026      1.239      3.389
     34 C        2.305      0.880     28.026      0.000     26.048      0.035
     36 C        3.032      0.714      1.239     26.048      0.000     26.403
     39 C       -0.551     28.071      3.389      0.035     26.403      0.000
     43 C       -0.022     -0.669      2.847      1.531     -0.042     27.896
     44 C       -0.592     27.196     -0.999      0.809      0.297     -1.251
     49 C        0.445      0.122     -0.001      0.059      3.271     -1.018
     50 C       -0.075      3.052      0.023      0.104      1.438     -2.710
     51 C       -0.017      0.180      0.151     -0.038      0.052      2.854
     54 C       -0.003      0.116     -0.030      0.016      0.005     -0.754
     55 C       -0.008      0.098      0.052     -0.007      0.007      1.088
     56 C        0.001     -0.002      0.002     -0.002      0.004      0.055
     59 C        0.000      0.000      0.000      0.001      0.003     -0.022
     60 C        0.000     -0.001     -0.002      0.003      0.011     -0.040
                 43 C       44 C       49 C       50 C       51 C       54 C  
      0 C        0.000      0.007      0.000      0.000      0.000      0.000
      1 C        0.000     -0.003      0.000      0.000      0.000      0.000
      2 C        0.000      0.003      0.000      0.000      0.000      0.000
      5 C        0.000     -0.005      0.000      0.000      0.000      0.000
      6 C        0.000      0.005      0.000      0.000      0.000      0.000
      7 C        0.000     -0.001      0.000      0.000      0.000      0.000
     14 C        0.013      0.004     -0.002      0.000      0.000      0.000
     15 C        0.000      0.003      0.000      0.000      0.000      0.000
     18 C        0.297     -0.075     -0.009      0.004      0.000      0.000
     20 C        0.226      0.701     -0.030      0.227      0.068      0.000
     22 C       -0.005     -0.133      0.144     -0.008     -0.003      0.000
     23 C       -0.107      0.613      0.053      0.116      0.002      0.000
     26 C       -0.022     -0.592      0.445     -0.075     -0.017     -0.003
     29 C       -0.669     27.196      0.122      3.052      0.180      0.116
     32 C        2.847     -0.999     -0.001      0.023      0.151     -0.030
     34 C        1.531      0.809      0.059      0.104     -0.038      0.016
     36 C       -0.042      0.297      3.271      1.438      0.052      0.005
     39 C       27.896     -1.251     -1.018     -2.710      2.854     -0.754
     43 C        0.000      1.419     27.367     36.032     -1.403      3.332
     44 C        1.419      0.000     -0.022     -0.108      0.077      0.005
     49 C       27.367     -0.022      0.000     -1.965      3.154      0.032
     50 C       36.032     -0.108     -1.965      0.000     69.338     -1.598
     51 C       -1.403      0.077      3.154     69.338      0.000     36.197
     54 C        3.332      0.005      0.032     -1.598     36.197      0.000
     55 C       -0.665     -0.007      0.039      3.329     -1.975     25.968
     56 C       -0.070     -0.001      0.120      2.425     -1.269     27.289
     59 C       -0.002      0.000      0.053     -0.090      3.222     -0.329
     60 C        0.033     -0.001      0.011     -0.072      0.396     -1.415
                 55 C       56 C       59 C       60 C  
      0 C        0.000      0.000      0.000      0.000
      1 C        0.000      0.000      0.000      0.000
      2 C        0.000      0.000      0.000      0.000
      5 C        0.000      0.000      0.000      0.000
      6 C        0.000      0.000      0.000      0.000
      7 C        0.000      0.000      0.000      0.000
     14 C        0.000      0.000      0.000      0.000
     15 C        0.000      0.000      0.000      0.000
     18 C        0.000      0.000      0.000      0.000
     20 C        0.000      0.000      0.000      0.000
     22 C        0.000      0.000      0.000      0.000
     23 C        0.000      0.000      0.000      0.000
     26 C       -0.008      0.001      0.000      0.000
     29 C        0.098     -0.002      0.000     -0.001
     32 C        0.052      0.002      0.000     -0.002
     34 C       -0.007     -0.002      0.001      0.003
     36 C        0.007      0.004      0.003      0.011
     39 C        1.088      0.055     -0.022     -0.040
     43 C       -0.665     -0.070     -0.002      0.033
     44 C       -0.007     -0.001      0.000     -0.001
     49 C        0.039      0.120      0.053      0.011
     50 C        3.329      2.425     -0.090     -0.072
     51 C       -1.975     -1.269      3.222      0.396
     54 C       25.968     27.289     -0.329     -1.415
     55 C        0.000     -1.620      0.581      1.603
     56 C       -1.620      0.000     26.896     26.125
     59 C        0.581     26.896      0.000     -1.023
     60 C        1.603     26.125     -1.023      0.000

NMR spin-spin coupling calculation done in   0.3 sec 

Maximum memory used throughout the entire PROP-calculation: 34.1 MB

--------------------------------
SUGGESTED CITATIONS FOR THIS RUN
--------------------------------

Below you find a list of papers that are relevant to this ORCA run
We neither can nor want to force you to cite these papers, but we appreciate if you do
You receive ORCA, which is the product of decades of hard work by many enthusiastic individuals, for free
The only thing we kindly ask in return is that you cite our papers,
We deeply appreciate it, if you show your appreciation for ORCA by not just citing the generic ORCA reference.

Please note that relegating all ORCA citations to the supporting information does *not* help us.
SI sections are not indexed - citations you put there will not count into any citation statistics
But we need these citations in order to attract the funding resources that allow us to do what we are doing

Therefore, if you are a happy ORCA user, please consider citing a few of the papers listed below in the main body of your paper

In addition to the list printed below, the program has created the file inpJ.bibtex that contains the list in bibtex format
You can import this file easily into all common literature databanks and citation aid programs


List of essential papers. We consider these as the minimum necessary citations

  1. Neese,F.
     Software update: the ORCA program system, version 5.0
     WIRES Comput. Molec. Sci., 2022 12(1)e1606
     doi.org/10.1002/wcms.1606

List of papers to cite with high priority. The work reported in these papers was absolutely
necessary for this run to complete.
Our perspective: the developers of density functionals and basis sets usually get cited in chemistry papers
Good! But without the algorithms to do something with them, the functionals or basis sets would not do anything.
Hence, in our opinion, the algorithm design and method developments papers are equally worthy of getting cited

  1. Neese,F.
     An improvement of the resolution of the identity approximation for the formation of the Coulomb matrix
     J. Comp. Chem., 2003 24(14)1740-1747
     doi.org/10.1002/jcc.10318
  2. Neese,F.; Wennmohs,F.; Hansen,A.; Becker,U.
     Efficient, approximate and parallel Hartree-Fock and hybrid DFT calculations. A 'chain-of-spheres' algorithm for the Hartree-Fock exchange
     Chem. Phys., 2009 356(1-3)98-109
     doi.org/10.1016/j.chemphys.2008.10.036
  3. Stoychev,G.L.; Auer,A.A.; Izsak,R.; Neese,F.
     Self-Consistent Field Calculation of Nuclear Magnetic Resonance Chemical Shielding Constants Using Gauge-Including Atomic Orbitals and Approximate Two-Electron Integrals
     J. Chem. Theory Comput., 2018 14(2)619-637
     doi.org/10.1021/acs.jctc.7b01006
  4. Garcia-Rates,M.; Neese,F.
     Effect of the Solute Cavity on the Solvation Energy and its Derivatives within the Framework of the Gaussian Charge Scheme
     J. Comput. Chem., 2020 41 922-939
     doi.org/10.1002/jcc.26139
  5. Helmich-Paris,B.; de Souza,B.; Neese,F.; Izsák,R.
     An improved chain of spheres for exchange algorithm
     J. Chem. Phys., 2021 155 104109
     doi.org/doi: 10.1063/5.0058766.
  6. Neese,F.
     The SHARK Integral Generation and Digestion System
     J. Comp. Chem., 2022  1-16
     doi.org/10.1002/jcc.26942
  7. Grimme,S.; Bannwarth,C.; Dohm,S.; Hansen,A.; Pisarek,J.; Pracht,P.; Seibert,J.; Neese,F.
     Fully Automated Quantum-Chemistry-Based Computation of Spin-Spin-Coupled Nuclear Magnetic Resonance Spectra
     Angew. Chem., Int. Ed., 2017 56 14763-14769
     doi.org/10.1002/anie.201708266
  8. Caldeweyher,E.; Bannwarth,C.; Grimme,S.
     Extension of the D3 dispersion coefficient model
     J. Chem. Phys., 2017 147 034112-XXXX
     doi.org/10.1063/1.4993215
  9. Caldeweyher,E.; Ehlert,S.; Hansen,A.; Neugebauer,H.; Spicher,S.; Bannwarth,C.; Grimme,S.
     A generally applicable atomic-charge dependent London dispersion correction
     J. Chem. Phys., 2019 150 154122-XXXX
     doi.org/10.1063/1.5090222
 10. Caldeweyher,E.; Mewes,J.; Ehlert,S.; Grimme,S.
     Extension and evaluation of the D4 London-dispersion model for periodic systems
     Phys. Chem. Chem. Phys., 2020 22(16)8499-8512
     doi.org/10.1039/D0CP00502A

List of suggested additional citations. These are papers that are important in the 'surrounding' of 
of this run, or papers that preceded the highly important papers. If you like your results we are grateful for a citation.

  1. Izsak,R.; Neese,F.
     An overlap fitted chain of spheres exchange method
     J. Chem. Phys., 2011 135 144105
     doi.org/10.1063/1.3646921
  2. Izsak,R.; Hansen,A.; Neese,F.
     The resolution of identity and chain of spheres approximations for the LPNO-CCSD singles Fock term
     Molec. Phys., 2012 110 2413-2417
     doi.org/10.1080/00268976.2012.687466
  3. Neese,F.
     The ORCA program system
     WIRES Comput. Molec. Sci., 2012 2(1)73-78
     doi.org/10.1002/wcms.81
  4. Izsak,R.; Neese,F.; Klopper,W.
     Robust fitting techniques in the chain of spheres approximation to the Fock exchange: The role of the complementary space
     J. Chem. Phys., 2013 139 
     doi.org/10.1063/1.4819264
  5. Neese,F.
     Software update: the ORCA program system, version 4.0
     WIRES Comput. Molec. Sci., 2018 8(1)1-6
     doi.org/10.1002/wcms.1327
  6. Neese,F.; Wennmohs,F.; Becker,U.; Riplinger,C.
     The ORCA quantum chemistry program package
     J. Chem. Phys., 2020 152 Art. No. L224108
     doi.org/10.1063/5.0004608

Timings for individual modules:

Sum of individual times          ...      157.759 sec (=   2.629 min)
Startup calculation              ...        4.023 sec (=   0.067 min)   2.5 %
SCF iterations                   ...       57.737 sec (=   0.962 min)  36.6 %
Property integrals               ...        0.722 sec (=   0.012 min)   0.5 %
SCF Response                     ...       94.774 sec (=   1.580 min)  60.1 %
Property calculations            ...        0.504 sec (=   0.008 min)   0.3 %
                             ****ORCA TERMINATED NORMALLY****
TOTAL RUN TIME: 0 days 0 hours 2 minutes 38 seconds 58 msec
