
                                 *****************
                                 * O   R   C   A *
                                 *****************

                                            #,                                       
                                            ###                                      
                                            ####                                     
                                            #####                                    
                                            ######                                   
                                           ########,                                 
                                     ,,################,,,,,                         
                               ,,#################################,,                 
                          ,,##########################################,,             
                       ,#########################################, ''#####,          
                    ,#############################################,,   '####,        
                  ,##################################################,,,,####,       
                ,###########''''           ''''###############################       
              ,#####''   ,,,,##########,,,,          '''####'''          '####       
            ,##' ,,,,###########################,,,                        '##       
           ' ,,###''''                  '''############,,,                           
         ,,##''                                '''############,,,,        ,,,,,,###''
      ,#''                                            '''#######################'''  
     '                                                          ''''####''''         
             ,#######,   #######,   ,#######,      ##                                
            ,#'     '#,  ##    ##  ,#'     '#,    #''#        ,####,   ,####,        
            ##       ##  ##   ,#'  ##            #'  '#       #'       #'  '#        
            ##       ##  #######   ##           ,######,      #####,   #    #        
            '#,     ,#'  ##    ##  '#,     ,#' ,#      #,     #,   #   #,  ,#        
             '#######'   ##     ##  '#######'  #'      '#     '####' # '####'        



                #########################################################
                #                        -***-                          #
                #          Department of theory and spectroscopy        #
                #                                                       #
                #                      Frank Neese                      #
                #                                                       #
                #     Directorship, Architecture, Infrastructure        #
                #                    SHARK, DRIVERS                     #
                #        Core code/Algorithms in most modules           #
                #                                                       #
                #        Max Planck Institute fuer Kohlenforschung      #
                #                Kaiser Wilhelm Platz 1                 #
                #                 D-45470 Muelheim/Ruhr                 #
                #                      Germany                          #
                #                                                       #
                #                  All rights reserved                  #
                #                        -***-                          #
                #########################################################


                         Program Version 6.0.0  -   RELEASE  -


 With contributions from (in alphabetic order):
   Daniel Aravena         : Magnetic Suceptibility
   Michael Atanasov       : Ab Initio Ligand Field Theory (pilot matlab implementation)
   Alexander A. Auer      : GIAO ZORA, VPT2 properties, NMR spectrum
   Ute Becker             : All parallelization in ORCA, NUMFREQ, NUMCALC
   Giovanni Bistoni       : ED, misc. LED, open-shell LED, HFLD
   Martin Brehm           : Molecular dynamics
   Dmytro Bykov           : pre 5.0 version of the SCF Hessian
   Marcos Casanova-Páez   : Triplet and SCS-CIS(D). UHF-(DLPNO)-IP/EA/STEOM-CCSD. UHF-CVS-IP/STEOM-CCSD
   Vijay G. Chilkuri      : MRCI spin determinant printing, contributions to CSF-ICE
   Pauline Colinet        : FMM embedding
   Dipayan Datta          : RHF DLPNO-CCSD density
   Achintya Kumar Dutta   : EOM-CC, STEOM-CC
   Nicolas Foglia         : Exact transition moments, OPA infrastructure, MCD improvements
   Dmitry Ganyushin       : Spin-Orbit,Spin-Spin,Magnetic field MRCI
   Miquel Garcia          : C-PCM and meta-GGA Hessian, CCSD/C-PCM, Gaussian charge scheme
   Tiago L. C. Gouveia    : GS-ROHF, GS-ROCIS
   Yang Guo               : DLPNO-NEVPT2, F12-NEVPT2, CIM, IAO-localization
   Andreas Hansen         : Spin unrestricted coupled pair/coupled cluster methods
   Ingolf Harden          : AUTO-CI MPn and infrastructure 
   Benjamin Helmich-Paris : MC-RPA, TRAH-(SCF,CASSCF), AVAS, COSX integrals, SCF dyn. polar.
   Lee Huntington         : MR-EOM, pCC
   Robert Izsak           : Overlap fitted RIJCOSX, COSX-SCS-MP3, EOM
   Riya Kayal             : Wick's Theorem for AUTO-CI, AUTO-CI UHF-CCSDT
   Emily Kempfer          : AUTO-CI, RHF CISDT and CCSDT
   Christian Kollmar      : KDIIS, OOCD, Brueckner-CCSD(T), CCSD density, CASPT2, CASPT2-K, improved NEVPT2
   Axel Koslowski         : Symmetry handling
   Simone Kossmann        : Meta GGA functionals, TD-DFT gradient, OOMP2, (MP2 Hessian; deprecated post 5.0)
   Lucas Lang             : DCDCAS
   Marvin Lechner         : AUTO-CI (C++ implementation), FIC-MRCC
   Spencer Leger          : CASSCF response
   Dagmar Lenk            : GEPOL surface, SMD, ORCA-2-JSON
   Dimitrios Liakos       : Extrapolation schemes; Compound Job, initial MDCI parallelization
   Dimitrios Manganas     : Further ROCIS development; embedding schemes. LFT, Crystal Embedding
   Dimitrios Pantazis     : SARC Basis sets
   Anastasios Papadopoulos: AUTO-CI, single reference methods and gradients
   Taras Petrenko         : pre 6.0 DFT Hessian and TD-DFT gradient, (ASA, deprecated), ECA, 1-Electron XAS/XES, NRVS
   Peter Pinski           : DLPNO-MP2, DLPNO-MP2 Gradient
   Christoph Reimann      : Effective Core Potentials
   Marius Retegan         : Local ZFS, SOC
   Christoph Riplinger    : Optimizer, TS searches, QM/MM, DLPNO-CCSD(T), (RO)-DLPNO pert. Triples
   Michael Roemelt        : Original ROCIS implementation
   Masaaki Saitow         : Open-shell DLPNO-CCSD energy and density
   Barbara Sandhoefer     : DKH picture change effects
   Kantharuban Sivalingam : CASSCF convergence/infrastructure, NEVPT2 and variants, FIC-MRCI
   Bernardo de Souza      : ESD, SOC TD-DFT
   Georgi Stoychev        : AutoAux, RI-MP2 NMR, DLPNO-MP2 response, X2C
   Van Anh Tran           : RI-MP2 g-tensors
   Willem Van den Heuvel  : Paramagnetic NMR
   Zikuan Wang            : NOTCH, Electric field optimization 
   Frank Wennmohs         : Technical directorship and infrastructure
   Hang Xu                : AUTO-CI-Response properties 


 We gratefully acknowledge several colleagues who have allowed us to
 interface, adapt or use parts of their codes:
   Stefan Grimme, W. Hujo, H. Kruse, P. Pracht,  : VdW corrections, initial TS optimization,
                  C. Bannwarth, S. Ehlert,         DFT functionals, gCP, sTDA/sTD-DF
                  L. Wittmann, M. Mueller
   Ed Valeev, F. Pavosevic, A. Kumar             : LibInt (2-el integral package), F12 methods
   Garnet Chan, S. Sharma, J. Yang, R. Olivares  : DMRG
   Ulf Ekstrom                                   : XCFun DFT Library
   Mihaly Kallay                                 : mrcc  (arbitrary order and MRCC methods)
   Frank Weinhold                                : gennbo (NPA and NBO analysis)
   Simon Mueller                                 : openCOSMO-RS
   Christopher J. Cramer and Donald G. Truhlar   : smd solvation model
   Lars Goerigk                                  : TD-DFT with DH, B97 family of functionals
   V. Asgeirsson, H. Jonsson                     : NEB implementation
   FAccTs GmbH                                   : IRC, NEB, NEB-TS, DLPNO-Multilevel, CI-OPT
                                                   MM, QMMM, 2- and 3-layer-ONIOM, Crystal-QMMM,
                                                   LR-CPCM, SF, NACMEs, symmetry and pop. for TD-DFT,
                                                   nearIR, NL-DFT gradient (VV10), updates on ESD,
                                                   ML-optimized integration grids, MBIS, APM,
                                                   GOAT, DOCKER, SOLVATOR, interface openCOSMO-RS
   S Lehtola, MJT Oliveira, MAL Marques          : LibXC Library
   Liviu Ungur et al                             : ANISO software


 Your calculation uses the libint2 library for the computation of 2-el integrals
 For citations please refer to: http://libint.valeyev.net

 Your ORCA version has been built with support for libXC version: 6.2.2
 For citations please refer to: https://libxc.gitlab.io

 This ORCA versions uses:
   CBLAS   interface :  Fast vector & matrix operations
   LAPACKE interface :  Fast linear algebra routines
   SCALAPACK package :  Parallel linear algebra routines
   Shared memory     :  Shared parallel matrices
   BLAS/LAPACK       :  OpenBLAS 0.3.27  USE64BITINT DYNAMIC_ARCH NO_AFFINITY Zen SINGLE_THREADED
        Core in use  :  Zen
   Copyright (c) 2011-2014, The OpenBLAS Project


NOTE: MaxCore=8000 MB was set to SCF,MP2,MDCI,CIPSI,MRCI and CIS
      => If you want to overwrite this, your respective input block should be placed after the MaxCore statement
Your calculation utilizes the atom-pairwise dispersion correction
based on EEQ partial charges (D4)


================================================================================

----- Orbital basis set information -----
Your calculation utilizes the basis: pcJ-0
   F. Jensen, Theor. Chem. Acc. 126, 371 (2010).

----- AuxJ basis set information -----
Your calculation utilizes the auxiliary basis: def2/J
   F. Weigend, Phys. Chem. Chem. Phys. 8, 1057 (2006).

================================================================================
                                        WARNINGS
                       Please study these warnings very carefully!
================================================================================

WARNING: Old DensityContainer found on disk!
         Will remove this file - 
         If you want to keep old densities, please start your calculation with a different basename. 


================================================================================
                                       INPUT FILE
================================================================================
NAME = inpJ
|  1> ! pbe0
|  2> ! D4
|  3> ! pcJ-0
|  4> ! def2/J RIJCOSX
|  5> ! DEFGRID2
|  6> ! scfconv7
|  7> ! smallprint printgap noloewdin
|  8> ! NOSOSCF
|  9> %MaxCore 8000
| 10> %output
| 11>        print[P_BondOrder_M] 1
| 12>        print[P_Mayer] 1
| 13>        print[P_basis] 2
| 14> end
| 15> %pal
| 16>     nprocs 4
| 17> end
| 18> ! CPCM(chloroform)
| 19> *xyz 0 1
| 20> C   -5.0120824500   0.3114420700   0.3401870100
| 21> C   -6.4244469800  -0.1014864500  -0.0009189300
| 22> C   -6.9662728700   0.6725424500  -1.2088887600
| 23> H   -7.0870956200   0.1204178000   0.8528694300
| 24> H   -6.4770098800  -1.1787051000  -0.1934565100
| 25> C   -4.8211603800   1.7722195000   0.4642086700
| 26> C   -5.4078354500   2.5783026700  -0.6726518000
| 27> C   -6.8588128700   2.1739267000  -0.9668672600
| 28> H   -4.8061662800   2.3936287600  -1.5755927100
| 29> H   -5.3428485800   3.6486380000  -0.4503742000
| 30> H   -7.2343396900   2.7171208800  -1.8420511300
| 31> H   -7.4969779500   2.4390100800  -0.1103808900
| 32> O   -8.3089856500   0.2770964100  -1.5188226500
| 33> H   -6.3802473500   0.4034970200  -2.0988570000
| 34> C   -4.0290684200  -0.6115044600   0.4646118400
| 35> C   -4.2218558000   2.3500389400   1.5115974400
| 36> H   -3.8286681000   1.7603081100   2.3349620300
| 37> H   -4.1217921100   3.4311636700   1.5719632900
| 38> C   -2.6271054000  -0.3471018700   0.6907939300
| 39> H   -4.3281032700  -1.6513068700   0.3396688300
| 40> C   -1.6587273700  -1.2680164300   0.8849130700
| 41> H   -2.3351729400   0.7005470100   0.6904551800
| 42> C   -1.8648602400  -2.7594689700   0.9615446900
| 43> C   -0.9360326400  -3.5143505100  -0.0077151800
| 44> H   -2.9045043800  -3.0454470600   0.7800890800
| 45> H   -1.6226990900  -3.0796888500   1.9876464000
| 46> C    0.5334120500  -3.0937388500   0.1322363300
| 47> H   -1.2748084200  -3.3401120900  -1.0368137200
| 48> H   -1.0276402300  -4.5925534600   0.1720378000
| 49> C    0.7080947400  -1.5743853200  -0.0027737900
| 50> H    1.1285977200  -3.6324521300  -0.6119733200
| 51> H    0.9047457000  -3.3991296000   1.1221519800
| 52> C   -0.2164084700  -0.9036899100   1.0629102900
| 53> H    0.1002424200  -1.3509349600   2.0233294700
| 54> C    0.2291577000   0.5547248300   1.0790488700
| 55> H   -8.8621317200   0.5033069500  -0.7591184600
| 56> C    1.7583746700   0.4697805200   0.8507963200
| 57> H   -0.0339592600   1.0562177200   2.0162749000
| 58> H   -0.2481388200   1.1153746000   0.2676764800
| 59> C    2.0819647400  -1.0014656000   0.4467841800
| 60> H    2.3180190700   0.7575908300   1.7463424000
| 61> H    2.0657865600   1.1578764600   0.0539602300
| 62> H    2.3702789300  -1.5572122100   1.3535918700
| 63> C    3.2812388300  -1.0864849200  -0.5285536400
| 64> C    0.3504189100  -1.0991063400  -1.4171709600
| 65> H   -0.7159009100  -1.2304834600  -1.6252582500
| 66> H    0.9126553600  -1.6631609800  -2.1693603300
| 67> H    0.5812959100  -0.0383173600  -1.5569916300
| 68> H    3.0086235300  -0.4960788400  -1.4196763500
| 69> C    3.5980633400  -2.5104698400  -0.9820067500
| 70> C    4.4675796300  -0.3913159200   0.0984288200
| 71> C    5.6209068100  -0.9580565400   0.4568809100
| 72> H    4.3302658600   0.6739622800   0.2781011200
| 73> H    5.7580983100  -2.0249998400   0.2837536700
| 74> C    6.7970903500  -0.2633645200   1.0927870800
| 75> C    6.5199784400   1.1832845100   1.5002902800
| 76> C    8.0776126900  -0.3755032000   0.2144313800
| 77> H    7.0302670800  -0.8234669100   2.0142684000
| 78> H    8.8691908100   0.1484420900   0.7716363800
| 79> C    7.9241769200   0.3047439700  -1.1474291400
| 80> C    8.5252767800  -1.8287253800   0.0338607800
| 81> H    5.6887891200   1.2376952500   2.2115305300
| 82> H    6.2629468200   1.8109759700   0.6408944400
| 83> H    7.4055096800   1.6163499700   1.9779350800
| 84> H    8.8540810800   0.2229923800  -1.7211592200
| 85> H    7.6826631500   1.3682574700  -1.0542545100
| 86> H    7.1259358000  -0.1727897700  -1.7280569900
| 87> H    7.8297041200  -2.3846745100  -0.6052443100
| 88> H    8.5933599700  -2.3493070400   0.9961677200
| 89> H    9.5106614800  -1.8683208400  -0.4434383700
| 90> H    4.5199624500  -2.5312243000  -1.5734747800
| 91> H    2.7967673600  -2.9114411300  -1.6056912000
| 92> H    3.7285272700  -3.1827554100  -0.1256978600
| 93> *
| 94> %eprnmr
| 95>  Nuclei = all C { ssfc }
| 96>  SpinSpinRThresh 8.0
| 97> end
| 98> 
| 99>                          ****END OF INPUT****
================================================================================

                       ****************************
                       * Single Point Calculation *
                       ****************************

---------------------------------
CARTESIAN COORDINATES (ANGSTROEM)
---------------------------------
  C     -5.012082    0.311442    0.340187
  C     -6.424447   -0.101486   -0.000919
  C     -6.966273    0.672542   -1.208889
  H     -7.087096    0.120418    0.852869
  H     -6.477010   -1.178705   -0.193457
  C     -4.821160    1.772219    0.464209
  C     -5.407835    2.578303   -0.672652
  C     -6.858813    2.173927   -0.966867
  H     -4.806166    2.393629   -1.575593
  H     -5.342849    3.648638   -0.450374
  H     -7.234340    2.717121   -1.842051
  H     -7.496978    2.439010   -0.110381
  O     -8.308986    0.277096   -1.518823
  H     -6.380247    0.403497   -2.098857
  C     -4.029068   -0.611504    0.464612
  C     -4.221856    2.350039    1.511597
  H     -3.828668    1.760308    2.334962
  H     -4.121792    3.431164    1.571963
  C     -2.627105   -0.347102    0.690794
  H     -4.328103   -1.651307    0.339669
  C     -1.658727   -1.268016    0.884913
  H     -2.335173    0.700547    0.690455
  C     -1.864860   -2.759469    0.961545
  C     -0.936033   -3.514351   -0.007715
  H     -2.904504   -3.045447    0.780089
  H     -1.622699   -3.079689    1.987646
  C      0.533412   -3.093739    0.132236
  H     -1.274808   -3.340112   -1.036814
  H     -1.027640   -4.592553    0.172038
  C      0.708095   -1.574385   -0.002774
  H      1.128598   -3.632452   -0.611973
  H      0.904746   -3.399130    1.122152
  C     -0.216408   -0.903690    1.062910
  H      0.100242   -1.350935    2.023329
  C      0.229158    0.554725    1.079049
  H     -8.862132    0.503307   -0.759118
  C      1.758375    0.469781    0.850796
  H     -0.033959    1.056218    2.016275
  H     -0.248139    1.115375    0.267676
  C      2.081965   -1.001466    0.446784
  H      2.318019    0.757591    1.746342
  H      2.065787    1.157876    0.053960
  H      2.370279   -1.557212    1.353592
  C      3.281239   -1.086485   -0.528554
  C      0.350419   -1.099106   -1.417171
  H     -0.715901   -1.230483   -1.625258
  H      0.912655   -1.663161   -2.169360
  H      0.581296   -0.038317   -1.556992
  H      3.008624   -0.496079   -1.419676
  C      3.598063   -2.510470   -0.982007
  C      4.467580   -0.391316    0.098429
  C      5.620907   -0.958057    0.456881
  H      4.330266    0.673962    0.278101
  H      5.758098   -2.025000    0.283754
  C      6.797090   -0.263365    1.092787
  C      6.519978    1.183285    1.500290
  C      8.077613   -0.375503    0.214431
  H      7.030267   -0.823467    2.014268
  H      8.869191    0.148442    0.771636
  C      7.924177    0.304744   -1.147429
  C      8.525277   -1.828725    0.033861
  H      5.688789    1.237695    2.211531
  H      6.262947    1.810976    0.640894
  H      7.405510    1.616350    1.977935
  H      8.854081    0.222992   -1.721159
  H      7.682663    1.368257   -1.054255
  H      7.125936   -0.172790   -1.728057
  H      7.829704   -2.384675   -0.605244
  H      8.593360   -2.349307    0.996168
  H      9.510661   -1.868321   -0.443438
  H      4.519962   -2.531224   -1.573475
  H      2.796767   -2.911441   -1.605691
  H      3.728527   -3.182755   -0.125698

----------------------------
CARTESIAN COORDINATES (A.U.)
----------------------------
  NO LB      ZA    FRAG     MASS         X           Y           Z
   0 C     6.0000    0    12.011   -9.471463    0.588540    0.642860
   1 C     6.0000    0    12.011  -12.140445   -0.191782   -0.001737
   2 C     6.0000    0    12.011  -13.164348    1.270921   -2.284469
   3 H     1.0000    0     1.008  -13.392670    0.227557    1.611690
   4 H     1.0000    0     1.008  -12.239775   -2.227430   -0.365580
   5 C     6.0000    0    12.011   -9.110673    3.349010    0.877227
   6 C     6.0000    0    12.011  -10.219328    4.872286   -1.271128
   7 C     6.0000    0    12.011  -12.961278    4.108126   -1.827114
   8 H     1.0000    0     1.008   -9.082338    4.523303   -2.977439
   9 H     1.0000    0     1.008  -10.096521    6.894927   -0.851084
  10 H     1.0000    0     1.008  -13.670921    5.134614   -3.480972
  11 H     1.0000    0     1.008  -14.167235    4.609061   -0.208590
  12 O     8.0000    0    15.999  -15.701707    0.523636   -2.870159
  13 H     1.0000    0     1.008  -12.056920    0.762499   -3.966265
  14 C     6.0000    0    12.011   -7.613836   -1.155576    0.877989
  15 C     6.0000    0    12.011   -7.978151    4.440930    2.856505
  16 H     1.0000    0     1.008   -7.235134    3.326500    4.412439
  17 H     1.0000    0     1.008   -7.789058    6.483960    2.970580
  18 C     6.0000    0    12.011   -4.964510   -0.655927    1.305411
  19 H     1.0000    0     1.008   -8.178930   -3.120518    0.641881
  20 C     6.0000    0    12.011   -3.134540   -2.396204    1.672243
  21 H     1.0000    0     1.008   -4.412837    1.323842    1.304771
  22 C     6.0000    0    12.011   -3.524075   -5.214641    1.817056
  23 C     6.0000    0    12.011   -1.768845   -6.641160   -0.014580
  24 H     1.0000    0     1.008   -5.488718   -5.755061    1.474155
  25 H     1.0000    0     1.008   -3.066457   -5.819769    3.756107
  26 C     6.0000    0    12.011    1.008003   -5.846319    0.249890
  27 H     1.0000    0     1.008   -2.409039   -6.311897   -1.959294
  28 H     1.0000    0     1.008   -1.941959   -8.678668    0.325104
  29 C     6.0000    0    12.011    1.338105   -2.975157   -0.005242
  30 H     1.0000    0     1.008    2.132741   -6.864340   -1.156462
  31 H     1.0000    0     1.008    1.709722   -6.423424    2.120560
  32 C     6.0000    0    12.011   -0.408953   -1.707726    2.008609
  33 H     1.0000    0     1.008    0.189431   -2.552897    3.823539
  34 C     6.0000    0    12.011    0.433045    1.048278    2.039107
  35 H     1.0000    0     1.008  -16.747002    0.951112   -1.434526
  36 C     6.0000    0    12.011    3.322847    0.887757    1.607772
  37 H     1.0000    0     1.008   -0.064174    1.995962    3.810207
  38 H     1.0000    0     1.008   -0.468914    2.107753    0.505835
  39 C     6.0000    0    12.011    3.934343   -1.892496    0.844300
  40 H     1.0000    0     1.008    4.380421    1.431639    3.300109
  41 H     1.0000    0     1.008    3.903771    2.188069    0.101970
  42 H     1.0000    0     1.008    4.479178   -2.942705    2.557918
  43 C     6.0000    0    12.011    6.200643   -2.053159   -0.998822
  44 C     6.0000    0    12.011    0.662196   -2.077010   -2.678065
  45 H     1.0000    0     1.008   -1.352857   -2.325277   -3.071293
  46 H     1.0000    0     1.008    1.724669   -3.142919   -4.099497
  47 H     1.0000    0     1.008    1.098490   -0.072409   -2.942288
  48 H     1.0000    0     1.008    5.685475   -0.937453   -2.682800
  49 C     6.0000    0    12.011    6.799354   -4.744100   -1.855724
  50 C     6.0000    0    12.011    8.442502   -0.739480    0.186004
  51 C     6.0000    0    12.011   10.621974   -1.810464    0.863380
  52 H     1.0000    0     1.008    8.183017    1.273604    0.525535
  53 H     1.0000    0     1.008   10.881229   -3.826695    0.536217
  54 C     6.0000    0    12.011   12.844639   -0.497687    2.065068
  55 C     6.0000    0    12.011   12.320974    2.236084    2.835138
  56 C     6.0000    0    12.011   15.264476   -0.709598    0.405217
  57 H     1.0000    0     1.008   13.285279   -1.556127    3.806416
  58 H     1.0000    0     1.008   16.760342    0.280515    1.458181
  59 C     6.0000    0    12.011   14.974524    0.575883   -2.168327
  60 C     6.0000    0    12.011   16.110438   -3.455790    0.063988
  61 H     1.0000    0     1.008   10.750253    2.338905    4.179187
  62 H     1.0000    0     1.008   11.835254    3.422249    1.211115
  63 H     1.0000    0     1.008   13.994385    3.054459    3.737756
  64 H     1.0000    0     1.008   16.731788    0.421395   -3.252520
  65 H     1.0000    0     1.008   14.518129    2.585632   -1.992252
  66 H     1.0000    0     1.008   13.466067   -0.326525   -3.265554
  67 H     1.0000    0     1.008   14.795996   -4.506382   -1.143746
  68 H     1.0000    0     1.008   16.239097   -4.439547    1.882484
  69 H     1.0000    0     1.008   17.972546   -3.530615   -0.837977
  70 H     1.0000    0     1.008    8.541491   -4.783321   -2.973436
  71 H     1.0000    0     1.008    5.285124   -5.501826   -3.034317
  72 H     1.0000    0     1.008    7.045895   -6.014536   -0.237535

--------------------------------
INTERNAL COORDINATES (ANGSTROEM)
--------------------------------
 C      0   0   0     0.000000000000     0.00000000     0.00000000
 C      1   0   0     1.510508785322     0.00000000     0.00000000
 C      2   1   0     1.533586366430   111.73104209     0.00000000
 H      2   1   3     1.103312865842   109.38071411   241.45811419
 H      2   1   3     1.095551732268   110.69198691   122.87586827
 C      1   2   3     1.478412428573   114.19243610    50.52236549
 C      6   1   2     1.512087776211   114.42851293   312.05450817
 C      3   2   1     1.524557878275   110.31007767   304.98369857
 H      7   6   1     1.100641871871   108.37629794   289.91998171
 H      7   6   1     1.095101978530   110.20658340   172.72946284
 H      8   3   2     1.096369972242   109.69737689   179.13789844
 H      8   3   2     1.100496601394   108.65630219   296.58214192
 O      3   2   1     1.433636703038   111.22098849   180.28918982
 H      3   2   1     1.099024486399   109.01990256    65.12218476
 C      1   2   3     1.354115363895   120.87735831   232.72565478
 C      6   1   2     1.337932928204   123.38351662   129.86175154
 H     16   6   1     1.086419931403   121.39754687     0.65517953
 H     16   6   1     1.087422392505   120.93395815   181.34259505
 C     15   1   2     1.444495544086   126.45559547   175.24858195
 H     15   1   2     1.089138030327   116.15842168   357.93451612
 C     19  15   1     1.350378419674   126.41869123   176.25261644
 H     19  15   1     1.087562803574   115.89984846   355.48151309
 C     21  19  15     1.507578802037   125.72728589   357.22957686
 C     23  21  19     1.540140105817   111.74312654   127.58812980
 H     23  21  19     1.093421027874   112.35335038     3.48379048
 H     23  21  19     1.101847318543   107.74603531   246.22613929
 C     24  23  21     1.534851227529   112.68585423    50.91999520
 H     24  23  21     1.097347648263   109.03720611   288.82807786
 H     24  23  21     1.096915988466   109.16451401   172.85523473
 C     27  24  23     1.535310041591   111.84534724   306.10181100
 H     27  24  23     1.094671632488   108.88621696   182.51676589
 H     27  24  23     1.100493154873   109.20923504    66.06418524
 C     21  19  15     1.498232502918   122.79243106   177.68899485
 H     33  21  19     1.105758075801   106.29079727   124.25040310
 C     33  21  19     1.525045317183   121.00187182     2.04992447
 H     13   3   2     0.966587936748   107.54792590    62.68097515
 C     35  33  21     1.548489361836   103.56275120   196.46980612
 H     35  33  21     1.095042594911   112.13642355    74.48721900
 H     35  33  21     1.095657468308   110.74647048   314.85605193
 C     30  27  24     1.554946349832   116.08627377   166.20880661
 H     37  35  33     1.094549866565   111.71003647   249.06167648
 H     37  35  33     1.096779762343   110.45513586   130.55669970
 H     40  30  27     1.101943534545   106.45539484   320.66886157
 C     40  30  27     1.548150668004   118.82024099    81.02307169
 C     30  27  24     1.534386347274   111.16595250   294.33627715
 H     45  30  27     1.094348311299   111.42162903    66.59661731
 H     45  30  27     1.095470817026   110.72061219   306.47596207
 H     45  30  27     1.094590000401   111.63961460   186.56662428
 H     44  40  30     1.103176379992   106.74312335    62.02458523
 C     44  40  30     1.527655244318   113.50628562   303.06064565
 C     44  40  30     1.511215218774   108.75230415   176.49122869
 C     51  44  40     1.334108846875   126.49166806   115.90245955
 H     51  44  40     1.089015541769   114.79965793   296.99494494
 H     52  51  44     1.089569894186   118.82561940     0.75298716
 C     52  51  44     1.506778477236   126.32431495   180.56598117
 C     55  52  51     1.528281153674   114.04220589     8.03444986
 C     55  52  51     1.556862640863   111.76063851   240.32462598
 H     55  52  51     1.103274171639   106.46374888   126.06944480
 H     57  55  52     1.100723398044   105.76021328   180.68995614
 C     57  55  52     1.530013994623   112.80958899    62.69900590
 C     57  55  52     1.531294740899   112.04520129   297.55706791
 H     56  55  52     1.095307677107   110.96307086    58.84708387
 H     56  55  52     1.094816437786   112.08431330   298.46864073
 H     56  55  52     1.095379306281   110.11609483   178.49401400
 H     60  57  55     1.095705833675   110.35211358   178.62425313
 H     60  57  55     1.094564469302   112.23135631    58.47371218
 H     60  57  55     1.096519976422   110.53034442   297.94989383
 H     61  57  55     1.096063901673   111.38277706    70.13297096
 H     61  57  55     1.096209483749   111.42733167   309.35162791
 H     61  57  55     1.095611831826   110.40173438   189.31245470
 H     50  44  40     1.095519578620   110.63670544   186.60048612
 H     50  44  40     1.091712194738   111.08270453    67.17130576
 H     50  44  40     1.096473273616   111.36995257   306.79632345

---------------------------
INTERNAL COORDINATES (A.U.)
---------------------------
 C      0   0   0     0.000000000000     0.00000000     0.00000000
 C      1   0   0     2.854447927141     0.00000000     0.00000000
 C      2   1   0     2.898058235268   111.73104209     0.00000000
 H      2   1   3     2.084959156474   109.38071411   241.45811419
 H      2   1   3     2.070292739530   110.69198691   122.87586827
 C      1   2   3     2.793794602989   114.19243610    50.52236549
 C      6   1   2     2.857431787488   114.42851293   312.05450817
 C      3   2   1     2.880996865252   110.31007767   304.98369857
 H      7   6   1     2.079911709362   108.37629794   289.91998171
 H      7   6   1     2.069442828137   110.20658340   172.72946284
 H      8   3   2     2.071838988992   109.69737689   179.13789844
 H      8   3   2     2.079637187945   108.65630219   296.58214192
 O      3   2   1     2.709180744280   111.22098849   180.28918982
 H      3   2   1     2.076855293767   109.01990256    65.12218476
 C      1   2   3     2.558907191497   120.87735831   232.72565478
 C      6   1   2     2.528326819861   123.38351662   129.86175154
 H     16   6   1     2.053036136785   121.39754687     0.65517953
 H     16   6   1     2.054930513727   120.93395815   181.34259505
 C     15   1   2     2.729700979991   126.45559547   175.24858195
 H     15   1   2     2.058172599356   116.15842168   357.93451612
 C     19  15   1     2.551845390341   126.41869123   176.25261644
 H     19  15   1     2.055195852195   115.89984846   355.48151309
 C     21  19  15     2.848911061155   125.72728589   357.22957686
 C     23  21  19     2.910443007863   111.74312654   127.58812980
 H     23  21  19     2.066266291752   112.35335038     3.48379048
 H     23  21  19     2.082189673443   107.74603531   246.22613929
 C     24  23  21     2.900448476343   112.68585423    50.91999520
 H     24  23  21     2.073686528920   109.03720611   288.82807786
 H     24  23  21     2.072870810121   109.16451401   172.85523473
 C     27  24  23     2.901315509267   111.84534724   306.10181100
 H     27  24  23     2.068629591976   108.88621696   182.51676589
 H     27  24  23     2.079630674965   109.20923504    66.06418524
 C     21  19  15     2.831249115455   122.79243106   177.68899485
 H     33  21  19     2.089579933636   106.29079727   124.25040310
 C     33  21  19     2.881917991295   121.00187182     2.04992447
 H     13   3   2     1.826586484806   107.54792590    62.68097515
 C     35  33  21     2.926220815160   103.56275120   196.46980612
 H     35  33  21     2.069330609361   112.13642355    74.48721900
 H     35  33  21     2.070492551688   110.74647048   314.85605193
 C     30  27  24     2.938422754123   116.08627377   166.20880661
 H     37  35  33     2.068399487728   111.71003647   249.06167648
 H     37  35  33     2.072613380055   110.45513586   130.55669970
 H     40  30  27     2.082371495335   106.45539484   320.66886157
 C     40  30  27     2.925580776575   118.82024099    81.02307169
 C     30  27  24     2.899569979975   111.16595250   294.33627715
 H     45  30  27     2.068018603475   111.42162903    66.59661731
 H     45  30  27     2.070139831882   110.72061219   306.47596207
 H     45  30  27     2.068475329686   111.63961460   186.56662428
 H     44  40  30     2.084701235596   106.74312335    62.02458523
 C     44  40  30     2.886850038810   113.50628562   303.06064565
 C     44  40  30     2.855782892896   108.75230415   176.49122869
 C     51  44  40     2.521100353435   126.49166806   115.90245955
 H     51  44  40     2.057941129527   114.79965793   296.99494494
 H     52  51  44     2.058988703778   118.82561940     0.75298716
 C     52  51  44     2.847398666464   126.32431495   180.56598117
 C     55  52  51     2.888032836076   114.04220589     8.03444986
 C     55  52  51     2.942044019364   111.76063851   240.32462598
 H     55  52  51     2.084886035027   106.46374888   126.06944480
 H     57  55  52     2.080065771502   105.76021328   180.68995614
 C     57  55  52     2.891307430905   112.80958899    62.69900590
 C     57  55  52     2.893727690612   112.04520129   297.55706791
 H     56  55  52     2.069831542114   110.96307086    58.84708387
 H     56  55  52     2.068903234330   112.08431330   298.46864073
 H     56  55  52     2.069966901635   110.11609483   178.49401400
 H     60  57  55     2.070583948986   110.35211358   178.62425313
 H     60  57  55     2.068427082901   112.23135631    58.47371218
 H     60  57  55     2.072122455812   110.53034442   297.94989383
 H     61  57  55     2.071260599440   111.38277706    70.13297096
 H     61  57  55     2.071535709693   111.42733167   309.35162791
 H     61  57  55     2.070406311235   110.40173438   189.31245470
 H     50  44  40     2.070231977941   110.63670544   186.60048612
 H     50  44  40     2.063037065117   111.08270453    67.17130576
 H     50  44  40     2.072034200298   111.36995257   306.79632345

---------------------
BASIS SET INFORMATION
---------------------
There are 3 groups of distinct atoms

 Group   1 Type C   : 7s4p contracted to 4s3p pattern {4111/211}
 Group   2 Type H   : 5s contracted to 3s pattern {311}
 Group   3 Type O   : 7s4p contracted to 4s3p pattern {4111/211}

Atom   0C    basis set group =>   1
Atom   1C    basis set group =>   1
Atom   2C    basis set group =>   1
Atom   3H    basis set group =>   2
Atom   4H    basis set group =>   2
Atom   5C    basis set group =>   1
Atom   6C    basis set group =>   1
Atom   7C    basis set group =>   1
Atom   8H    basis set group =>   2
Atom   9H    basis set group =>   2
Atom  10H    basis set group =>   2
Atom  11H    basis set group =>   2
Atom  12O    basis set group =>   3
Atom  13H    basis set group =>   2
Atom  14C    basis set group =>   1
Atom  15C    basis set group =>   1
Atom  16H    basis set group =>   2
Atom  17H    basis set group =>   2
Atom  18C    basis set group =>   1
Atom  19H    basis set group =>   2
Atom  20C    basis set group =>   1
Atom  21H    basis set group =>   2
Atom  22C    basis set group =>   1
Atom  23C    basis set group =>   1
Atom  24H    basis set group =>   2
Atom  25H    basis set group =>   2
Atom  26C    basis set group =>   1
Atom  27H    basis set group =>   2
Atom  28H    basis set group =>   2
Atom  29C    basis set group =>   1
Atom  30H    basis set group =>   2
Atom  31H    basis set group =>   2
Atom  32C    basis set group =>   1
Atom  33H    basis set group =>   2
Atom  34C    basis set group =>   1
Atom  35H    basis set group =>   2
Atom  36C    basis set group =>   1
Atom  37H    basis set group =>   2
Atom  38H    basis set group =>   2
Atom  39C    basis set group =>   1
Atom  40H    basis set group =>   2
Atom  41H    basis set group =>   2
Atom  42H    basis set group =>   2
Atom  43C    basis set group =>   1
Atom  44C    basis set group =>   1
Atom  45H    basis set group =>   2
Atom  46H    basis set group =>   2
Atom  47H    basis set group =>   2
Atom  48H    basis set group =>   2
Atom  49C    basis set group =>   1
Atom  50C    basis set group =>   1
Atom  51C    basis set group =>   1
Atom  52H    basis set group =>   2
Atom  53H    basis set group =>   2
Atom  54C    basis set group =>   1
Atom  55C    basis set group =>   1
Atom  56C    basis set group =>   1
Atom  57H    basis set group =>   2
Atom  58H    basis set group =>   2
Atom  59C    basis set group =>   1
Atom  60C    basis set group =>   1
Atom  61H    basis set group =>   2
Atom  62H    basis set group =>   2
Atom  63H    basis set group =>   2
Atom  64H    basis set group =>   2
Atom  65H    basis set group =>   2
Atom  66H    basis set group =>   2
Atom  67H    basis set group =>   2
Atom  68H    basis set group =>   2
Atom  69H    basis set group =>   2
Atom  70H    basis set group =>   2
Atom  71H    basis set group =>   2
Atom  72H    basis set group =>   2

-------------------------
BASIS SET IN INPUT FORMAT
-------------------------

 # Basis set for element : H 
 NewGTO H 
 S 3 
   1    1357.7500000000      0.0012928364
   2      54.3100000000      0.0588280685
   3       4.3448000000      0.9761499708
 S 1 
   1       0.6604910000      1.0000000000
 S 1 
   1       0.1366870000      1.0000000000
  end;

 # Basis set for element : C 
 NewGTO C 
 S 4 
   1  139534.0000000000      0.0001655246
   2    5581.3600000000      0.0074486101
   3     446.5090000000      0.1285821065
   4      67.4620000000      0.9218029311
 S 1 
   1      15.0674000000      1.0000000000
 S 1 
   1       3.9387600000      1.0000000000
 S 1 
   1       0.2999150000      1.0000000000
 P 2 
   1      28.3900000000      0.0816325586
   2       4.3676900000      0.9660360576
 P 1 
   1       0.8698170000      1.0000000000
 P 1 
   1       0.1889340000      1.0000000000
  end;

 # Basis set for element : O 
 NewGTO O 
 S 4 
   1  253789.0000000000      0.0001641076
   2   10151.6000000000      0.0074010921
   3     812.1250000000      0.1277711901
   4     122.6930000000      0.9223372164
 S 1 
   1      27.5608000000      1.0000000000
 S 1 
   1       7.3172600000      1.0000000000
 S 1 
   1       0.5792400000      1.0000000000
 P 2 
   1      53.4157000000      0.0793786106
   2       8.2177900000      0.9670506337
 P 1 
   1       1.6754400000      1.0000000000
 P 1 
   1       0.3506720000      1.0000000000
  end;

---------------------------------
AUXILIARY/J BASIS SET INFORMATION
---------------------------------
There are 3 groups of distinct atoms

 Group   1 Type C   : 12s5p4d2f1g contracted to 6s4p3d1f1g pattern {711111/2111/211/2/1}
 Group   2 Type H   : 5s2p1d contracted to 3s1p1d pattern {311/2/1}
 Group   3 Type O   : 12s5p4d2f1g contracted to 6s4p3d1f1g pattern {711111/2111/211/2/1}

Atom   0C    basis set group =>   1
Atom   1C    basis set group =>   1
Atom   2C    basis set group =>   1
Atom   3H    basis set group =>   2
Atom   4H    basis set group =>   2
Atom   5C    basis set group =>   1
Atom   6C    basis set group =>   1
Atom   7C    basis set group =>   1
Atom   8H    basis set group =>   2
Atom   9H    basis set group =>   2
Atom  10H    basis set group =>   2
Atom  11H    basis set group =>   2
Atom  12O    basis set group =>   3
Atom  13H    basis set group =>   2
Atom  14C    basis set group =>   1
Atom  15C    basis set group =>   1
Atom  16H    basis set group =>   2
Atom  17H    basis set group =>   2
Atom  18C    basis set group =>   1
Atom  19H    basis set group =>   2
Atom  20C    basis set group =>   1
Atom  21H    basis set group =>   2
Atom  22C    basis set group =>   1
Atom  23C    basis set group =>   1
Atom  24H    basis set group =>   2
Atom  25H    basis set group =>   2
Atom  26C    basis set group =>   1
Atom  27H    basis set group =>   2
Atom  28H    basis set group =>   2
Atom  29C    basis set group =>   1
Atom  30H    basis set group =>   2
Atom  31H    basis set group =>   2
Atom  32C    basis set group =>   1
Atom  33H    basis set group =>   2
Atom  34C    basis set group =>   1
Atom  35H    basis set group =>   2
Atom  36C    basis set group =>   1
Atom  37H    basis set group =>   2
Atom  38H    basis set group =>   2
Atom  39C    basis set group =>   1
Atom  40H    basis set group =>   2
Atom  41H    basis set group =>   2
Atom  42H    basis set group =>   2
Atom  43C    basis set group =>   1
Atom  44C    basis set group =>   1
Atom  45H    basis set group =>   2
Atom  46H    basis set group =>   2
Atom  47H    basis set group =>   2
Atom  48H    basis set group =>   2
Atom  49C    basis set group =>   1
Atom  50C    basis set group =>   1
Atom  51C    basis set group =>   1
Atom  52H    basis set group =>   2
Atom  53H    basis set group =>   2
Atom  54C    basis set group =>   1
Atom  55C    basis set group =>   1
Atom  56C    basis set group =>   1
Atom  57H    basis set group =>   2
Atom  58H    basis set group =>   2
Atom  59C    basis set group =>   1
Atom  60C    basis set group =>   1
Atom  61H    basis set group =>   2
Atom  62H    basis set group =>   2
Atom  63H    basis set group =>   2
Atom  64H    basis set group =>   2
Atom  65H    basis set group =>   2
Atom  66H    basis set group =>   2
Atom  67H    basis set group =>   2
Atom  68H    basis set group =>   2
Atom  69H    basis set group =>   2
Atom  70H    basis set group =>   2
Atom  71H    basis set group =>   2
Atom  72H    basis set group =>   2

-------------------------------------
AUXILIARY/J BASIS SET IN INPUT FORMAT
-------------------------------------

 # Auxiliary/J basis set for element : H 
 NewAuxJGTO H 
 S 3 
   1      15.6752927000      0.1007184237
   2       3.6063578000      0.3404257499
   3       1.2080016000      0.6491996172
 S 1 
   1       0.4726794000      1.0000000000
 S 1 
   1       0.2018100000      1.0000000000
 P 2 
   1       2.0281365000      0.5596620919
   2       0.5358730000      0.5596620919
 D 1 
   1       2.2165124000      1.0000000000
  end;

 # Auxiliary/J basis set for element : C 
 NewAuxJGTO C 
 S 7 
   1    1861.0916331000      0.0134602335
   2     642.9939764000      0.0299160374
   3     235.1105725000      0.1008649584
   4      90.7028894000      0.2370970548
   5      36.7794552000      0.3924037254
   6      15.6046273000      0.3195862154
   7       6.8907294000      0.0530104441
 S 1 
   1       3.1478850000     -1.0000000000
 S 1 
   1       1.4777287000      1.0000000000
 S 1 
   1       0.7076466000      1.0000000000
 S 1 
   1       0.3430122000      1.0000000000
 S 1 
   1       0.1669453000      1.0000000000
 P 2 
   1      13.5472892000     -0.6769313712
   2       5.4669419000     -0.3779500978
 P 1 
   1       2.1751721000      1.0000000000
 P 1 
   1       0.8582194000      1.0000000000
 P 1 
   1       0.3376720000      1.0000000000
 D 2 
   1       5.9287253000     -0.3533329857
   2       1.9809209000     -0.7456525731
 D 1 
   1       0.8055417000     -1.0000000000
 D 1 
   1       0.3531244000     -1.0000000000
 F 2 
   1       1.6755626000      0.6311076882
   2       0.5997536000      0.4968166032
 G 1 
   1       1.0024600000     -1.0000000000
  end;

 # Auxiliary/J basis set for element : O 
 NewAuxJGTO O 
 S 7 
   1    2876.8216605000      0.0168151159
   2    1004.7443032000      0.0340137548
   3     369.7579954000      0.1194951309
   4     142.9442404000      0.2664627624
   5      57.8366425000      0.4202764046
   6      24.3864983000      0.2765077335
   7      10.6622662000      0.0057008815
 S 1 
   1       4.8070437000     -1.0000000000
 S 1 
   1       2.2210770000      1.0000000000
 S 1 
   1       1.0447795000      1.0000000000
 S 1 
   1       0.4968425000      1.0000000000
 S 1 
   1       0.2371384000      1.0000000000
 P 2 
   1      64.2613382000     -0.2731534179
   2      16.3006076000     -0.8168011598
 P 1 
   1       4.3550542000      1.0000000000
 P 1 
   1       1.2019554000      1.0000000000
 P 1 
   1       0.3354196000      1.0000000000
 D 2 
   1       9.2146611000     -0.4661230638
   2       2.8435251000     -0.6600908911
 D 1 
   1       0.9955759000     -1.0000000000
 D 1 
   1       0.3649441000     -1.0000000000
 F 2 
   1       2.6420115000      0.5931563945
   2       0.7345613000      0.5931563945
 G 1 
   1       1.3931000000     -1.0000000000
  end;


Checking for AutoStart:
The File: inpJ.gbw exists
Trying to determine its content:
     ... Fine, the file contains calculation information
     ... Fine, the calculation information was read
     ... Fine, the file contains a basis set
     ... Fine, the basis set was read
     ... Fine, the file contains a geometry
     ... Fine, the geometry was read
     ... Fine, the file contains a set of orbitals
     ... Fine, the orbitals can be read
     => possible old guess file was deleted
     => GBW file was renamed to GES file
     => GES file is set as startup file
     => Guess is set to MORead
     ... now leaving AutoStart



           ************************************************************
           *        Program running with 4 parallel MPI-processes     *
           *              working on a common directory               *
           ************************************************************
------------------------------------------------------------------------------
                             ORCA STARTUP CALCULATIONS
                           -- RI-GTO INTEGRALS CHOSEN --
------------------------------------------------------------------------------
------------------------------------------------------------------------------
                   ___                                                        
                  /   \      - P O W E R E D   B Y -                         
                 /     \                                                     
                 |  |  |   _    _      __       _____    __    __             
                 |  |  |  | |  | |    /  \     |  _  \  |  |  /  |          
                  \  \/   | |  | |   /    \    | | | |  |  | /  /          
                 / \  \   | |__| |  /  /\  \   | |_| |  |  |/  /          
                |  |  |   |  __  | /  /__\  \  |    /   |      \           
                |  |  |   | |  | | |   __   |  |    \   |  |\   \          
                \     /   | |  | | |  |  |  |  | |\  \  |  | \   \       
                 \___/    |_|  |_| |__|  |__|  |_| \__\ |__|  \__/        
                                                                              
                      - O R C A' S   B I G   F R I E N D -                    
                                      &                                       
                       - I N T E G R A L  F E E D E R -                       
                                                                              
 v1 FN, 2020, v2 2021, v3 2022-2024                                           
------------------------------------------------------------------------------


----------------------
SHARK INTEGRAL PACKAGE
----------------------

Number of atoms                             ...     73
Number of basis functions                   ...    509
Number of shells                            ...    335
Maximum angular momentum                    ...      1
Integral batch strategy                     ... SHARK/LIBINT Hybrid
RI-J (if used) integral strategy            ... SPLIT-RIJ (Revised 2003 algorithm where possible)
Printlevel                                  ...      1
Contraction scheme used                     ... SEGMENTED contraction
Prescreening option                         ... SCHWARTZ
   Thresh                                   ... 3.000e-11
   Tcut                                     ... 1.000e-12
   Tpresel                                  ... 1.000e-12 
Coulomb Range Separation                    ... NOT USED
Exchange Range Separation                   ... NOT USED
Multipole approximations                    ... NOT USED
Finite Nucleus Model                        ... NOT USED
CABS basis                                  ... NOT available
Auxiliary Coulomb fitting basis             ... AVAILABLE
   # of basis functions in Aux-J            ...   1905
   # of shells in Aux-J                     ...    655
   Maximum angular momentum in Aux-J        ...      4
Auxiliary J/K fitting basis                 ... NOT available
Auxiliary Correlation fitting basis         ... NOT available
Auxiliary 'external' fitting basis          ... NOT available

Checking pre-screening integrals            ... done (  0.0 sec) Dimension = 335
Check shell pair data                       ... done (  0.0 sec)
Shell pair information
Shell pair cut-off parameter TPreSel        ...   1.0e-12
Total number of shell pairs                 ...     56280
Shell pairs after pre-screening             ...     21577
Total number of primitive shell pairs       ...    145865
Primitive shell pairs kept                  ...     37105
          la=0 lb=0:  10863 shell pairs
          la=1 lb=0:   8870 shell pairs
          la=1 lb=1:   1844 shell pairs

Calculating one electron integrals          ... done (  0.0 sec)
Calculating RI/J V-Matrix + Cholesky decomp.... done (  0.2 sec)
Calculating Nuclear repulsion               ... done (  0.0 sec) ENN=   2755.532495689805 Eh

Diagonalization of the overlap matrix:
Smallest eigenvalue                        ... 7.551e-03
Time for diagonalization                   ...    0.032 sec
Threshold for overlap eigenvalues          ... 1.000e-07
Number of eigenvalues below threshold      ... 0
Time for construction of square roots      ...    0.018 sec
Total time needed                          ...    0.053 sec

-------------------
DFT GRID GENERATION
-------------------

General Integration Accuracy     IntAcc      ... 4.388
Radial Grid Type                 RadialGrid  ... OptM3 with GC (2021)
Angular Grid (max. ang.)         AngularGrid ... 4 (Lebedev-302)
Angular grid pruning method      GridPruning ... 4 (adaptive)
Weight generation scheme         WeightScheme... mBecke (2022)
Basis function cutoff            BFCut       ... 1.0000e-11
Integration weight cutoff        WCut        ... 1.0000e-14
Partially contracted basis set               ... off
Rotationally invariant grid construction     ... off
Angular grids for H and He will be reduced by one unit

Total number of grid points                  ...   309900
Total number of batches                      ...     4877
Average number of points per batch           ...       63
Average number of grid points per atom       ...     4245

--------------------
COSX GRID GENERATION
--------------------

GRIDX 1
-------
General Integration Accuracy     IntAcc      ... 3.816
Radial Grid Type                 RadialGrid  ... OptM3 with GC (2021)
Angular Grid (max. ang.)         AngularGrid ... 1 (Lebedev-50)
Angular grid pruning method      GridPruning ... 4 (adaptive)
Weight generation scheme         WeightScheme... mBecke (2022)
Basis function cutoff            BFCut       ... 1.0000e-11
Integration weight cutoff        WCut        ... 1.0000e-14
Partially contracted basis set               ... on
Rotationally invariant grid construction     ... off
Angular grids for H and He will be reduced by one unit

Total number of grid points                  ...    39432
Total number of batches                      ...      355
Average number of points per batch           ...      111
Average number of grid points per atom       ...      540
UseSFitting                                  ... on

GRIDX 2
-------
General Integration Accuracy     IntAcc      ... 4.020
Radial Grid Type                 RadialGrid  ... OptM3 with GC (2021)
Angular Grid (max. ang.)         AngularGrid ... 2 (Lebedev-110)
Angular grid pruning method      GridPruning ... 4 (adaptive)
Weight generation scheme         WeightScheme... mBecke (2022)
Basis function cutoff            BFCut       ... 1.0000e-11
Integration weight cutoff        WCut        ... 1.0000e-14
Partially contracted basis set               ... on
Rotationally invariant grid construction     ... off
Angular grids for H and He will be reduced by one unit

Total number of grid points                  ...    81482
Total number of batches                      ...      677
Average number of points per batch           ...      120
Average number of grid points per atom       ...     1116
UseSFitting                                  ... on

GRIDX 3
-------
General Integration Accuracy     IntAcc      ... 4.338
Radial Grid Type                 RadialGrid  ... OptM3 with GC (2021)
Angular Grid (max. ang.)         AngularGrid ... 3 (Lebedev-194)
Angular grid pruning method      GridPruning ... 4 (adaptive)
Weight generation scheme         WeightScheme... mBecke (2022)
Basis function cutoff            BFCut       ... 1.0000e-11
Integration weight cutoff        WCut        ... 1.0000e-14
Partially contracted basis set               ... on
Rotationally invariant grid construction     ... off
Angular grids for H and He will be reduced by one unit

Total number of grid points                  ...   176375
Total number of batches                      ...     1419
Average number of points per batch           ...      124
Average number of grid points per atom       ...     2416
UseSFitting                                  ... on
Initializing property integral containers    ... done (  0.0 sec)

SHARK setup successfully completed in   3.9 seconds

Maximum memory used throughout the entire STARTUP-calculation: 85.1 MB


           ************************************************************
           *        Program running with 4 parallel MPI-processes     *
           *              working on a common directory               *
           ************************************************************
-------------------------------------------------------------------------------
                                 ORCA GUESS
                   Start orbitals & Density for SCF / CASSCF
-------------------------------------------------------------------------------

------------
SCF SETTINGS
------------
Hamiltonian:
 Density Functional     Method          .... DFT(GTOs)
 Exchange Functional    Exchange        .... PBE
   PBE kappa parameter   XKappa         ....  0.804000
   PBE mue parameter    XMuePBE         ....  0.219520
 Correlation Functional Correlation     .... PBE
   PBE beta parameter  CBetaPBE         ....  0.066725
 LDA part of GGA corr.  LDAOpt          .... PW91-LDA
 Gradients option       PostSCFGGA      .... off
 Hybrid DFT is turned on
   Fraction HF Exchange ScalHFX         ....  0.250000
   Scaling of DF-GGA-X  ScalDFX         ....  0.750000
   Scaling of DF-GGA-C  ScalDFC         ....  1.000000
   Scaling of DF-LDA-C  ScalLDAC        ....  1.000000
   Perturbative correction              ....  0.000000
   NL short-range parameter             ....  6.900000
 RI-approximation to the Coulomb term is turned on
   Number of AuxJ basis functions       .... 1905
   RIJ-COSX (HFX calculated with COS-X)).... on


General Settings:
 Integral files         IntName         .... inpJ
 Hartree-Fock type      HFTyp           .... RHF
 Total Charge           Charge          ....    0
 Multiplicity           Mult            ....    1
 Number of Electrons    NEL             ....  220
 Basis Dimension        Dim             ....  509
 Nuclear Repulsion      ENuc            ....   2755.5324956898 Eh

Convergence Acceleration:
 AO-DIIS                CNVDIIS         .... on
   Start iteration      DIISMaxIt       ....    12
   Startup error        DIISStart       ....  0.200000
   # of expansion vecs  DIISMaxEq       ....     5
   Bias factor          DIISBfac        ....   1.050
   Max. coefficient     DIISMaxC        ....  10.000
 MO-DIIS                CNVKDIIS        .... off
 Trust-Rad. Augm. Hess. CNVTRAH         .... auto
   Auto Start mean grad. ratio tolernc. ....  1.125000
   Auto Start start iteration           ....     1
   Auto Start num. interpolation iter.  ....    10
   Max. Number of Micro iterations      ....    24
   Max. Number of Macro iterations      .... Maxiter - #DIIS iter
   Number of Davidson start vectors     ....     2
   Converg. threshold    (grad. norm)   ....   1.000e-04
   Grad. Scal. Fac. for Micro threshold ....   0.100
   Minimum threshold for Micro iter.    ....   1.000e-02
   NR start threshold (gradient norm)   ....   1.000e-04
   Initial trust radius                 ....   0.400
   Minimum AH scaling param. (alpha)    ....   1.000
   Maximum AH scaling param. (alpha)    .... 1000.000
   Quad. conv. algorithm                .... NR
   White noise on init. David. guess    .... on
   Maximum white noise                  ....   0.010
   Pseudo random numbers                .... off
   Inactive MOs                         .... canonical
   Orbital update algorithm             .... Taylor
   Preconditioner                       .... Diag
   Full preconditioner red. dimension   ....   250
 SOSCF                  CNVSOSCF        .... off
 Level Shifting         CNVShift        .... on
   Level shift para.    LevelShift      ....    0.2500
   Turn off err/grad.   ShiftErr        ....    0.0010
 Zerner damping         CNVZerner       .... off
 Static damping         CNVDamp         .... on
   Fraction old density DampFac         ....    0.7000
   Max. Damping (<1)    DampMax         ....    0.9800
   Min. Damping (>=0)   DampMin         ....    0.0000
   Turn off err/grad.   DampErr         ....    0.1000

SCF Procedure:
 Maximum # iterations   MaxIter         ....   125
 SCF integral mode      SCFMode         .... Direct
   Integral package                     .... SHARK and LIBINT hybrid scheme
 Reset frequency        DirectResetFreq ....    20
 Integral Threshold     Thresh          ....  3.000e-11 Eh
 Primitive CutOff       TCut            ....  1.000e-12 Eh

Convergence Tolerance:
 Convergence Check Mode ConvCheckMode   .... Total+1el-Energy
 Convergence forced     ConvForced      .... 0
 Energy Change          TolE            ....  1.000e-07 Eh
 1-El. energy change                    ....  1.000e-04 Eh
 DIIS Error             TolErr          ....  1.000e-07

---------------------
INITIAL GUESS: MOREAD
---------------------
Guess MOs are being read from file: inpJ.ges
Input Geometry matches current geometry (good)
Input basis set matches current basis set (good)
Occupation numbers will be reassigned to an Aufbau configuration
MOs were renormalized
MOs were reorthogonalized (Cholesky)
                      ------------------
                      INITIAL GUESS DONE (   0.1 sec)
                      ------------------
             **** ENERGY FILE WAS UPDATED (inpJ.en.tmp) ****
Finished Guess after   0.2 sec
Maximum memory used throughout the entire GUESS-calculation: 36.4 MB


           ************************************************************
           *        Program running with 4 parallel MPI-processes     *
           *              working on a common directory               *
           ************************************************************

-------------------------------------------------------------------------------------------
                                      ORCA LEAN-SCF
                              memory conserving SCF solver
-------------------------------------------------------------------------------------------

--------------------
CPCM SOLVATION MODEL
--------------------
CPCM parameters:
  Epsilon                                         ...       4.8030
  Refrac                                          ...       1.4459
  Rsolv                                           ...       1.3000
  Surface type                                    ... GAUSSIAN VDW
  Discretization scheme                           ... Constant charge density
    Threshold for H atoms                         ...       5.0000 (charges/Ang^2)
    Threshold for non-H atoms                     ...       5.0000 (charges/Ang^2)
  Epsilon function type                           ...         CPCM
Solvent:                                          ... CHLOROFORM
Radii:
  Scheme                                          ... Element-dependent radii
  Radius for C  used is    3.8550 Bohr (=   2.0400 Ang.)
  Radius for H  used is    2.4944 Bohr (=   1.3200 Ang.)
  Radius for O  used is    3.4469 Bohr (=   1.8240 Ang.)
Calculating surface                               ...        done! (  0.0s)
Cavity surface points                             ...         5421
Cavity Volume                                     ...    3614.8411
Cavity Surface-area                               ...    1799.0141
Calculating surface distance matrix               ...        done! (  0.3s)
Performing Cholesky decomposition & store         ...        done! (  0.9s)
Overall time for CPCM initialization              ...                 1.2s

----------------------------------------D-I-I-S--------------------------------------------
Iteration    Energy (Eh)           Delta-E    RMSDP     MaxDP     DIISErr   Damp  Time(sec)
-------------------------------------------------------------------------------------------
               ***  Starting incremental Fock matrix formation  ***
    1    -1165.5088208161255352     0.00e+00  3.67e-08  4.97e-06  6.43e-06  0.700   6.2

  HOMO= 109 E= -5.926 eV LUMO=  5.977 eV gap=  11.903 eV
    2    -1165.5088208530314660    -3.69e-08  2.48e-08  3.00e-06  3.22e-06  0.700   1.9
                 **** Energy Check signals convergence ****

  HOMO= 109 E= -5.926 eV LUMO=  5.977 eV gap=  11.903 eV

               *****************************************************
               *                     SUCCESS                       *
               *           SCF CONVERGED AFTER   2 CYCLES          *
               *****************************************************

Recomputing exchange energy using gridx3       ... done (    8.105 sec)
Old exchange energy                            :    -42.068324322 Eh
New exchange energy                            :    -42.068383417 Eh
Exchange energy change after final integration :     -0.000059096 Eh
Total energy after final integration           :  -1165.508879949 Eh
             **** ENERGY FILE WAS UPDATED (inpJ.en.tmp) ****

----------------
TOTAL SCF ENERGY
----------------

Total Energy       :      -1165.50887994863479 Eh          -31715.10899 eV

Components:
Nuclear Repulsion  :       2755.53249568980482 Eh           74981.85121 eV
Electronic Energy  :      -3921.02585477920411 Eh         -106696.53786 eV
One Electron Energy:      -7053.10861925772497 Eh         -191924.84280 eV
Two Electron Energy:       3132.08276447852086 Eh           85228.30494 eV
CPCM Dielectric    :         -0.01546176363207 Eh              -0.42074 eV

Virial components:
Potential Energy   :      -2322.41328291998070 Eh          -63196.07825 eV
Kinetic Energy     :       1156.90440297134592 Eh           31480.96927 eV
Virial Ratio       :          2.00743750041506

DFT components:
N(Alpha)           :      110.000205240463 electrons
N(Beta)            :      110.000205240463 electrons
N(Total)           :      220.000410480926 electrons
E(X)               :     -125.747877435235 Eh       
E(C)               :       -7.327763971509 Eh       
E(XC)              :     -133.075641406745 Eh       

CPCM Solvation Model Properties:
Surface-charge          :         -0.03335519875805
Corrected charge        :         -0.00000000000000
Outlying charge corr.   :          0.00003867933634 Eh               0.00105 eV
Free-energy (cav+disp)  :  This term is not implemented in the current solvation scheme

---------------
SCF CONVERGENCE
---------------

  Last Energy change         ...    3.6906e-08  Tolerance :   1.0000e-07
  Last MAX-Density change    ...    3.0040e-06  Tolerance :   1.0000e-05
  Last RMS-Density change    ...    2.4773e-08  Tolerance :   1.0000e-06
  Last DIIS Error            ...    3.2157e-06  Tolerance :   1.0000e-07


----------------
ORBITAL ENERGIES
----------------

  NO   OCC          E(Eh)            E(eV) 
   0   2.0000     -19.215207      -522.8724 
   1   2.0000     -10.301469      -280.3172 
   2   2.0000     -10.269664      -279.4518 
   3   2.0000     -10.266965      -279.3783 
   4   2.0000     -10.262097      -279.2459 
   5   2.0000     -10.256708      -279.0992 
   6   2.0000     -10.253616      -279.0151 
   7   2.0000     -10.251847      -278.9669 
   8   2.0000     -10.250609      -278.9333 
   9   2.0000     -10.249356      -278.8992 
  10   2.0000     -10.249087      -278.8918 
  11   2.0000     -10.246549      -278.8228 
  12   2.0000     -10.246200      -278.8133 
  13   2.0000     -10.245764      -278.8014 
  14   2.0000     -10.243984      -278.7530 
  15   2.0000     -10.243362      -278.7361 
  16   2.0000     -10.242070      -278.7009 
  17   2.0000     -10.241803      -278.6936 
  18   2.0000     -10.241239      -278.6783 
  19   2.0000     -10.240947      -278.6703 
  20   2.0000     -10.239270      -278.6247 
  21   2.0000     -10.235445      -278.5206 
  22   2.0000     -10.234859      -278.5047 
  23   2.0000     -10.233691      -278.4729 
  24   2.0000     -10.224939      -278.2347 
  25   2.0000     -10.224844      -278.2321 
  26   2.0000     -10.224120      -278.2124 
  27   2.0000     -10.221898      -278.1520 
  28   2.0000     -10.220731      -278.1202 
  29   2.0000      -1.045950       -28.4617 
  30   2.0000      -0.901218       -24.5234 
  31   2.0000      -0.883831       -24.0503 
  32   2.0000      -0.859642       -23.3921 
  33   2.0000      -0.845816       -23.0158 
  34   2.0000      -0.822061       -22.3694 
  35   2.0000      -0.814257       -22.1571 
  36   2.0000      -0.795133       -21.6367 
  37   2.0000      -0.794905       -21.6305 
  38   2.0000      -0.775952       -21.1147 
  39   2.0000      -0.758125       -20.6296 
  40   2.0000      -0.740800       -20.1582 
  41   2.0000      -0.730493       -19.8777 
  42   2.0000      -0.714268       -19.4362 
  43   2.0000      -0.702823       -19.1248 
  44   2.0000      -0.699452       -19.0331 
  45   2.0000      -0.694185       -18.8897 
  46   2.0000      -0.669603       -18.2208 
  47   2.0000      -0.665236       -18.1020 
  48   2.0000      -0.636240       -17.3130 
  49   2.0000      -0.622199       -16.9309 
  50   2.0000      -0.619601       -16.8602 
  51   2.0000      -0.609646       -16.5893 
  52   2.0000      -0.597818       -16.2674 
  53   2.0000      -0.582614       -15.8537 
  54   2.0000      -0.557406       -15.1678 
  55   2.0000      -0.541489       -14.7347 
  56   2.0000      -0.531665       -14.4674 
  57   2.0000      -0.529314       -14.4034 
  58   2.0000      -0.515174       -14.0186 
  59   2.0000      -0.509251       -13.8574 
  60   2.0000      -0.501352       -13.6425 
  61   2.0000      -0.492307       -13.3964 
  62   2.0000      -0.482124       -13.1193 
  63   2.0000      -0.480306       -13.0698 
  64   2.0000      -0.476001       -12.9526 
  65   2.0000      -0.468448       -12.7471 
  66   2.0000      -0.466790       -12.7020 
  67   2.0000      -0.458845       -12.4858 
  68   2.0000      -0.457120       -12.4389 
  69   2.0000      -0.452186       -12.3046 
  70   2.0000      -0.449635       -12.2352 
  71   2.0000      -0.443471       -12.0675 
  72   2.0000      -0.436684       -11.8828 
  73   2.0000      -0.431552       -11.7431 
  74   2.0000      -0.430147       -11.7049 
  75   2.0000      -0.427643       -11.6368 
  76   2.0000      -0.416405       -11.3310 
  77   2.0000      -0.414046       -11.2668 
  78   2.0000      -0.409165       -11.1340 
  79   2.0000      -0.403909       -10.9909 
  80   2.0000      -0.401234       -10.9181 
  81   2.0000      -0.397550       -10.8179 
  82   2.0000      -0.395594       -10.7647 
  83   2.0000      -0.388979       -10.5847 
  84   2.0000      -0.385959       -10.5025 
  85   2.0000      -0.379503       -10.3268 
  86   2.0000      -0.372305       -10.1309 
  87   2.0000      -0.369309       -10.0494 
  88   2.0000      -0.367936       -10.0121 
  89   2.0000      -0.367233        -9.9929 
  90   2.0000      -0.362687        -9.8692 
  91   2.0000      -0.358773        -9.7627 
  92   2.0000      -0.353403        -9.6166 
  93   2.0000      -0.344444        -9.3728 
  94   2.0000      -0.341475        -9.2920 
  95   2.0000      -0.340273        -9.2593 
  96   2.0000      -0.337342        -9.1795 
  97   2.0000      -0.333501        -9.0750 
  98   2.0000      -0.332131        -9.0377 
  99   2.0000      -0.326842        -8.8938 
 100   2.0000      -0.325956        -8.8697 
 101   2.0000      -0.324568        -8.8319 
 102   2.0000      -0.319614        -8.6971 
 103   2.0000      -0.316296        -8.6068 
 104   2.0000      -0.311861        -8.4862 
 105   2.0000      -0.300616        -8.1802 
 106   2.0000      -0.280186        -7.6242 
 107   2.0000      -0.274899        -7.4804 
 108   2.0000      -0.254793        -6.9333 
 109   2.0000      -0.217781        -5.9261 
 110   0.0000      -0.030344        -0.8257 
 111   0.0000       0.021136         0.5751 
 112   0.0000       0.030315         0.8249 
 113   0.0000       0.082528         2.2457 
 114   0.0000       0.094468         2.5706 
 115   0.0000       0.101859         2.7717 
 116   0.0000       0.102051         2.7770 
 117   0.0000       0.105923         2.8823 
 118   0.0000       0.108338         2.9480 
 119   0.0000       0.113206         3.0805 
 120   0.0000       0.118460         3.2234 
*Only the first 10 virtual orbitals were printed.

                    ********************************
                    * MULLIKEN POPULATION ANALYSIS *
                    ********************************

-----------------------
MULLIKEN ATOMIC CHARGES
-----------------------
   0 C :    0.107785
   1 C :   -0.499903
   2 C :   -0.054927
   3 H :    0.207289
   4 H :    0.222207
   5 C :    0.135556
   6 C :   -0.475670
   7 C :   -0.451687
   8 H :    0.214218
   9 H :    0.224101
  10 H :    0.229140
  11 H :    0.204667
  12 O :   -0.487323
  13 H :    0.233921
  14 C :   -0.283334
  15 C :   -0.516790
  16 H :    0.201321
  17 H :    0.196776
  18 C :   -0.260062
  19 H :    0.217804
  20 C :    0.151022
  21 H :    0.219146
  22 C :   -0.480018
  23 C :   -0.427353
  24 H :    0.211688
  25 H :    0.206681
  26 C :   -0.396977
  27 H :    0.208064
  28 H :    0.216933
  29 C :    0.000946
  30 H :    0.222280
  31 H :    0.194295
  32 C :   -0.228857
  33 H :    0.227561
  34 C :   -0.430485
  35 H :    0.343179
  36 C :   -0.427728
  37 H :    0.207938
  38 H :    0.198974
  39 C :   -0.185322
  40 H :    0.210567
  41 H :    0.205723
  42 H :    0.212487
  43 C :   -0.238040
  44 C :   -0.627527
  45 H :    0.209171
  46 H :    0.201196
  47 H :    0.205644
  48 H :    0.218825
  49 C :   -0.640931
  50 C :   -0.188741
  51 C :   -0.186697
  52 H :    0.225775
  53 H :    0.221104
  54 C :   -0.227901
  55 C :   -0.632396
  56 C :   -0.199781
  57 H :    0.222808
  58 H :    0.219880
  59 C :   -0.614648
  60 C :   -0.611698
  61 H :    0.202709
  62 H :    0.197648
  63 H :    0.205950
  64 H :    0.200241
  65 H :    0.205332
  66 H :    0.194416
  67 H :    0.198996
  68 H :    0.200750
  69 H :    0.205004
  70 H :    0.200006
  71 H :    0.215565
  72 H :    0.191502
Sum of atomic charges:   -0.0000000

--------------------------------
MULLIKEN REDUCED ORBITAL CHARGES
--------------------------------
  0 C s       :     3.355906  s :     3.355906
      pz      :     1.009017  p :     2.536309
      px      :     0.794973
      py      :     0.732318

  1 C s       :     3.383642  s :     3.383642
      pz      :     1.024666  p :     3.116261
      px      :     0.945764
      py      :     1.145831

  2 C s       :     3.306279  s :     3.306279
      pz      :     1.063883  p :     2.748648
      px      :     0.792021
      py      :     0.892744

  3 H s       :     0.792711  s :     0.792711

  4 H s       :     0.777793  s :     0.777793

  5 C s       :     3.345289  s :     3.345289
      pz      :     0.824506  p :     2.519155
      px      :     0.938965
      py      :     0.755683

  6 C s       :     3.368292  s :     3.368292
      pz      :     1.034752  p :     3.107378
      px      :     0.946094
      py      :     1.126532

  7 C s       :     3.340468  s :     3.340468
      pz      :     1.188976  p :     3.111218
      px      :     0.986531
      py      :     0.935711

  8 H s       :     0.785782  s :     0.785782

  9 H s       :     0.775899  s :     0.775899

 10 H s       :     0.770860  s :     0.770860

 11 H s       :     0.795333  s :     0.795333

 12 O s       :     3.685495  s :     3.685495
      pz      :     1.645950  p :     4.801828
      px      :     1.282245
      py      :     1.873633

 13 H s       :     0.766079  s :     0.766079

 14 C s       :     3.392462  s :     3.392462
      pz      :     1.009110  p :     2.890872
      px      :     0.808034
      py      :     1.073728

 15 C s       :     3.386831  s :     3.386831
      pz      :     0.996187  p :     3.129959
      px      :     1.011237
      py      :     1.122536

 16 H s       :     0.798679  s :     0.798679

 17 H s       :     0.803224  s :     0.803224

 18 C s       :     3.396867  s :     3.396867
      pz      :     1.031117  p :     2.863195
      px      :     0.757505
      py      :     1.074573

 19 H s       :     0.782196  s :     0.782196

 20 C s       :     3.350384  s :     3.350384
      pz      :     0.957554  p :     2.498594
      px      :     0.752627
      py      :     0.788413

 21 H s       :     0.780854  s :     0.780854

 22 C s       :     3.372475  s :     3.372475
      pz      :     1.095201  p :     3.107543
      px      :     1.126551
      py      :     0.885791

 23 C s       :     3.327102  s :     3.327102
      pz      :     1.085413  p :     3.100251
      px      :     0.899243
      py      :     1.115595

 24 H s       :     0.788312  s :     0.788312

 25 H s       :     0.793319  s :     0.793319

 26 C s       :     3.349946  s :     3.349946
      pz      :     1.178941  p :     3.047031
      px      :     0.954754
      py      :     0.913336

 27 H s       :     0.791936  s :     0.791936

 28 H s       :     0.783067  s :     0.783067

 29 C s       :     3.318217  s :     3.318217
      pz      :     0.867889  p :     2.680837
      px      :     0.906295
      py      :     0.906653

 30 H s       :     0.777720  s :     0.777720

 31 H s       :     0.805705  s :     0.805705

 32 C s       :     3.362419  s :     3.362419
      pz      :     1.067678  p :     2.866438
      px      :     0.869989
      py      :     0.928771

 33 H s       :     0.772439  s :     0.772439

 34 C s       :     3.344513  s :     3.344513
      pz      :     1.188168  p :     3.085972
      px      :     0.929316
      py      :     0.968488

 35 H s       :     0.656821  s :     0.656821

 36 C s       :     3.336028  s :     3.336028
      pz      :     1.161174  p :     3.091700
      px      :     0.955313
      py      :     0.975213

 37 H s       :     0.792062  s :     0.792062

 38 H s       :     0.801026  s :     0.801026

 39 C s       :     3.338769  s :     3.338769
      pz      :     1.051259  p :     2.846553
      px      :     0.864116
      py      :     0.931177

 40 H s       :     0.789433  s :     0.789433

 41 H s       :     0.794277  s :     0.794277

 42 H s       :     0.787513  s :     0.787513

 43 C s       :     3.348499  s :     3.348499
      pz      :     1.042177  p :     2.889541
      px      :     0.879020
      py      :     0.968345

 44 C s       :     3.365949  s :     3.365949
      pz      :     0.963525  p :     3.261577
      px      :     1.157323
      py      :     1.140730

 45 H s       :     0.790829  s :     0.790829

 46 H s       :     0.798804  s :     0.798804

 47 H s       :     0.794356  s :     0.794356

 48 H s       :     0.781175  s :     0.781175

 49 C s       :     3.352271  s :     3.352271
      pz      :     1.144920  p :     3.288660
      px      :     1.167329
      py      :     0.976411

 50 C s       :     3.349836  s :     3.349836
      pz      :     0.967181  p :     2.838904
      px      :     0.798603
      py      :     1.073120

 51 C s       :     3.353184  s :     3.353184
      pz      :     0.965714  p :     2.833513
      px      :     0.797776
      py      :     1.070023

 52 H s       :     0.774225  s :     0.774225

 53 H s       :     0.778896  s :     0.778896

 54 C s       :     3.339716  s :     3.339716
      pz      :     1.055241  p :     2.888185
      px      :     0.876182
      py      :     0.956762

 55 C s       :     3.347163  s :     3.347163
      pz      :     1.148518  p :     3.285233
      px      :     1.170249
      py      :     0.966467

 56 C s       :     3.312179  s :     3.312179
      pz      :     0.939333  p :     2.887602
      px      :     1.011541
      py      :     0.936729

 57 H s       :     0.777192  s :     0.777192

 58 H s       :     0.780120  s :     0.780120

 59 C s       :     3.344639  s :     3.344639
      pz      :     0.989371  p :     3.270010
      px      :     1.156365
      py      :     1.124274

 60 C s       :     3.341134  s :     3.341134
      pz      :     1.162326  p :     3.270563
      px      :     1.146639
      py      :     0.961598

 61 H s       :     0.797291  s :     0.797291

 62 H s       :     0.802352  s :     0.802352

 63 H s       :     0.794050  s :     0.794050

 64 H s       :     0.799759  s :     0.799759

 65 H s       :     0.794668  s :     0.794668

 66 H s       :     0.805584  s :     0.805584

 67 H s       :     0.801004  s :     0.801004

 68 H s       :     0.799250  s :     0.799250

 69 H s       :     0.794996  s :     0.794996

 70 H s       :     0.799994  s :     0.799994

 71 H s       :     0.784435  s :     0.784435

 72 H s       :     0.808498  s :     0.808498


------------------------
MULLIKEN OVERLAP CHARGES
------------------------
B(  0-C ,  1-C ) :   0.4961 B(  0-C ,  2-C ) :  -0.1307 B(  0-C ,  3-H ) :  -0.0876 
B(  0-C ,  4-H ) :  -0.0673 B(  0-C ,  5-C ) :   0.4213 B(  0-C ,  6-C ) :  -0.1564 
B(  0-C , 14-C ) :   0.9462 B(  0-C , 15-C ) :  -0.2026 B(  0-C , 18-C ) :  -0.1836 
B(  0-C , 19-H ) :  -0.0750 B(  1-C ,  2-C ) :   0.5269 B(  1-C ,  3-H ) :   0.7958 
B(  1-C ,  4-H ) :   0.8136 B(  1-C ,  5-C ) :  -0.1484 B(  1-C ,  7-C ) :  -0.1691 
B(  1-C , 12-O ) :  -0.0832 B(  1-C , 13-H ) :  -0.0844 B(  1-C , 14-C ) :  -0.1079 
B(  2-C ,  3-H ) :  -0.0819 B(  2-C ,  4-H ) :  -0.0581 B(  2-C ,  6-C ) :  -0.1288 
B(  2-C ,  7-C ) :   0.5343 B(  2-C , 10-H ) :  -0.0697 B(  2-C , 11-H ) :  -0.0825 
B(  2-C , 12-O ) :   0.6905 B(  2-C , 13-H ) :   0.7985 B(  2-C , 35-H ) :  -0.1132 
B(  5-C ,  6-C ) :   0.5390 B(  5-C ,  7-C ) :  -0.1712 B(  5-C ,  8-H ) :  -0.0881 
B(  5-C ,  9-H ) :  -0.0736 B(  5-C , 14-C ) :  -0.1964 B(  5-C , 15-C ) :   1.0584 
B(  5-C , 16-H ) :  -0.0995 B(  5-C , 17-H ) :  -0.0943 B(  6-C ,  7-C ) :   0.5411 
B(  6-C ,  8-H ) :   0.8037 B(  6-C ,  9-H ) :   0.8190 B(  6-C , 11-H ) :  -0.0738 
B(  6-C , 15-C ) :  -0.1289 B(  7-C ,  8-H ) :  -0.0769 B(  7-C , 10-H ) :   0.8058 
B(  7-C , 11-H ) :   0.7945 B(  7-C , 12-O ) :  -0.0901 B(  7-C , 13-H ) :  -0.0841 
B( 12-O , 35-H ) :   0.6599 B( 14-C , 18-C ) :   0.6128 B( 14-C , 19-H ) :   0.8251 
B( 14-C , 20-C ) :  -0.1951 B( 14-C , 21-H ) :  -0.0733 B( 15-C , 16-H ) :   0.8143 
B( 15-C , 17-H ) :   0.8069 B( 18-C , 19-H ) :  -0.0610 B( 18-C , 20-C ) :   0.9212 
B( 18-C , 21-H ) :   0.8317 B( 18-C , 22-C ) :  -0.1498 B( 18-C , 32-C ) :  -0.1485 
B( 20-C , 21-H ) :  -0.0846 B( 20-C , 22-C ) :   0.5326 B( 20-C , 23-C ) :  -0.1715 
B( 20-C , 24-H ) :  -0.0667 B( 20-C , 25-H ) :  -0.0929 B( 20-C , 29-C ) :  -0.1243 
B( 20-C , 32-C ) :   0.5188 B( 20-C , 33-H ) :  -0.0913 B( 20-C , 34-C ) :  -0.0985 
[...]
        0.0000         2.9720        0.0000
        0.0000         0.0000        2.9720

 Diagonalized JT*J matrix:
 
 J[55,60](FC)             2.972            2.972            2.972  iso=      2.972
                ---------------  ---------------  ---------------  ---------------
 J[55,60](Total)          2.972            2.972            2.972  iso=      2.972



-----------------------------------------------------------
 NUCLEUS A = C   56 NUCLEUS B = C   59 
 ( 13C  gnA =  1.405  13C  gnB =  1.405) r(AB) =     1.5300
-----------------------------------------------------------

Fermi-contact contribution to J (Hz):
       26.9179         0.0000        0.0000
        0.0000        26.9179        0.0000
        0.0000         0.0000       26.9179

Total spin-spin coupling tensor J (Hz):
       26.9179         0.0000        0.0000
        0.0000        26.9179        0.0000
        0.0000         0.0000       26.9179

 Diagonalized JT*J matrix:
 
 J[56,59](FC)            26.918           26.918           26.918  iso=     26.918
                ---------------  ---------------  ---------------  ---------------
 J[56,59](Total)         26.918           26.918           26.918  iso=     26.918



-----------------------------------------------------------
 NUCLEUS A = C   56 NUCLEUS B = C   60 
 ( 13C  gnA =  1.405  13C  gnB =  1.405) r(AB) =     1.5313
-----------------------------------------------------------

Fermi-contact contribution to J (Hz):
       26.9046         0.0000        0.0000
        0.0000        26.9046        0.0000
        0.0000         0.0000       26.9046

Total spin-spin coupling tensor J (Hz):
       26.9046         0.0000        0.0000
        0.0000        26.9046        0.0000
        0.0000         0.0000       26.9046

 Diagonalized JT*J matrix:
 
 J[56,60](FC)            26.905           26.905           26.905  iso=     26.905
                ---------------  ---------------  ---------------  ---------------
 J[56,60](Total)         26.905           26.905           26.905  iso=     26.905



-----------------------------------------------------------
 NUCLEUS A = C   59 NUCLEUS B = C   60 
 ( 13C  gnA =  1.405  13C  gnB =  1.405) r(AB) =     2.5117
-----------------------------------------------------------

Fermi-contact contribution to J (Hz):
       -0.9128         0.0000        0.0000
        0.0000        -0.9128        0.0000
        0.0000         0.0000       -0.9128

Total spin-spin coupling tensor J (Hz):
       -0.9128         0.0000        0.0000
        0.0000        -0.9128        0.0000
        0.0000         0.0000       -0.9128

 Diagonalized JT*J matrix:
 
 J[59,60](FC)            -0.913           -0.913           -0.913  iso=     -0.913
                ---------------  ---------------  ---------------  ---------------
 J[59,60](Total)         -0.913           -0.913           -0.913  iso=     -0.913



-----------------------------------------------------------------------------
                SUMMARY OF ISOTROPIC COUPLING CONSTANTS J (Hz)                
-----------------------------------------------------------------------------
                  0 C        1 C        2 C        5 C        6 C        7 C  
      0 C        0.000     32.404     -2.391     42.190     -0.176      0.888
      1 C       32.404      0.000     25.300     -1.183      0.381     -0.380
      2 C       -2.391     25.300      0.000      2.017     -1.360     25.804
      5 C       42.190     -1.183      2.017      0.000     30.985     -2.890
      6 C       -0.176      0.381     -1.360     30.985      0.000     23.083
      7 C        0.888     -0.380     25.804     -2.890     23.083      0.000
     14 C       70.198     -0.376      3.570     -3.180      2.736     -0.707
     15 C       -3.284      2.727     -0.838     64.293     -0.896      2.835
     18 C       -2.637      4.230     -1.077      3.283     -1.015      0.207
     20 C        6.952     -1.153      1.261     -1.505      0.783     -0.147
     22 C       -0.942      0.333     -0.382      0.446     -0.236      0.047
     23 C        0.798     -0.271      0.294     -0.334      0.189      0.000
     26 C       -0.078      0.030      0.000      0.042      0.000      0.000
     29 C        1.124     -0.360      0.000     -0.486      0.257      0.000
     32 C       -1.152      0.557     -0.416      0.514     -0.277      0.058
     34 C        0.021     -0.015      0.016     -0.017      0.008     -0.002
     36 C       -0.013      0.000      0.000      0.015     -0.008      0.000
     39 C       -0.080      0.000      0.000      0.033      0.000      0.000
     43 C        0.000      0.000      0.000      0.000      0.000      0.000
     44 C        0.007     -0.002      0.003     -0.005      0.005     -0.001
     49 C        0.000      0.000      0.000      0.000      0.000      0.000
     50 C        0.000      0.000      0.000      0.000      0.000      0.000
     51 C        0.000      0.000      0.000      0.000      0.000      0.000
     54 C        0.000      0.000      0.000      0.000      0.000      0.000
     55 C        0.000      0.000      0.000      0.000      0.000      0.000
     56 C        0.000      0.000      0.000      0.000      0.000      0.000
     59 C        0.000      0.000      0.000      0.000      0.000      0.000
     60 C        0.000      0.000      0.000      0.000      0.000      0.000
                 14 C       15 C       18 C       20 C       22 C       23 C  
      0 C       70.198     -3.284     -2.637      6.952     -0.942      0.798
      1 C       -0.376      2.727      4.230     -1.153      0.333     -0.271
      2 C        3.570     -0.838     -1.077      1.261     -0.382      0.294
      5 C       -3.180     64.293      3.283     -1.505      0.446     -0.334
      6 C        2.736     -0.896     -1.015      0.783     -0.236      0.189
      7 C       -0.707      2.835      0.207     -0.147      0.047      0.000
     14 C        0.000      3.064     54.465     -2.771      3.878     -0.897
     15 C        3.064      0.000     -1.127      1.071     -0.276      0.238
     18 C       54.465     -1.127      0.000     70.046     -2.160      2.473
     20 C       -2.771      1.071     70.046      0.000     32.241     -2.868
     22 C        3.878     -0.276     -2.160     32.241      0.000     24.433
     23 C       -0.897      0.238      2.473     -2.868     24.433      0.000
     26 C        0.117     -0.021     -0.365      1.024     -1.918     25.402
     29 C       -1.153      0.341      2.388     -2.352      1.082     -2.189
     32 C        4.415     -0.338     -1.329     37.025     -0.202      1.529
     34 C        0.063      0.005      2.469     -1.317      1.619     -0.253
     36 C        0.011     -0.014     -0.155      3.484      0.071      0.171
     39 C        0.267     -0.024     -0.053      2.940     -0.338      2.543
     43 C        0.013      0.000      0.296      0.224     -0.005     -0.108
     44 C        0.004      0.003     -0.076      0.702     -0.133      0.616
     49 C       -0.002      0.000     -0.009     -0.031      0.144      0.053
     50 C        0.000      0.000      0.003      0.224     -0.008      0.115
     51 C        0.000      0.000      0.000      0.066     -0.003      0.001
     54 C        0.000      0.000      0.000      0.000      0.000      0.000
     55 C        0.000      0.000      0.000      0.000      0.000      0.000
     56 C        0.000      0.000      0.000      0.000      0.000      0.000
     59 C        0.000      0.000      0.000      0.000      0.000      0.000
     60 C        0.000      0.000      0.000      0.000      0.000      0.000
                 26 C       29 C       32 C       34 C       36 C       39 C  
      0 C       -0.078      1.124     -1.152      0.021     -0.013     -0.080
      1 C        0.030     -0.360      0.557     -0.015      0.000      0.000
      2 C        0.000      0.000     -0.416      0.016      0.000      0.000
      5 C        0.042     -0.486      0.514     -0.017      0.015      0.033
      6 C        0.000      0.257     -0.277      0.008     -0.008      0.000
      7 C        0.000      0.000      0.058     -0.002      0.000      0.000
     14 C        0.117     -1.153      4.415      0.063      0.011      0.267
     15 C       -0.021      0.341     -0.338      0.005     -0.014     -0.024
     18 C       -0.365      2.388     -1.329      2.469     -0.155     -0.053
     20 C        1.024     -2.352     37.025     -1.317      3.484      2.940
     22 C       -1.918      1.082     -0.202      1.619      0.071     -0.338
     23 C       25.402     -2.189      1.529     -0.253      0.171      2.543
     26 C        0.000     27.842     -0.928      2.310      3.033     -0.557
     29 C       27.842      0.000     23.311      0.875      0.707     28.084
     32 C       -0.928     23.311      0.000     28.016      1.242      3.399
     34 C        2.310      0.875     28.016      0.000     26.107      0.021
     36 C        3.033      0.707      1.242     26.107      0.000     26.462
     39 C       -0.557     28.084      3.399      0.021     26.462      0.000
     43 C       -0.021     -0.680      2.843      1.538     -0.037     27.873
     44 C       -0.589     27.220     -0.995      0.803      0.295     -1.247
     49 C        0.440      0.115      0.000      0.060      3.272     -1.002
     50 C       -0.073      3.014      0.020      0.110      1.478     -2.744
     51 C       -0.016      0.162      0.149     -0.036      0.070      2.779
     54 C       -0.002      0.093     -0.036      0.014      0.002     -0.823
     55 C        0.001     -0.003      0.003     -0.002     -0.000      0.028
     56 C        0.000      0.031      0.000     -0.006      0.021      0.915
     59 C        0.000     -0.001      0.000      0.000     -0.001      0.001
     60 C        0.000      0.003      0.000      0.000     -0.002      0.008
                 43 C       44 C       49 C       50 C       51 C       54 C  
      0 C        0.000      0.007      0.000      0.000      0.000      0.000
      1 C        0.000     -0.002      0.000      0.000      0.000      0.000
      2 C        0.000      0.003      0.000      0.000      0.000      0.000
      5 C        0.000     -0.005      0.000      0.000      0.000      0.000
      6 C        0.000      0.005      0.000      0.000      0.000      0.000
      7 C        0.000     -0.001      0.000      0.000      0.000      0.000
     14 C        0.013      0.004     -0.002      0.000      0.000      0.000
     15 C        0.000      0.003      0.000      0.000      0.000      0.000
     18 C        0.296     -0.076     -0.009      0.003      0.000      0.000
     20 C        0.224      0.702     -0.031      0.224      0.066      0.000
     22 C       -0.005     -0.133      0.144     -0.008     -0.003      0.000
     23 C       -0.108      0.616      0.053      0.115      0.001      0.000
     26 C       -0.021     -0.589      0.440     -0.073     -0.016     -0.002
     29 C       -0.680     27.220      0.115      3.014      0.162      0.093
     32 C        2.843     -0.995      0.000      0.020      0.149     -0.036
     34 C        1.538      0.803      0.060      0.110     -0.036      0.014
     36 C       -0.037      0.295      3.272      1.478      0.070      0.002
     39 C       27.873     -1.247     -1.002     -2.744      2.779     -0.823
     43 C        0.000      1.428     27.328     35.931     -1.263      3.362
     44 C        1.428      0.000     -0.033     -0.103      0.082      0.007
     49 C       27.328     -0.033      0.000     -1.961      3.195      0.007
     50 C       35.931     -0.103     -1.961      0.000     69.148     -1.459
     51 C       -1.263      0.082      3.195     69.148      0.000     36.092
     54 C        3.362      0.007      0.007     -1.459     36.092      0.000
     55 C       -0.027     -0.001      0.102      2.918     -1.694     28.155
     56 C       -0.734      0.004      0.033      2.717     -2.864     25.097
     59 C        0.020      0.000     -0.002     -0.100      1.064     -1.335
     60 C        0.007      0.000     -0.002      0.000      1.170     -0.709
                 55 C       56 C       59 C       60 C  
      0 C        0.000      0.000      0.000      0.000
      1 C        0.000      0.000      0.000      0.000
      2 C        0.000      0.000      0.000      0.000
      5 C        0.000      0.000      0.000      0.000
      6 C        0.000      0.000      0.000      0.000
      7 C        0.000      0.000      0.000      0.000
     14 C        0.000      0.000      0.000      0.000
     15 C        0.000      0.000      0.000      0.000
     18 C        0.000      0.000      0.000      0.000
     20 C        0.000      0.000      0.000      0.000
     22 C        0.000      0.000      0.000      0.000
     23 C        0.000      0.000      0.000      0.000
     26 C        0.001      0.000      0.000      0.000
     29 C       -0.003      0.031     -0.001      0.003
     32 C        0.003      0.000      0.000      0.000
     34 C       -0.002     -0.006      0.000      0.000
     36 C       -0.000      0.021     -0.001     -0.002
     39 C        0.028      0.915      0.001      0.008
     43 C       -0.027     -0.734      0.020      0.007
     44 C       -0.001      0.004      0.000      0.000
     49 C        0.102      0.033     -0.002     -0.002
     50 C        2.918      2.717     -0.100      0.000
     51 C       -1.694     -2.864      1.064      1.170
     54 C       28.155     25.097     -1.335     -0.709
     55 C        0.000     -0.616      0.976      2.972
     56 C       -0.616      0.000     26.918     26.905
     59 C        0.976     26.918      0.000     -0.913
     60 C        2.972     26.905     -0.913      0.000

NMR spin-spin coupling calculation done in   0.3 sec 

Maximum memory used throughout the entire PROP-calculation: 33.9 MB

--------------------------------
SUGGESTED CITATIONS FOR THIS RUN
--------------------------------

Below you find a list of papers that are relevant to this ORCA run
We neither can nor want to force you to cite these papers, but we appreciate if you do
You receive ORCA, which is the product of decades of hard work by many enthusiastic individuals, for free
The only thing we kindly ask in return is that you cite our papers,
We deeply appreciate it, if you show your appreciation for ORCA by not just citing the generic ORCA reference.

Please note that relegating all ORCA citations to the supporting information does *not* help us.
SI sections are not indexed - citations you put there will not count into any citation statistics
But we need these citations in order to attract the funding resources that allow us to do what we are doing

Therefore, if you are a happy ORCA user, please consider citing a few of the papers listed below in the main body of your paper

In addition to the list printed below, the program has created the file inpJ.bibtex that contains the list in bibtex format
You can import this file easily into all common literature databanks and citation aid programs


List of essential papers. We consider these as the minimum necessary citations

  1. Neese,F.
     Software update: the ORCA program system, version 5.0
     WIRES Comput. Molec. Sci., 2022 12(1)e1606
     doi.org/10.1002/wcms.1606

List of papers to cite with high priority. The work reported in these papers was absolutely
necessary for this run to complete.
Our perspective: the developers of density functionals and basis sets usually get cited in chemistry papers
Good! But without the algorithms to do something with them, the functionals or basis sets would not do anything.
Hence, in our opinion, the algorithm design and method developments papers are equally worthy of getting cited

  1. Neese,F.
     An improvement of the resolution of the identity approximation for the formation of the Coulomb matrix
     J. Comp. Chem., 2003 24(14)1740-1747
     doi.org/10.1002/jcc.10318
  2. Neese,F.; Wennmohs,F.; Hansen,A.; Becker,U.
     Efficient, approximate and parallel Hartree-Fock and hybrid DFT calculations. A 'chain-of-spheres' algorithm for the Hartree-Fock exchange
     Chem. Phys., 2009 356(1-3)98-109
     doi.org/10.1016/j.chemphys.2008.10.036
  3. Stoychev,G.L.; Auer,A.A.; Izsak,R.; Neese,F.
     Self-Consistent Field Calculation of Nuclear Magnetic Resonance Chemical Shielding Constants Using Gauge-Including Atomic Orbitals and Approximate Two-Electron Integrals
     J. Chem. Theory Comput., 2018 14(2)619-637
     doi.org/10.1021/acs.jctc.7b01006
  4. Garcia-Rates,M.; Neese,F.
     Effect of the Solute Cavity on the Solvation Energy and its Derivatives within the Framework of the Gaussian Charge Scheme
     J. Comput. Chem., 2020 41 922-939
     doi.org/10.1002/jcc.26139
  5. Helmich-Paris,B.; de Souza,B.; Neese,F.; Izsák,R.
     An improved chain of spheres for exchange algorithm
     J. Chem. Phys., 2021 155 104109
     doi.org/doi: 10.1063/5.0058766.
  6. Neese,F.
     The SHARK Integral Generation and Digestion System
     J. Comp. Chem., 2022  1-16
     doi.org/10.1002/jcc.26942
  7. Grimme,S.; Bannwarth,C.; Dohm,S.; Hansen,A.; Pisarek,J.; Pracht,P.; Seibert,J.; Neese,F.
     Fully Automated Quantum-Chemistry-Based Computation of Spin-Spin-Coupled Nuclear Magnetic Resonance Spectra
     Angew. Chem., Int. Ed., 2017 56 14763-14769
     doi.org/10.1002/anie.201708266
  8. Caldeweyher,E.; Bannwarth,C.; Grimme,S.
     Extension of the D3 dispersion coefficient model
     J. Chem. Phys., 2017 147 034112-XXXX
     doi.org/10.1063/1.4993215
  9. Caldeweyher,E.; Ehlert,S.; Hansen,A.; Neugebauer,H.; Spicher,S.; Bannwarth,C.; Grimme,S.
     A generally applicable atomic-charge dependent London dispersion correction
     J. Chem. Phys., 2019 150 154122-XXXX
     doi.org/10.1063/1.5090222
 10. Caldeweyher,E.; Mewes,J.; Ehlert,S.; Grimme,S.
     Extension and evaluation of the D4 London-dispersion model for periodic systems
     Phys. Chem. Chem. Phys., 2020 22(16)8499-8512
     doi.org/10.1039/D0CP00502A

List of suggested additional citations. These are papers that are important in the 'surrounding' of 
of this run, or papers that preceded the highly important papers. If you like your results we are grateful for a citation.

  1. Izsak,R.; Neese,F.
     An overlap fitted chain of spheres exchange method
     J. Chem. Phys., 2011 135 144105
     doi.org/10.1063/1.3646921
  2. Izsak,R.; Hansen,A.; Neese,F.
     The resolution of identity and chain of spheres approximations for the LPNO-CCSD singles Fock term
     Molec. Phys., 2012 110 2413-2417
     doi.org/10.1080/00268976.2012.687466
  3. Neese,F.
     The ORCA program system
     WIRES Comput. Molec. Sci., 2012 2(1)73-78
     doi.org/10.1002/wcms.81
  4. Izsak,R.; Neese,F.; Klopper,W.
     Robust fitting techniques in the chain of spheres approximation to the Fock exchange: The role of the complementary space
     J. Chem. Phys., 2013 139 
     doi.org/10.1063/1.4819264
  5. Neese,F.
     Software update: the ORCA program system, version 4.0
     WIRES Comput. Molec. Sci., 2018 8(1)1-6
     doi.org/10.1002/wcms.1327
  6. Neese,F.; Wennmohs,F.; Becker,U.; Riplinger,C.
     The ORCA quantum chemistry program package
     J. Chem. Phys., 2020 152 Art. No. L224108
     doi.org/10.1063/5.0004608

Timings for individual modules:

Sum of individual times          ...      135.030 sec (=   2.251 min)
Startup calculation              ...        4.148 sec (=   0.069 min)   3.1 %
SCF iterations                   ...       18.669 sec (=   0.311 min)  13.8 %
Property integrals               ...        0.637 sec (=   0.011 min)   0.5 %
SCF Response                     ...      111.044 sec (=   1.851 min)  82.2 %
Property calculations            ...        0.532 sec (=   0.009 min)   0.4 %
                             ****ORCA TERMINATED NORMALLY****
TOTAL RUN TIME: 0 days 0 hours 2 minutes 15 seconds 323 msec
