
                                 *****************
                                 * O   R   C   A *
                                 *****************

                                            #,                                       
                                            ###                                      
                                            ####                                     
                                            #####                                    
                                            ######                                   
                                           ########,                                 
                                     ,,################,,,,,                         
                               ,,#################################,,                 
                          ,,##########################################,,             
                       ,#########################################, ''#####,          
                    ,#############################################,,   '####,        
                  ,##################################################,,,,####,       
                ,###########''''           ''''###############################       
              ,#####''   ,,,,##########,,,,          '''####'''          '####       
            ,##' ,,,,###########################,,,                        '##       
           ' ,,###''''                  '''############,,,                           
         ,,##''                                '''############,,,,        ,,,,,,###''
      ,#''                                            '''#######################'''  
     '                                                          ''''####''''         
             ,#######,   #######,   ,#######,      ##                                
            ,#'     '#,  ##    ##  ,#'     '#,    #''#        ,####,   ,####,        
            ##       ##  ##   ,#'  ##            #'  '#       #'       #'  '#        
            ##       ##  #######   ##           ,######,      #####,   #    #        
            '#,     ,#'  ##    ##  '#,     ,#' ,#      #,     #,   #   #,  ,#        
             '#######'   ##     ##  '#######'  #'      '#     '####' # '####'        



                #########################################################
                #                        -***-                          #
                #          Department of theory and spectroscopy        #
                #                                                       #
                #                      Frank Neese                      #
                #                                                       #
                #     Directorship, Architecture, Infrastructure        #
                #                    SHARK, DRIVERS                     #
                #        Core code/Algorithms in most modules           #
                #                                                       #
                #        Max Planck Institute fuer Kohlenforschung      #
                #                Kaiser Wilhelm Platz 1                 #
                #                 D-45470 Muelheim/Ruhr                 #
                #                      Germany                          #
                #                                                       #
                #                  All rights reserved                  #
                #                        -***-                          #
                #########################################################


                         Program Version 6.0.0  -   RELEASE  -


 With contributions from (in alphabetic order):
   Daniel Aravena         : Magnetic Suceptibility
   Michael Atanasov       : Ab Initio Ligand Field Theory (pilot matlab implementation)
   Alexander A. Auer      : GIAO ZORA, VPT2 properties, NMR spectrum
   Ute Becker             : All parallelization in ORCA, NUMFREQ, NUMCALC
   Giovanni Bistoni       : ED, misc. LED, open-shell LED, HFLD
   Martin Brehm           : Molecular dynamics
   Dmytro Bykov           : pre 5.0 version of the SCF Hessian
   Marcos Casanova-Páez   : Triplet and SCS-CIS(D). UHF-(DLPNO)-IP/EA/STEOM-CCSD. UHF-CVS-IP/STEOM-CCSD
   Vijay G. Chilkuri      : MRCI spin determinant printing, contributions to CSF-ICE
   Pauline Colinet        : FMM embedding
   Dipayan Datta          : RHF DLPNO-CCSD density
   Achintya Kumar Dutta   : EOM-CC, STEOM-CC
   Nicolas Foglia         : Exact transition moments, OPA infrastructure, MCD improvements
   Dmitry Ganyushin       : Spin-Orbit,Spin-Spin,Magnetic field MRCI
   Miquel Garcia          : C-PCM and meta-GGA Hessian, CCSD/C-PCM, Gaussian charge scheme
   Tiago L. C. Gouveia    : GS-ROHF, GS-ROCIS
   Yang Guo               : DLPNO-NEVPT2, F12-NEVPT2, CIM, IAO-localization
   Andreas Hansen         : Spin unrestricted coupled pair/coupled cluster methods
   Ingolf Harden          : AUTO-CI MPn and infrastructure 
   Benjamin Helmich-Paris : MC-RPA, TRAH-(SCF,CASSCF), AVAS, COSX integrals, SCF dyn. polar.
   Lee Huntington         : MR-EOM, pCC
   Robert Izsak           : Overlap fitted RIJCOSX, COSX-SCS-MP3, EOM
   Riya Kayal             : Wick's Theorem for AUTO-CI, AUTO-CI UHF-CCSDT
   Emily Kempfer          : AUTO-CI, RHF CISDT and CCSDT
   Christian Kollmar      : KDIIS, OOCD, Brueckner-CCSD(T), CCSD density, CASPT2, CASPT2-K, improved NEVPT2
   Axel Koslowski         : Symmetry handling
   Simone Kossmann        : Meta GGA functionals, TD-DFT gradient, OOMP2, (MP2 Hessian; deprecated post 5.0)
   Lucas Lang             : DCDCAS
   Marvin Lechner         : AUTO-CI (C++ implementation), FIC-MRCC
   Spencer Leger          : CASSCF response
   Dagmar Lenk            : GEPOL surface, SMD, ORCA-2-JSON
   Dimitrios Liakos       : Extrapolation schemes; Compound Job, initial MDCI parallelization
   Dimitrios Manganas     : Further ROCIS development; embedding schemes. LFT, Crystal Embedding
   Dimitrios Pantazis     : SARC Basis sets
   Anastasios Papadopoulos: AUTO-CI, single reference methods and gradients
   Taras Petrenko         : pre 6.0 DFT Hessian and TD-DFT gradient, (ASA, deprecated), ECA, 1-Electron XAS/XES, NRVS
   Peter Pinski           : DLPNO-MP2, DLPNO-MP2 Gradient
   Christoph Reimann      : Effective Core Potentials
   Marius Retegan         : Local ZFS, SOC
   Christoph Riplinger    : Optimizer, TS searches, QM/MM, DLPNO-CCSD(T), (RO)-DLPNO pert. Triples
   Michael Roemelt        : Original ROCIS implementation
   Masaaki Saitow         : Open-shell DLPNO-CCSD energy and density
   Barbara Sandhoefer     : DKH picture change effects
   Kantharuban Sivalingam : CASSCF convergence/infrastructure, NEVPT2 and variants, FIC-MRCI
   Bernardo de Souza      : ESD, SOC TD-DFT
   Georgi Stoychev        : AutoAux, RI-MP2 NMR, DLPNO-MP2 response, X2C
   Van Anh Tran           : RI-MP2 g-tensors
   Willem Van den Heuvel  : Paramagnetic NMR
   Zikuan Wang            : NOTCH, Electric field optimization 
   Frank Wennmohs         : Technical directorship and infrastructure
   Hang Xu                : AUTO-CI-Response properties 


 We gratefully acknowledge several colleagues who have allowed us to
 interface, adapt or use parts of their codes:
   Stefan Grimme, W. Hujo, H. Kruse, P. Pracht,  : VdW corrections, initial TS optimization,
                  C. Bannwarth, S. Ehlert,         DFT functionals, gCP, sTDA/sTD-DF
                  L. Wittmann, M. Mueller
   Ed Valeev, F. Pavosevic, A. Kumar             : LibInt (2-el integral package), F12 methods
   Garnet Chan, S. Sharma, J. Yang, R. Olivares  : DMRG
   Ulf Ekstrom                                   : XCFun DFT Library
   Mihaly Kallay                                 : mrcc  (arbitrary order and MRCC methods)
   Frank Weinhold                                : gennbo (NPA and NBO analysis)
   Simon Mueller                                 : openCOSMO-RS
   Christopher J. Cramer and Donald G. Truhlar   : smd solvation model
   Lars Goerigk                                  : TD-DFT with DH, B97 family of functionals
   V. Asgeirsson, H. Jonsson                     : NEB implementation
   FAccTs GmbH                                   : IRC, NEB, NEB-TS, DLPNO-Multilevel, CI-OPT
                                                   MM, QMMM, 2- and 3-layer-ONIOM, Crystal-QMMM,
                                                   LR-CPCM, SF, NACMEs, symmetry and pop. for TD-DFT,
                                                   nearIR, NL-DFT gradient (VV10), updates on ESD,
                                                   ML-optimized integration grids, MBIS, APM,
                                                   GOAT, DOCKER, SOLVATOR, interface openCOSMO-RS
   S Lehtola, MJT Oliveira, MAL Marques          : LibXC Library
   Liviu Ungur et al                             : ANISO software


 Your calculation uses the libint2 library for the computation of 2-el integrals
 For citations please refer to: http://libint.valeyev.net

 Your ORCA version has been built with support for libXC version: 6.2.2
 For citations please refer to: https://libxc.gitlab.io

 This ORCA versions uses:
   CBLAS   interface :  Fast vector & matrix operations
   LAPACKE interface :  Fast linear algebra routines
   SCALAPACK package :  Parallel linear algebra routines
   Shared memory     :  Shared parallel matrices
   BLAS/LAPACK       :  OpenBLAS 0.3.27  USE64BITINT DYNAMIC_ARCH NO_AFFINITY Zen SINGLE_THREADED
        Core in use  :  Zen
   Copyright (c) 2011-2014, The OpenBLAS Project


NOTE: MaxCore=8000 MB was set to SCF,MP2,MDCI,CIPSI,MRCI and CIS
      => If you want to overwrite this, your respective input block should be placed after the MaxCore statement
Your calculation utilizes the atom-pairwise dispersion correction
based on EEQ partial charges (D4)


================================================================================

----- Orbital basis set information -----
Your calculation utilizes the basis: def2-SVP
   F. Weigend and R. Ahlrichs, Phys. Chem. Chem. Phys. 7, 3297 (2005).

----- AuxJ basis set information -----
Your calculation utilizes the auxiliary basis: def2/J
   F. Weigend, Phys. Chem. Chem. Phys. 8, 1057 (2006).

================================================================================
                                        WARNINGS
                       Please study these warnings very carefully!
================================================================================

WARNING: Old DensityContainer found on disk!
         Will remove this file - 
         If you want to keep old densities, please start your calculation with a different basename. 


================================================================================
                                       INPUT FILE
================================================================================
NAME = inpS
|  1> ! wb97x-d4
|  2> ! def2-svp
|  3> ! def2/J RIJCOSX
|  4> ! DEFGRID2
|  5> ! scfconv7
|  6> ! smallprint printgap noloewdin
|  7> ! NOSOSCF
|  8> %MaxCore 8000
|  9> %output
| 10>        print[P_BondOrder_M] 1
| 11>        print[P_Mayer] 1
| 12>        print[P_basis] 2
| 13> end
| 14> %pal
| 15>     nprocs 4
| 16> end
| 17> ! CPCM(chloroform)
| 18> *xyz 0 1
| 19> C   -5.0120824500   0.3114420700   0.3401870100
| 20> C   -6.4244469800  -0.1014864500  -0.0009189300
| 21> C   -6.9662728700   0.6725424500  -1.2088887600
| 22> H   -7.0870956200   0.1204178000   0.8528694300
| 23> H   -6.4770098800  -1.1787051000  -0.1934565100
| 24> C   -4.8211603800   1.7722195000   0.4642086700
| 25> C   -5.4078354500   2.5783026700  -0.6726518000
| 26> C   -6.8588128700   2.1739267000  -0.9668672600
| 27> H   -4.8061662800   2.3936287600  -1.5755927100
| 28> H   -5.3428485800   3.6486380000  -0.4503742000
| 29> H   -7.2343396900   2.7171208800  -1.8420511300
| 30> H   -7.4969779500   2.4390100800  -0.1103808900
| 31> O   -8.3089856500   0.2770964100  -1.5188226500
| 32> H   -6.3802473500   0.4034970200  -2.0988570000
| 33> C   -4.0290684200  -0.6115044600   0.4646118400
| 34> C   -4.2218558000   2.3500389400   1.5115974400
| 35> H   -3.8286681000   1.7603081100   2.3349620300
| 36> H   -4.1217921100   3.4311636700   1.5719632900
| 37> C   -2.6271054000  -0.3471018700   0.6907939300
| 38> H   -4.3281032700  -1.6513068700   0.3396688300
| 39> C   -1.6587273700  -1.2680164300   0.8849130700
| 40> H   -2.3351729400   0.7005470100   0.6904551800
| 41> C   -1.8648602400  -2.7594689700   0.9615446900
| 42> C   -0.9360326400  -3.5143505100  -0.0077151800
| 43> H   -2.9045043800  -3.0454470600   0.7800890800
| 44> H   -1.6226990900  -3.0796888500   1.9876464000
| 45> C    0.5334120500  -3.0937388500   0.1322363300
| 46> H   -1.2748084200  -3.3401120900  -1.0368137200
| 47> H   -1.0276402300  -4.5925534600   0.1720378000
| 48> C    0.7080947400  -1.5743853200  -0.0027737900
| 49> H    1.1285977200  -3.6324521300  -0.6119733200
| 50> H    0.9047457000  -3.3991296000   1.1221519800
| 51> C   -0.2164084700  -0.9036899100   1.0629102900
| 52> H    0.1002424200  -1.3509349600   2.0233294700
| 53> C    0.2291577000   0.5547248300   1.0790488700
| 54> H   -8.8621317200   0.5033069500  -0.7591184600
| 55> C    1.7583746700   0.4697805200   0.8507963200
| 56> H   -0.0339592600   1.0562177200   2.0162749000
| 57> H   -0.2481388200   1.1153746000   0.2676764800
| 58> C    2.0819647400  -1.0014656000   0.4467841800
| 59> H    2.3180190700   0.7575908300   1.7463424000
| 60> H    2.0657865600   1.1578764600   0.0539602300
| 61> H    2.3702789300  -1.5572122100   1.3535918700
| 62> C    3.2812388300  -1.0864849200  -0.5285536400
| 63> C    0.3504189100  -1.0991063400  -1.4171709600
| 64> H   -0.7159009100  -1.2304834600  -1.6252582500
| 65> H    0.9126553600  -1.6631609800  -2.1693603300
| 66> H    0.5812959100  -0.0383173600  -1.5569916300
| 67> H    3.0086235300  -0.4960788400  -1.4196763500
| 68> C    3.5980633400  -2.5104698400  -0.9820067500
| 69> C    4.4675796300  -0.3913159200   0.0984288200
| 70> C    5.6209068100  -0.9580565400   0.4568809100
| 71> H    4.3302658600   0.6739622800   0.2781011200
| 72> H    5.7580983100  -2.0249998400   0.2837536700
| 73> C    6.7970903500  -0.2633645200   1.0927870800
| 74> C    6.5199784400   1.1832845100   1.5002902800
| 75> C    8.0776126900  -0.3755032000   0.2144313800
| 76> H    7.0302670800  -0.8234669100   2.0142684000
| 77> H    8.8691908100   0.1484420900   0.7716363800
| 78> C    7.9241769200   0.3047439700  -1.1474291400
| 79> C    8.5252767800  -1.8287253800   0.0338607800
| 80> H    5.6887891200   1.2376952500   2.2115305300
| 81> H    6.2629468200   1.8109759700   0.6408944400
| 82> H    7.4055096800   1.6163499700   1.9779350800
| 83> H    8.8540810800   0.2229923800  -1.7211592200
| 84> H    7.6826631500   1.3682574700  -1.0542545100
| 85> H    7.1259358000  -0.1727897700  -1.7280569900
| 86> H    7.8297041200  -2.3846745100  -0.6052443100
| 87> H    8.5933599700  -2.3493070400   0.9961677200
| 88> H    9.5106614800  -1.8683208400  -0.4434383700
| 89> H    4.5199624500  -2.5312243000  -1.5734747800
| 90> H    2.7967673600  -2.9114411300  -1.6056912000
| 91> H    3.7285272700  -3.1827554100  -0.1256978600
| 92> *
| 93> %eprnmr
| 94>  Nuclei = all C { shift }
| 95>  origin giao
| 96>  giao_2el giao_2el_same_as_scf
| 97>  giao_1el giao_1el_analytic
| 98> end
| 99> 
|100>                          ****END OF INPUT****
================================================================================

                       ****************************
                       * Single Point Calculation *
                       ****************************

---------------------------------
CARTESIAN COORDINATES (ANGSTROEM)
---------------------------------
  C     -5.012082    0.311442    0.340187
  C     -6.424447   -0.101486   -0.000919
  C     -6.966273    0.672542   -1.208889
  H     -7.087096    0.120418    0.852869
  H     -6.477010   -1.178705   -0.193457
  C     -4.821160    1.772219    0.464209
  C     -5.407835    2.578303   -0.672652
  C     -6.858813    2.173927   -0.966867
  H     -4.806166    2.393629   -1.575593
  H     -5.342849    3.648638   -0.450374
  H     -7.234340    2.717121   -1.842051
  H     -7.496978    2.439010   -0.110381
  O     -8.308986    0.277096   -1.518823
  H     -6.380247    0.403497   -2.098857
  C     -4.029068   -0.611504    0.464612
  C     -4.221856    2.350039    1.511597
  H     -3.828668    1.760308    2.334962
  H     -4.121792    3.431164    1.571963
  C     -2.627105   -0.347102    0.690794
  H     -4.328103   -1.651307    0.339669
  C     -1.658727   -1.268016    0.884913
  H     -2.335173    0.700547    0.690455
  C     -1.864860   -2.759469    0.961545
  C     -0.936033   -3.514351   -0.007715
  H     -2.904504   -3.045447    0.780089
  H     -1.622699   -3.079689    1.987646
  C      0.533412   -3.093739    0.132236
  H     -1.274808   -3.340112   -1.036814
  H     -1.027640   -4.592553    0.172038
  C      0.708095   -1.574385   -0.002774
  H      1.128598   -3.632452   -0.611973
  H      0.904746   -3.399130    1.122152
  C     -0.216408   -0.903690    1.062910
  H      0.100242   -1.350935    2.023329
  C      0.229158    0.554725    1.079049
  H     -8.862132    0.503307   -0.759118
  C      1.758375    0.469781    0.850796
  H     -0.033959    1.056218    2.016275
  H     -0.248139    1.115375    0.267676
  C      2.081965   -1.001466    0.446784
  H      2.318019    0.757591    1.746342
  H      2.065787    1.157876    0.053960
  H      2.370279   -1.557212    1.353592
  C      3.281239   -1.086485   -0.528554
  C      0.350419   -1.099106   -1.417171
  H     -0.715901   -1.230483   -1.625258
  H      0.912655   -1.663161   -2.169360
  H      0.581296   -0.038317   -1.556992
  H      3.008624   -0.496079   -1.419676
  C      3.598063   -2.510470   -0.982007
  C      4.467580   -0.391316    0.098429
  C      5.620907   -0.958057    0.456881
  H      4.330266    0.673962    0.278101
  H      5.758098   -2.025000    0.283754
  C      6.797090   -0.263365    1.092787
  C      6.519978    1.183285    1.500290
  C      8.077613   -0.375503    0.214431
  H      7.030267   -0.823467    2.014268
  H      8.869191    0.148442    0.771636
  C      7.924177    0.304744   -1.147429
  C      8.525277   -1.828725    0.033861
  H      5.688789    1.237695    2.211531
  H      6.262947    1.810976    0.640894
  H      7.405510    1.616350    1.977935
  H      8.854081    0.222992   -1.721159
  H      7.682663    1.368257   -1.054255
  H      7.125936   -0.172790   -1.728057
  H      7.829704   -2.384675   -0.605244
  H      8.593360   -2.349307    0.996168
  H      9.510661   -1.868321   -0.443438
  H      4.519962   -2.531224   -1.573475
  H      2.796767   -2.911441   -1.605691
  H      3.728527   -3.182755   -0.125698

----------------------------
CARTESIAN COORDINATES (A.U.)
----------------------------
  NO LB      ZA    FRAG     MASS         X           Y           Z
   0 C     6.0000    0    12.011   -9.471463    0.588540    0.642860
   1 C     6.0000    0    12.011  -12.140445   -0.191782   -0.001737
   2 C     6.0000    0    12.011  -13.164348    1.270921   -2.284469
   3 H     1.0000    0     1.008  -13.392670    0.227557    1.611690
   4 H     1.0000    0     1.008  -12.239775   -2.227430   -0.365580
   5 C     6.0000    0    12.011   -9.110673    3.349010    0.877227
   6 C     6.0000    0    12.011  -10.219328    4.872286   -1.271128
   7 C     6.0000    0    12.011  -12.961278    4.108126   -1.827114
   8 H     1.0000    0     1.008   -9.082338    4.523303   -2.977439
   9 H     1.0000    0     1.008  -10.096521    6.894927   -0.851084
  10 H     1.0000    0     1.008  -13.670921    5.134614   -3.480972
  11 H     1.0000    0     1.008  -14.167235    4.609061   -0.208590
  12 O     8.0000    0    15.999  -15.701707    0.523636   -2.870159
  13 H     1.0000    0     1.008  -12.056920    0.762499   -3.966265
  14 C     6.0000    0    12.011   -7.613836   -1.155576    0.877989
  15 C     6.0000    0    12.011   -7.978151    4.440930    2.856505
  16 H     1.0000    0     1.008   -7.235134    3.326500    4.412439
  17 H     1.0000    0     1.008   -7.789058    6.483960    2.970580
  18 C     6.0000    0    12.011   -4.964510   -0.655927    1.305411
  19 H     1.0000    0     1.008   -8.178930   -3.120518    0.641881
  20 C     6.0000    0    12.011   -3.134540   -2.396204    1.672243
  21 H     1.0000    0     1.008   -4.412837    1.323842    1.304771
  22 C     6.0000    0    12.011   -3.524075   -5.214641    1.817056
  23 C     6.0000    0    12.011   -1.768845   -6.641160   -0.014580
  24 H     1.0000    0     1.008   -5.488718   -5.755061    1.474155
  25 H     1.0000    0     1.008   -3.066457   -5.819769    3.756107
  26 C     6.0000    0    12.011    1.008003   -5.846319    0.249890
  27 H     1.0000    0     1.008   -2.409039   -6.311897   -1.959294
  28 H     1.0000    0     1.008   -1.941959   -8.678668    0.325104
  29 C     6.0000    0    12.011    1.338105   -2.975157   -0.005242
  30 H     1.0000    0     1.008    2.132741   -6.864340   -1.156462
  31 H     1.0000    0     1.008    1.709722   -6.423424    2.120560
  32 C     6.0000    0    12.011   -0.408953   -1.707726    2.008609
  33 H     1.0000    0     1.008    0.189431   -2.552897    3.823539
  34 C     6.0000    0    12.011    0.433045    1.048278    2.039107
  35 H     1.0000    0     1.008  -16.747002    0.951112   -1.434526
  36 C     6.0000    0    12.011    3.322847    0.887757    1.607772
  37 H     1.0000    0     1.008   -0.064174    1.995962    3.810207
  38 H     1.0000    0     1.008   -0.468914    2.107753    0.505835
  39 C     6.0000    0    12.011    3.934343   -1.892496    0.844300
  40 H     1.0000    0     1.008    4.380421    1.431639    3.300109
  41 H     1.0000    0     1.008    3.903771    2.188069    0.101970
  42 H     1.0000    0     1.008    4.479178   -2.942705    2.557918
  43 C     6.0000    0    12.011    6.200643   -2.053159   -0.998822
  44 C     6.0000    0    12.011    0.662196   -2.077010   -2.678065
  45 H     1.0000    0     1.008   -1.352857   -2.325277   -3.071293
  46 H     1.0000    0     1.008    1.724669   -3.142919   -4.099497
  47 H     1.0000    0     1.008    1.098490   -0.072409   -2.942288
  48 H     1.0000    0     1.008    5.685475   -0.937453   -2.682800
  49 C     6.0000    0    12.011    6.799354   -4.744100   -1.855724
  50 C     6.0000    0    12.011    8.442502   -0.739480    0.186004
  51 C     6.0000    0    12.011   10.621974   -1.810464    0.863380
  52 H     1.0000    0     1.008    8.183017    1.273604    0.525535
  53 H     1.0000    0     1.008   10.881229   -3.826695    0.536217
  54 C     6.0000    0    12.011   12.844639   -0.497687    2.065068
  55 C     6.0000    0    12.011   12.320974    2.236084    2.835138
  56 C     6.0000    0    12.011   15.264476   -0.709598    0.405217
  57 H     1.0000    0     1.008   13.285279   -1.556127    3.806416
  58 H     1.0000    0     1.008   16.760342    0.280515    1.458181
  59 C     6.0000    0    12.011   14.974524    0.575883   -2.168327
  60 C     6.0000    0    12.011   16.110438   -3.455790    0.063988
  61 H     1.0000    0     1.008   10.750253    2.338905    4.179187
  62 H     1.0000    0     1.008   11.835254    3.422249    1.211115
  63 H     1.0000    0     1.008   13.994385    3.054459    3.737756
  64 H     1.0000    0     1.008   16.731788    0.421395   -3.252520
  65 H     1.0000    0     1.008   14.518129    2.585632   -1.992252
  66 H     1.0000    0     1.008   13.466067   -0.326525   -3.265554
  67 H     1.0000    0     1.008   14.795996   -4.506382   -1.143746
  68 H     1.0000    0     1.008   16.239097   -4.439547    1.882484
  69 H     1.0000    0     1.008   17.972546   -3.530615   -0.837977
  70 H     1.0000    0     1.008    8.541491   -4.783321   -2.973436
  71 H     1.0000    0     1.008    5.285124   -5.501826   -3.034317
  72 H     1.0000    0     1.008    7.045895   -6.014536   -0.237535

--------------------------------
INTERNAL COORDINATES (ANGSTROEM)
--------------------------------
 C      0   0   0     0.000000000000     0.00000000     0.00000000
 C      1   0   0     1.510508785322     0.00000000     0.00000000
 C      2   1   0     1.533586366430   111.73104209     0.00000000
 H      2   1   3     1.103312865842   109.38071411   241.45811419
 H      2   1   3     1.095551732268   110.69198691   122.87586827
 C      1   2   3     1.478412428573   114.19243610    50.52236549
 C      6   1   2     1.512087776211   114.42851293   312.05450817
 C      3   2   1     1.524557878275   110.31007767   304.98369857
 H      7   6   1     1.100641871871   108.37629794   289.91998171
 H      7   6   1     1.095101978530   110.20658340   172.72946284
 H      8   3   2     1.096369972242   109.69737689   179.13789844
 H      8   3   2     1.100496601394   108.65630219   296.58214192
 O      3   2   1     1.433636703038   111.22098849   180.28918982
 H      3   2   1     1.099024486399   109.01990256    65.12218476
 C      1   2   3     1.354115363895   120.87735831   232.72565478
 C      6   1   2     1.337932928204   123.38351662   129.86175154
 H     16   6   1     1.086419931403   121.39754687     0.65517953
 H     16   6   1     1.087422392505   120.93395815   181.34259505
 C     15   1   2     1.444495544086   126.45559547   175.24858195
 H     15   1   2     1.089138030327   116.15842168   357.93451612
 C     19  15   1     1.350378419674   126.41869123   176.25261644
 H     19  15   1     1.087562803574   115.89984846   355.48151309
 C     21  19  15     1.507578802037   125.72728589   357.22957686
 C     23  21  19     1.540140105817   111.74312654   127.58812980
 H     23  21  19     1.093421027874   112.35335038     3.48379048
 H     23  21  19     1.101847318543   107.74603531   246.22613929
 C     24  23  21     1.534851227529   112.68585423    50.91999520
 H     24  23  21     1.097347648263   109.03720611   288.82807786
 H     24  23  21     1.096915988466   109.16451401   172.85523473
 C     27  24  23     1.535310041591   111.84534724   306.10181100
 H     27  24  23     1.094671632488   108.88621696   182.51676589
 H     27  24  23     1.100493154873   109.20923504    66.06418524
 C     21  19  15     1.498232502918   122.79243106   177.68899485
 H     33  21  19     1.105758075801   106.29079727   124.25040310
 C     33  21  19     1.525045317183   121.00187182     2.04992447
 H     13   3   2     0.966587936748   107.54792590    62.68097515
 C     35  33  21     1.548489361836   103.56275120   196.46980612
 H     35  33  21     1.095042594911   112.13642355    74.48721900
 H     35  33  21     1.095657468308   110.74647048   314.85605193
 C     30  27  24     1.554946349832   116.08627377   166.20880661
 H     37  35  33     1.094549866565   111.71003647   249.06167648
 H     37  35  33     1.096779762343   110.45513586   130.55669970
 H     40  30  27     1.101943534545   106.45539484   320.66886157
 C     40  30  27     1.548150668004   118.82024099    81.02307169
 C     30  27  24     1.534386347274   111.16595250   294.33627715
 H     45  30  27     1.094348311299   111.42162903    66.59661731
 H     45  30  27     1.095470817026   110.72061219   306.47596207
 H     45  30  27     1.094590000401   111.63961460   186.56662428
 H     44  40  30     1.103176379992   106.74312335    62.02458523
 C     44  40  30     1.527655244318   113.50628562   303.06064565
 C     44  40  30     1.511215218774   108.75230415   176.49122869
 C     51  44  40     1.334108846875   126.49166806   115.90245955
 H     51  44  40     1.089015541769   114.79965793   296.99494494
 H     52  51  44     1.089569894186   118.82561940     0.75298716
 C     52  51  44     1.506778477236   126.32431495   180.56598117
 C     55  52  51     1.528281153674   114.04220589     8.03444986
 C     55  52  51     1.556862640863   111.76063851   240.32462598
 H     55  52  51     1.103274171639   106.46374888   126.06944480
 H     57  55  52     1.100723398044   105.76021328   180.68995614
 C     57  55  52     1.530013994623   112.80958899    62.69900590
 C     57  55  52     1.531294740899   112.04520129   297.55706791
 H     56  55  52     1.095307677107   110.96307086    58.84708387
 H     56  55  52     1.094816437786   112.08431330   298.46864073
 H     56  55  52     1.095379306281   110.11609483   178.49401400
 H     60  57  55     1.095705833675   110.35211358   178.62425313
 H     60  57  55     1.094564469302   112.23135631    58.47371218
 H     60  57  55     1.096519976422   110.53034442   297.94989383
 H     61  57  55     1.096063901673   111.38277706    70.13297096
 H     61  57  55     1.096209483749   111.42733167   309.35162791
 H     61  57  55     1.095611831826   110.40173438   189.31245470
 H     50  44  40     1.095519578620   110.63670544   186.60048612
 H     50  44  40     1.091712194738   111.08270453    67.17130576
 H     50  44  40     1.096473273616   111.36995257   306.79632345

---------------------------
INTERNAL COORDINATES (A.U.)
---------------------------
 C      0   0   0     0.000000000000     0.00000000     0.00000000
 C      1   0   0     2.854447927141     0.00000000     0.00000000
 C      2   1   0     2.898058235268   111.73104209     0.00000000
 H      2   1   3     2.084959156474   109.38071411   241.45811419
 H      2   1   3     2.070292739530   110.69198691   122.87586827
 C      1   2   3     2.793794602989   114.19243610    50.52236549
 C      6   1   2     2.857431787488   114.42851293   312.05450817
 C      3   2   1     2.880996865252   110.31007767   304.98369857
 H      7   6   1     2.079911709362   108.37629794   289.91998171
 H      7   6   1     2.069442828137   110.20658340   172.72946284
 H      8   3   2     2.071838988992   109.69737689   179.13789844
 H      8   3   2     2.079637187945   108.65630219   296.58214192
 O      3   2   1     2.709180744280   111.22098849   180.28918982
 H      3   2   1     2.076855293767   109.01990256    65.12218476
 C      1   2   3     2.558907191497   120.87735831   232.72565478
 C      6   1   2     2.528326819861   123.38351662   129.86175154
 H     16   6   1     2.053036136785   121.39754687     0.65517953
 H     16   6   1     2.054930513727   120.93395815   181.34259505
 C     15   1   2     2.729700979991   126.45559547   175.24858195
 H     15   1   2     2.058172599356   116.15842168   357.93451612
 C     19  15   1     2.551845390341   126.41869123   176.25261644
 H     19  15   1     2.055195852195   115.89984846   355.48151309
 C     21  19  15     2.848911061155   125.72728589   357.22957686
 C     23  21  19     2.910443007863   111.74312654   127.58812980
 H     23  21  19     2.066266291752   112.35335038     3.48379048
 H     23  21  19     2.082189673443   107.74603531   246.22613929
 C     24  23  21     2.900448476343   112.68585423    50.91999520
 H     24  23  21     2.073686528920   109.03720611   288.82807786
 H     24  23  21     2.072870810121   109.16451401   172.85523473
 C     27  24  23     2.901315509267   111.84534724   306.10181100
 H     27  24  23     2.068629591976   108.88621696   182.51676589
 H     27  24  23     2.079630674965   109.20923504    66.06418524
 C     21  19  15     2.831249115455   122.79243106   177.68899485
 H     33  21  19     2.089579933636   106.29079727   124.25040310
 C     33  21  19     2.881917991295   121.00187182     2.04992447
 H     13   3   2     1.826586484806   107.54792590    62.68097515
 C     35  33  21     2.926220815160   103.56275120   196.46980612
 H     35  33  21     2.069330609361   112.13642355    74.48721900
 H     35  33  21     2.070492551688   110.74647048   314.85605193
 C     30  27  24     2.938422754123   116.08627377   166.20880661
 H     37  35  33     2.068399487728   111.71003647   249.06167648
 H     37  35  33     2.072613380055   110.45513586   130.55669970
 H     40  30  27     2.082371495335   106.45539484   320.66886157
 C     40  30  27     2.925580776575   118.82024099    81.02307169
 C     30  27  24     2.899569979975   111.16595250   294.33627715
 H     45  30  27     2.068018603475   111.42162903    66.59661731
 H     45  30  27     2.070139831882   110.72061219   306.47596207
 H     45  30  27     2.068475329686   111.63961460   186.56662428
 H     44  40  30     2.084701235596   106.74312335    62.02458523
 C     44  40  30     2.886850038810   113.50628562   303.06064565
 C     44  40  30     2.855782892896   108.75230415   176.49122869
 C     51  44  40     2.521100353435   126.49166806   115.90245955
 H     51  44  40     2.057941129527   114.79965793   296.99494494
 H     52  51  44     2.058988703778   118.82561940     0.75298716
 C     52  51  44     2.847398666464   126.32431495   180.56598117
 C     55  52  51     2.888032836076   114.04220589     8.03444986
 C     55  52  51     2.942044019364   111.76063851   240.32462598
 H     55  52  51     2.084886035027   106.46374888   126.06944480
 H     57  55  52     2.080065771502   105.76021328   180.68995614
 C     57  55  52     2.891307430905   112.80958899    62.69900590
 C     57  55  52     2.893727690612   112.04520129   297.55706791
 H     56  55  52     2.069831542114   110.96307086    58.84708387
 H     56  55  52     2.068903234330   112.08431330   298.46864073
 H     56  55  52     2.069966901635   110.11609483   178.49401400
 H     60  57  55     2.070583948986   110.35211358   178.62425313
 H     60  57  55     2.068427082901   112.23135631    58.47371218
 H     60  57  55     2.072122455812   110.53034442   297.94989383
 H     61  57  55     2.071260599440   111.38277706    70.13297096
 H     61  57  55     2.071535709693   111.42733167   309.35162791
 H     61  57  55     2.070406311235   110.40173438   189.31245470
 H     50  44  40     2.070231977941   110.63670544   186.60048612
 H     50  44  40     2.063037065117   111.08270453    67.17130576
 H     50  44  40     2.072034200298   111.36995257   306.79632345

---------------------
BASIS SET INFORMATION
---------------------
There are 3 groups of distinct atoms

 Group   1 Type C   : 7s4p1d contracted to 3s2p1d pattern {511/31/1}
 Group   2 Type H   : 4s1p contracted to 2s1p pattern {31/1}
 Group   3 Type O   : 7s4p1d contracted to 3s2p1d pattern {511/31/1}

Atom   0C    basis set group =>   1
Atom   1C    basis set group =>   1
Atom   2C    basis set group =>   1
Atom   3H    basis set group =>   2
Atom   4H    basis set group =>   2
Atom   5C    basis set group =>   1
Atom   6C    basis set group =>   1
Atom   7C    basis set group =>   1
Atom   8H    basis set group =>   2
Atom   9H    basis set group =>   2
Atom  10H    basis set group =>   2
Atom  11H    basis set group =>   2
Atom  12O    basis set group =>   3
Atom  13H    basis set group =>   2
Atom  14C    basis set group =>   1
Atom  15C    basis set group =>   1
Atom  16H    basis set group =>   2
Atom  17H    basis set group =>   2
Atom  18C    basis set group =>   1
Atom  19H    basis set group =>   2
Atom  20C    basis set group =>   1
Atom  21H    basis set group =>   2
Atom  22C    basis set group =>   1
Atom  23C    basis set group =>   1
Atom  24H    basis set group =>   2
Atom  25H    basis set group =>   2
Atom  26C    basis set group =>   1
Atom  27H    basis set group =>   2
Atom  28H    basis set group =>   2
Atom  29C    basis set group =>   1
Atom  30H    basis set group =>   2
Atom  31H    basis set group =>   2
Atom  32C    basis set group =>   1
Atom  33H    basis set group =>   2
Atom  34C    basis set group =>   1
Atom  35H    basis set group =>   2
Atom  36C    basis set group =>   1
Atom  37H    basis set group =>   2
Atom  38H    basis set group =>   2
Atom  39C    basis set group =>   1
Atom  40H    basis set group =>   2
Atom  41H    basis set group =>   2
Atom  42H    basis set group =>   2
Atom  43C    basis set group =>   1
Atom  44C    basis set group =>   1
Atom  45H    basis set group =>   2
Atom  46H    basis set group =>   2
Atom  47H    basis set group =>   2
Atom  48H    basis set group =>   2
Atom  49C    basis set group =>   1
Atom  50C    basis set group =>   1
Atom  51C    basis set group =>   1
Atom  52H    basis set group =>   2
Atom  53H    basis set group =>   2
Atom  54C    basis set group =>   1
Atom  55C    basis set group =>   1
Atom  56C    basis set group =>   1
Atom  57H    basis set group =>   2
Atom  58H    basis set group =>   2
Atom  59C    basis set group =>   1
Atom  60C    basis set group =>   1
Atom  61H    basis set group =>   2
Atom  62H    basis set group =>   2
Atom  63H    basis set group =>   2
Atom  64H    basis set group =>   2
Atom  65H    basis set group =>   2
Atom  66H    basis set group =>   2
Atom  67H    basis set group =>   2
Atom  68H    basis set group =>   2
Atom  69H    basis set group =>   2
Atom  70H    basis set group =>   2
Atom  71H    basis set group =>   2
Atom  72H    basis set group =>   2

-------------------------
BASIS SET IN INPUT FORMAT
-------------------------

 # Basis set for element : H 
 NewGTO H 
 S 3 
   1      13.0107010000      0.0334854848
   2       1.9622572000      0.2347218709
   3       0.4445379600      0.8137702853
 S 1 
   1       0.1219496200      1.0000000000
 P 1 
   1       0.8000000000      1.0000000000
  end;

 # Basis set for element : C 
 NewGTO C 
 S 5 
   1    1238.4016938000      0.0055173650
   2     186.2900499200      0.0410888285
   3      42.2511763460      0.1822538213
   4      11.6765579320      0.4682845944
   5       3.5930506482      0.4457581734
 S 1 
   1       0.4024514736      1.0000000000
 S 1 
   1       0.1309018267      1.0000000000
 P 3 
   1       9.4680970621      0.0568883320
   2       2.0103545142      0.3129405934
   3       0.5477100471      0.7606501651
 P 1 
   1       0.1526861379      1.0000000000
 D 1 
   1       0.8000000000      1.0000000000
  end;

 # Basis set for element : O 
 NewGTO O 
 S 5 
   1    2266.1767785000     -0.0053893504
   2     340.8701019100     -0.0402347214
   3      77.3631351670     -0.1800818421
   4      21.4796449400     -0.4682885766
   5       6.6589433124     -0.4469261716
 S 1 
   1       0.8097597567      1.0000000000
 S 1 
   1       0.2553077223      1.0000000000
 P 3 
   1      17.7215043170      0.0626302488
   2       3.8635505440      0.3333113849
   3       1.0480920883      0.7414863830
 P 1 
   1       0.2764154441      1.0000000000
 D 1 
   1       1.2000000000      1.0000000000
  end;

---------------------------------
AUXILIARY/J BASIS SET INFORMATION
---------------------------------
There are 3 groups of distinct atoms

 Group   1 Type C   : 12s5p4d2f1g contracted to 6s4p3d1f1g pattern {711111/2111/211/2/1}
 Group   2 Type H   : 5s2p1d contracted to 3s1p1d pattern {311/2/1}
 Group   3 Type O   : 12s5p4d2f1g contracted to 6s4p3d1f1g pattern {711111/2111/211/2/1}

Atom   0C    basis set group =>   1
Atom   1C    basis set group =>   1
Atom   2C    basis set group =>   1
Atom   3H    basis set group =>   2
Atom   4H    basis set group =>   2
Atom   5C    basis set group =>   1
Atom   6C    basis set group =>   1
Atom   7C    basis set group =>   1
Atom   8H    basis set group =>   2
Atom   9H    basis set group =>   2
Atom  10H    basis set group =>   2
Atom  11H    basis set group =>   2
Atom  12O    basis set group =>   3
Atom  13H    basis set group =>   2
Atom  14C    basis set group =>   1
Atom  15C    basis set group =>   1
Atom  16H    basis set group =>   2
Atom  17H    basis set group =>   2
Atom  18C    basis set group =>   1
Atom  19H    basis set group =>   2
Atom  20C    basis set group =>   1
Atom  21H    basis set group =>   2
Atom  22C    basis set group =>   1
Atom  23C    basis set group =>   1
Atom  24H    basis set group =>   2
Atom  25H    basis set group =>   2
Atom  26C    basis set group =>   1
Atom  27H    basis set group =>   2
Atom  28H    basis set group =>   2
Atom  29C    basis set group =>   1
Atom  30H    basis set group =>   2
Atom  31H    basis set group =>   2
Atom  32C    basis set group =>   1
Atom  33H    basis set group =>   2
Atom  34C    basis set group =>   1
Atom  35H    basis set group =>   2
Atom  36C    basis set group =>   1
Atom  37H    basis set group =>   2
Atom  38H    basis set group =>   2
Atom  39C    basis set group =>   1
Atom  40H    basis set group =>   2
Atom  41H    basis set group =>   2
Atom  42H    basis set group =>   2
Atom  43C    basis set group =>   1
Atom  44C    basis set group =>   1
Atom  45H    basis set group =>   2
Atom  46H    basis set group =>   2
Atom  47H    basis set group =>   2
Atom  48H    basis set group =>   2
Atom  49C    basis set group =>   1
Atom  50C    basis set group =>   1
Atom  51C    basis set group =>   1
Atom  52H    basis set group =>   2
Atom  53H    basis set group =>   2
Atom  54C    basis set group =>   1
Atom  55C    basis set group =>   1
Atom  56C    basis set group =>   1
Atom  57H    basis set group =>   2
Atom  58H    basis set group =>   2
Atom  59C    basis set group =>   1
Atom  60C    basis set group =>   1
Atom  61H    basis set group =>   2
Atom  62H    basis set group =>   2
Atom  63H    basis set group =>   2
Atom  64H    basis set group =>   2
Atom  65H    basis set group =>   2
Atom  66H    basis set group =>   2
Atom  67H    basis set group =>   2
Atom  68H    basis set group =>   2
Atom  69H    basis set group =>   2
Atom  70H    basis set group =>   2
Atom  71H    basis set group =>   2
Atom  72H    basis set group =>   2

-------------------------------------
AUXILIARY/J BASIS SET IN INPUT FORMAT
-------------------------------------

 # Auxiliary/J basis set for element : H 
 NewAuxJGTO H 
 S 3 
   1      15.6752927000      0.1007184237
   2       3.6063578000      0.3404257499
   3       1.2080016000      0.6491996172
 S 1 
   1       0.4726794000      1.0000000000
 S 1 
   1       0.2018100000      1.0000000000
 P 2 
   1       2.0281365000      0.5596620919
   2       0.5358730000      0.5596620919
 D 1 
   1       2.2165124000      1.0000000000
  end;

 # Auxiliary/J basis set for element : C 
 NewAuxJGTO C 
 S 7 
   1    1861.0916331000      0.0134602335
   2     642.9939764000      0.0299160374
   3     235.1105725000      0.1008649584
   4      90.7028894000      0.2370970548
   5      36.7794552000      0.3924037254
   6      15.6046273000      0.3195862154
   7       6.8907294000      0.0530104441
 S 1 
   1       3.1478850000     -1.0000000000
 S 1 
   1       1.4777287000      1.0000000000
 S 1 
   1       0.7076466000      1.0000000000
 S 1 
   1       0.3430122000      1.0000000000
 S 1 
   1       0.1669453000      1.0000000000
 P 2 
   1      13.5472892000     -0.6769313712
   2       5.4669419000     -0.3779500978
 P 1 
   1       2.1751721000      1.0000000000
 P 1 
   1       0.8582194000      1.0000000000
 P 1 
   1       0.3376720000      1.0000000000
 D 2 
   1       5.9287253000     -0.3533329857
   2       1.9809209000     -0.7456525731
 D 1 
   1       0.8055417000     -1.0000000000
 D 1 
   1       0.3531244000     -1.0000000000
 F 2 
   1       1.6755626000      0.6311076882
   2       0.5997536000      0.4968166032
 G 1 
   1       1.0024600000     -1.0000000000
  end;

 # Auxiliary/J basis set for element : O 
 NewAuxJGTO O 
 S 7 
   1    2876.8216605000      0.0168151159
   2    1004.7443032000      0.0340137548
   3     369.7579954000      0.1194951309
   4     142.9442404000      0.2664627624
   5      57.8366425000      0.4202764046
   6      24.3864983000      0.2765077335
   7      10.6622662000      0.0057008815
 S 1 
   1       4.8070437000     -1.0000000000
 S 1 
   1       2.2210770000      1.0000000000
 S 1 
   1       1.0447795000      1.0000000000
 S 1 
   1       0.4968425000      1.0000000000
 S 1 
   1       0.2371384000      1.0000000000
 P 2 
   1      64.2613382000     -0.2731534179
   2      16.3006076000     -0.8168011598
 P 1 
   1       4.3550542000      1.0000000000
 P 1 
   1       1.2019554000      1.0000000000
 P 1 
   1       0.3354196000      1.0000000000
 D 2 
   1       9.2146611000     -0.4661230638
   2       2.8435251000     -0.6600908911
 D 1 
   1       0.9955759000     -1.0000000000
 D 1 
   1       0.3649441000     -1.0000000000
 F 2 
   1       2.6420115000      0.5931563945
   2       0.7345613000      0.5931563945
 G 1 
   1       1.3931000000     -1.0000000000
  end;


Checking for AutoStart:
The File: inpS.gbw exists
Trying to determine its content:
     ... Fine, the file contains calculation information
     ... Fine, the calculation information was read
     ... Fine, the file contains a basis set
     ... Fine, the basis set was read
     ... Fine, the file contains a geometry
     ... Fine, the geometry was read
     ... Fine, the file contains a set of orbitals
     ... Fine, the orbitals can be read
     => possible old guess file was deleted
     => GBW file was renamed to GES file
     => GES file is set as startup file
     => Guess is set to MORead
     ... now leaving AutoStart



           ************************************************************
           *        Program running with 4 parallel MPI-processes     *
           *              working on a common directory               *
           ************************************************************
------------------------------------------------------------------------------
                             ORCA STARTUP CALCULATIONS
                           -- RI-GTO INTEGRALS CHOSEN --
------------------------------------------------------------------------------
------------------------------------------------------------------------------
                   ___                                                        
                  /   \      - P O W E R E D   B Y -                         
                 /     \                                                     
                 |  |  |   _    _      __       _____    __    __             
                 |  |  |  | |  | |    /  \     |  _  \  |  |  /  |          
                  \  \/   | |  | |   /    \    | | | |  |  | /  /          
                 / \  \   | |__| |  /  /\  \   | |_| |  |  |/  /          
                |  |  |   |  __  | /  /__\  \  |    /   |      \           
                |  |  |   | |  | | |   __   |  |    \   |  |\   \          
                \     /   | |  | | |  |  |  |  | |\  \  |  | \   \       
                 \___/    |_|  |_| |__|  |__|  |_| \__\ |__|  \__/        
                                                                              
                      - O R C A' S   B I G   F R I E N D -                    
                                      &                                       
                       - I N T E G R A L  F E E D E R -                       
                                                                              
 v1 FN, 2020, v2 2021, v3 2022-2024                                           
------------------------------------------------------------------------------


----------------------
SHARK INTEGRAL PACKAGE
----------------------

Number of atoms                             ...     73
Number of basis functions                   ...    626
Number of shells                            ...    306
Maximum angular momentum                    ...      2
Integral batch strategy                     ... SHARK/LIBINT Hybrid
RI-J (if used) integral strategy            ... SPLIT-RIJ (Revised 2003 algorithm where possible)
Printlevel                                  ...      1
Contraction scheme used                     ... SEGMENTED contraction
Prescreening option                         ... SCHWARTZ
   Thresh                                   ... 3.000e-11
   Tcut                                     ... 1.000e-12
   Tpresel                                  ... 1.000e-12 
Coulomb Range Separation                    ... NOT USED
Exchange Range Separation                   ... Long Range
   Mu parameter                             ... 3.000e-01
   Scaling (regular/separated)              ... 1.670e-01 8.330e-01
Multipole approximations                    ... NOT USED
Finite Nucleus Model                        ... NOT USED
CABS basis                                  ... NOT available
Auxiliary Coulomb fitting basis             ... AVAILABLE
   # of basis functions in Aux-J            ...   1905
   # of shells in Aux-J                     ...    655
   Maximum angular momentum in Aux-J        ...      4
Auxiliary J/K fitting basis                 ... NOT available
Auxiliary Correlation fitting basis         ... NOT available
Auxiliary 'external' fitting basis          ... NOT available

Checking pre-screening integrals            ... done (  0.0 sec) Dimension = 306
Check shell pair data                       ... done (  0.0 sec)
Shell pair information
Shell pair cut-off parameter TPreSel        ...   1.0e-12
Total number of shell pairs                 ...     46971
Shell pairs after pre-screening             ...     27179
Total number of primitive shell pairs       ...    162105
Primitive shell pairs kept                  ...     60018
          la=0 lb=0:   9514 shell pairs
          la=1 lb=0:  10433 shell pairs
          la=1 lb=1:   2867 shell pairs
          la=2 lb=0:   2709 shell pairs
          la=2 lb=1:   1462 shell pairs
          la=2 lb=2:    194 shell pairs

Calculating one electron integrals          ... done (  0.1 sec)
Calculating RI/J V-Matrix + Cholesky decomp.... done (  0.2 sec)
Calculating Nuclear repulsion               ... done (  0.0 sec) ENN=   2755.532495689805 Eh

Diagonalization of the overlap matrix:
Smallest eigenvalue                        ... 4.412e-04
Time for diagonalization                   ...    0.047 sec
Threshold for overlap eigenvalues          ... 1.000e-07
Number of eigenvalues below threshold      ... 0
Time for construction of square roots      ...    0.027 sec
Total time needed                          ...    0.077 sec

-------------------
DFT GRID GENERATION
-------------------

General Integration Accuracy     IntAcc      ... 4.388
Radial Grid Type                 RadialGrid  ... OptM3 with GC (2021)
Angular Grid (max. ang.)         AngularGrid ... 4 (Lebedev-302)
Angular grid pruning method      GridPruning ... 4 (adaptive)
Weight generation scheme         WeightScheme... mBecke (2022)
Basis function cutoff            BFCut       ... 1.0000e-11
Integration weight cutoff        WCut        ... 1.0000e-14
Partially contracted basis set               ... off
Rotationally invariant grid construction     ... off
Angular grids for H and He will be reduced by one unit

Total number of grid points                  ...   309900
Total number of batches                      ...     4877
Average number of points per batch           ...       63
Average number of grid points per atom       ...     4245

--------------------
COSX GRID GENERATION
--------------------

GRIDX 1
-------
General Integration Accuracy     IntAcc      ... 3.816
Radial Grid Type                 RadialGrid  ... OptM3 with GC (2021)
Angular Grid (max. ang.)         AngularGrid ... 1 (Lebedev-50)
Angular grid pruning method      GridPruning ... 4 (adaptive)
Weight generation scheme         WeightScheme... mBecke (2022)
Basis function cutoff            BFCut       ... 1.0000e-11
Integration weight cutoff        WCut        ... 1.0000e-14
Partially contracted basis set               ... on
Rotationally invariant grid construction     ... off
Angular grids for H and He will be reduced by one unit

Total number of grid points                  ...    39432
Total number of batches                      ...      355
Average number of points per batch           ...      111
Average number of grid points per atom       ...      540
UseSFitting                                  ... on

GRIDX 2
-------
General Integration Accuracy     IntAcc      ... 4.020
Radial Grid Type                 RadialGrid  ... OptM3 with GC (2021)
Angular Grid (max. ang.)         AngularGrid ... 2 (Lebedev-110)
Angular grid pruning method      GridPruning ... 4 (adaptive)
Weight generation scheme         WeightScheme... mBecke (2022)
Basis function cutoff            BFCut       ... 1.0000e-11
Integration weight cutoff        WCut        ... 1.0000e-14
Partially contracted basis set               ... on
Rotationally invariant grid construction     ... off
Angular grids for H and He will be reduced by one unit

Total number of grid points                  ...    81482
Total number of batches                      ...      677
Average number of points per batch           ...      120
Average number of grid points per atom       ...     1116
UseSFitting                                  ... on

GRIDX 3
-------
General Integration Accuracy     IntAcc      ... 4.338
Radial Grid Type                 RadialGrid  ... OptM3 with GC (2021)
Angular Grid (max. ang.)         AngularGrid ... 3 (Lebedev-194)
Angular grid pruning method      GridPruning ... 4 (adaptive)
Weight generation scheme         WeightScheme... mBecke (2022)
Basis function cutoff            BFCut       ... 1.0000e-11
Integration weight cutoff        WCut        ... 1.0000e-14
Partially contracted basis set               ... on
Rotationally invariant grid construction     ... off
Angular grids for H and He will be reduced by one unit

Total number of grid points                  ...   176375
Total number of batches                      ...     1419
Average number of points per batch           ...      124
Average number of grid points per atom       ...     2416
UseSFitting                                  ... on
Initializing property integral containers    ... done (  0.0 sec)

SHARK setup successfully completed in   4.6 seconds

Maximum memory used throughout the entire STARTUP-calculation: 95.1 MB


           ************************************************************
           *        Program running with 4 parallel MPI-processes     *
           *              working on a common directory               *
           ************************************************************
-------------------------------------------------------------------------------
                                 ORCA GUESS
                   Start orbitals & Density for SCF / CASSCF
-------------------------------------------------------------------------------

------------
SCF SETTINGS
------------
Hamiltonian:
 Density Functional     Method          .... DFT(GTOs)
 Exchange Functional    Exchange        .... WB97X-V
 Correlation Functional Correlation     .... WB97X-V
 Gradients option       PostSCFGGA      .... off
 Hybrid DFT is turned on
   Fraction HF Exchange ScalHFX         ....  0.167000
   Scaling of DF-GGA-X  ScalDFX         ....  0.000000
   Scaling of DF-GGA-C  ScalDFC         ....  1.000000
   Scaling of DF-LDA-C  ScalLDAC        ....  1.000000
   Perturbative correction              ....  0.000000
 Long-range corrected/Screened/Range-Separated Hybrid DFT is turned on
   Amount of maximum screened exact exchange              ....  0.833000
   Range separation parameter mu (erf(mu*r12)/r12)        ....  0.300000
 RI-approximation to the Coulomb term is turned on
   Number of AuxJ basis functions       .... 1905
   RIJ-COSX (HFX calculated with COS-X)).... on


General Settings:
 Integral files         IntName         .... inpS
 Hartree-Fock type      HFTyp           .... RHF
 Total Charge           Charge          ....    0
 Multiplicity           Mult            ....    1
 Number of Electrons    NEL             ....  220
 Basis Dimension        Dim             ....  626
 Nuclear Repulsion      ENuc            ....   2755.5324956898 Eh

Convergence Acceleration:
 AO-DIIS                CNVDIIS         .... on
   Start iteration      DIISMaxIt       ....    12
   Startup error        DIISStart       ....  0.200000
   # of expansion vecs  DIISMaxEq       ....     5
   Bias factor          DIISBfac        ....   1.050
   Max. coefficient     DIISMaxC        ....  10.000
 MO-DIIS                CNVKDIIS        .... off
 Trust-Rad. Augm. Hess. CNVTRAH         .... auto
   Auto Start mean grad. ratio tolernc. ....  1.125000
   Auto Start start iteration           ....     1
   Auto Start num. interpolation iter.  ....    10
   Max. Number of Micro iterations      ....    24
   Max. Number of Macro iterations      .... Maxiter - #DIIS iter
   Number of Davidson start vectors     ....     2
   Converg. threshold    (grad. norm)   ....   1.000e-04
   Grad. Scal. Fac. for Micro threshold ....   0.100
   Minimum threshold for Micro iter.    ....   1.000e-02
   NR start threshold (gradient norm)   ....   1.000e-04
   Initial trust radius                 ....   0.400
   Minimum AH scaling param. (alpha)    ....   1.000
   Maximum AH scaling param. (alpha)    .... 1000.000
   Quad. conv. algorithm                .... NR
   White noise on init. David. guess    .... on
   Maximum white noise                  ....   0.010
   Pseudo random numbers                .... off
   Inactive MOs                         .... canonical
   Orbital update algorithm             .... Taylor
   Preconditioner                       .... Diag
   Full preconditioner red. dimension   ....   250
 SOSCF                  CNVSOSCF        .... off
 Level Shifting         CNVShift        .... on
   Level shift para.    LevelShift      ....    0.2500
   Turn off err/grad.   ShiftErr        ....    0.0010
 Zerner damping         CNVZerner       .... off
 Static damping         CNVDamp         .... on
   Fraction old density DampFac         ....    0.7000
   Max. Damping (<1)    DampMax         ....    0.9800
   Min. Damping (>=0)   DampMin         ....    0.0000
   Turn off err/grad.   DampErr         ....    0.1000

SCF Procedure:
 Maximum # iterations   MaxIter         ....   125
 SCF integral mode      SCFMode         .... Direct
   Integral package                     .... SHARK and LIBINT hybrid scheme
 Reset frequency        DirectResetFreq ....    20
 Integral Threshold     Thresh          ....  3.000e-11 Eh
 Primitive CutOff       TCut            ....  1.000e-12 Eh

Convergence Tolerance:
 Convergence Check Mode ConvCheckMode   .... Total+1el-Energy
 Convergence forced     ConvForced      .... 0
 Energy Change          TolE            ....  1.000e-07 Eh
 1-El. energy change                    ....  1.000e-04 Eh
 DIIS Error             TolErr          ....  1.000e-07

---------------------
INITIAL GUESS: MOREAD
---------------------
Guess MOs are being read from file: inpS.ges
Input Geometry matches current geometry (good)
Input basis set matches current basis set (good)
Occupation numbers will be reassigned to an Aufbau configuration
MOs were renormalized
MOs were reorthogonalized (Cholesky)
                      ------------------
                      INITIAL GUESS DONE (   0.2 sec)
                      ------------------
             **** ENERGY FILE WAS UPDATED (inpS.en.tmp) ****
Finished Guess after   0.4 sec
Maximum memory used throughout the entire GUESS-calculation: 52.0 MB


           ************************************************************
           *        Program running with 4 parallel MPI-processes     *
           *              working on a common directory               *
           ************************************************************

-------------------------------------------------------------------------------------------
                                      ORCA LEAN-SCF
                              memory conserving SCF solver
-------------------------------------------------------------------------------------------

--------------------
CPCM SOLVATION MODEL
--------------------
CPCM parameters:
  Epsilon                                         ...       4.8030
  Refrac                                          ...       1.4459
  Rsolv                                           ...       1.3000
  Surface type                                    ... GAUSSIAN VDW
  Discretization scheme                           ... Constant charge density
    Threshold for H atoms                         ...       5.0000 (charges/Ang^2)
    Threshold for non-H atoms                     ...       5.0000 (charges/Ang^2)
  Epsilon function type                           ...         CPCM
Solvent:                                          ... CHLOROFORM
Radii:
  Scheme                                          ... Element-dependent radii
  Radius for C  used is    3.8550 Bohr (=   2.0400 Ang.)
  Radius for H  used is    2.4944 Bohr (=   1.3200 Ang.)
  Radius for O  used is    3.4469 Bohr (=   1.8240 Ang.)
Calculating surface                               ...        done! (  0.0s)
Cavity surface points                             ...         5421
Cavity Volume                                     ...    3614.8411
Cavity Surface-area                               ...    1799.0141
Calculating surface distance matrix               ...        done! (  0.2s)
Performing Cholesky decomposition & store         ...        done! (  1.0s)
Overall time for CPCM initialization              ...                 1.2s

----------------------------------------D-I-I-S--------------------------------------------
Iteration    Energy (Eh)           Delta-E    RMSDP     MaxDP     DIISErr   Damp  Time(sec)
-------------------------------------------------------------------------------------------
               ***  Starting incremental Fock matrix formation  ***
    1    -1168.3615748132228873     0.00e+00  3.15e-08  1.77e-06  6.28e-06  0.700  23.5

  HOMO= 109 E= -7.884 eV LUMO=  8.093 eV gap=  15.977 eV
    2    -1168.3615748018301019     1.14e-08  2.71e-08  1.29e-06  3.16e-06  0.700   4.7
                 **** Energy Check signals convergence ****

  HOMO= 109 E= -7.884 eV LUMO=  8.093 eV gap=  15.977 eV

               *****************************************************
               *                     SUCCESS                       *
               *           SCF CONVERGED AFTER   2 CYCLES          *
               *****************************************************

Recomputing exchange energy using gridx3       ... done (   40.360 sec)
Old exchange energy                            :    -56.783130742 Eh
New exchange energy                            :    -56.783142673 Eh
Exchange energy change after final integration :     -0.000011931 Eh
Total energy after final integration           :  -1168.361586733 Eh
             **** ENERGY FILE WAS UPDATED (inpS.en.tmp) ****

----------------
TOTAL SCF ENERGY
----------------

Total Energy       :      -1168.36158673275736 Eh          -31792.73509 eV

Components:
Nuclear Repulsion  :       2755.53249568980482 Eh           74981.85121 eV
Electronic Energy  :      -3923.88341442752017 Eh         -106774.29601 eV
One Electron Energy:      -7056.36172230037027 Eh         -192013.36423 eV
Two Electron Energy:       3132.47830787285011 Eh           85239.06823 eV
CPCM Dielectric    :         -0.01065606411453 Eh              -0.28997 eV

Virial components:
Potential Energy   :      -2321.68004300164648 Eh          -63176.12578 eV
Kinetic Energy     :       1153.31845626888912 Eh           31383.39070 eV
Virial Ratio       :          2.01304334495135

DFT components:
N(Alpha)           :      110.000173629268 electrons
N(Beta)            :      110.000173629268 electrons
N(Total)           :      220.000347258535 electrons
E(X)               :     -111.771411410762 Eh       
E(C)               :       -8.951709850850 Eh       
E(XC)              :     -120.723121261612 Eh       

CPCM Solvation Model Properties:
Surface-charge          :         -0.04171887849882
Corrected charge        :          0.00000000000000
Outlying charge corr.   :          0.00006050861303 Eh               0.00165 eV
Free-energy (cav+disp)  :  This term is not implemented in the current solvation scheme

---------------
SCF CONVERGENCE
---------------

  Last Energy change         ...   -1.1393e-08  Tolerance :   1.0000e-07
  Last MAX-Density change    ...    1.2941e-06  Tolerance :   1.0000e-05
  Last RMS-Density change    ...    2.7101e-08  Tolerance :   1.0000e-06
  Last DIIS Error            ...    3.1617e-06  Tolerance :   1.0000e-07


----------------
ORBITAL ENERGIES
----------------

  NO   OCC          E(Eh)            E(eV) 
   0   2.0000     -19.213712      -522.8317 
   1   2.0000     -10.329792      -281.0879 
   2   2.0000     -10.293496      -280.1003 
   3   2.0000     -10.290266      -280.0124 
   4   2.0000     -10.286198      -279.9017 
   5   2.0000     -10.286119      -279.8995 
   6   2.0000     -10.285155      -279.8733 
   7   2.0000     -10.283004      -279.8148 
   8   2.0000     -10.282075      -279.7895 
   9   2.0000     -10.282017      -279.7879 
  10   2.0000     -10.281489      -279.7735 
  11   2.0000     -10.280836      -279.7558 
  12   2.0000     -10.279460      -279.7183 
  13   2.0000     -10.278621      -279.6955 
  14   2.0000     -10.278437      -279.6905 
  15   2.0000     -10.277080      -279.6536 
  16   2.0000     -10.276766      -279.6450 
  17   2.0000     -10.276524      -279.6384 
  18   2.0000     -10.272293      -279.5233 
  19   2.0000     -10.271966      -279.5144 
  20   2.0000     -10.271695      -279.5070 
  21   2.0000     -10.271618      -279.5049 
  22   2.0000     -10.271473      -279.5010 
  23   2.0000     -10.270928      -279.4862 
  24   2.0000     -10.268544      -279.4213 
  25   2.0000     -10.268385      -279.4170 
  26   2.0000     -10.268046      -279.4077 
  27   2.0000     -10.267073      -279.3813 
  28   2.0000     -10.266425      -279.3636 
  29   2.0000      -1.131672       -30.7944 
  30   2.0000      -0.998282       -27.1646 
  31   2.0000      -0.979191       -26.6451 
  32   2.0000      -0.957252       -26.0481 
  33   2.0000      -0.942534       -25.6477 
  34   2.0000      -0.917274       -24.9603 
  35   2.0000      -0.910811       -24.7844 
  36   2.0000      -0.889477       -24.2039 
  37   2.0000      -0.887199       -24.1419 
  38   2.0000      -0.871995       -23.7282 
  39   2.0000      -0.853206       -23.2169 
  40   2.0000      -0.834282       -22.7020 
  41   2.0000      -0.824767       -22.4431 
  42   2.0000      -0.809217       -22.0199 
  43   2.0000      -0.800857       -21.7924 
  44   2.0000      -0.795311       -21.6415 
  45   2.0000      -0.787141       -21.4192 
  46   2.0000      -0.761811       -20.7299 
  47   2.0000      -0.757718       -20.6186 
  48   2.0000      -0.728887       -19.8340 
  49   2.0000      -0.713210       -19.4074 
  50   2.0000      -0.712276       -19.3820 
  51   2.0000      -0.702012       -19.1027 
  52   2.0000      -0.690004       -18.7760 
  53   2.0000      -0.673229       -18.3195 
  54   2.0000      -0.647636       -17.6231 
  55   2.0000      -0.632170       -17.2022 
  56   2.0000      -0.623136       -16.9564 
  57   2.0000      -0.620324       -16.8799 
  58   2.0000      -0.605023       -16.4635 
  59   2.0000      -0.601913       -16.3789 
  60   2.0000      -0.590967       -16.0810 
  61   2.0000      -0.584848       -15.9145 
  62   2.0000      -0.575005       -15.6467 
  63   2.0000      -0.567987       -15.4557 
  64   2.0000      -0.563701       -15.3391 
  65   2.0000      -0.558971       -15.2104 
  66   2.0000      -0.557296       -15.1648 
  67   2.0000      -0.547663       -14.9027 
  68   2.0000      -0.546514       -14.8714 
  69   2.0000      -0.542237       -14.7550 
  70   2.0000      -0.537679       -14.6310 
  71   2.0000      -0.532895       -14.5008 
  72   2.0000      -0.526487       -14.3264 
  73   2.0000      -0.520475       -14.1629 
  74   2.0000      -0.518246       -14.1022 
  75   2.0000      -0.516281       -14.0487 
  76   2.0000      -0.505508       -13.7556 
  77   2.0000      -0.501751       -13.6533 
  78   2.0000      -0.497534       -13.5386 
  79   2.0000      -0.492133       -13.3916 
  80   2.0000      -0.489090       -13.3088 
  81   2.0000      -0.487248       -13.2587 
  82   2.0000      -0.483645       -13.1606 
  83   2.0000      -0.478711       -13.0264 
  84   2.0000      -0.473496       -12.8845 
  85   2.0000      -0.466744       -12.7007 
  86   2.0000      -0.462456       -12.5841 
  87   2.0000      -0.457907       -12.4603 
  88   2.0000      -0.456669       -12.4266 
  89   2.0000      -0.453281       -12.3344 
  90   2.0000      -0.448089       -12.1931 
  91   2.0000      -0.445767       -12.1299 
  92   2.0000      -0.439599       -11.9621 
  93   2.0000      -0.431679       -11.7466 
  94   2.0000      -0.426290       -11.5999 
  95   2.0000      -0.424948       -11.5634 
  96   2.0000      -0.422401       -11.4941 
  97   2.0000      -0.420963       -11.4550 
  98   2.0000      -0.415687       -11.3114 
  99   2.0000      -0.414162       -11.2699 
 100   2.0000      -0.410317       -11.1653 
 101   2.0000      -0.407899       -11.0995 
 102   2.0000      -0.405145       -11.0245 
 103   2.0000      -0.400436       -10.8964 
 104   2.0000      -0.394574       -10.7369 
 105   2.0000      -0.382029       -10.3955 
 106   2.0000      -0.372281       -10.1303 
 107   2.0000      -0.357088        -9.7168 
 108   2.0000      -0.335272        -9.1232 
 109   2.0000      -0.289743        -7.8843 
 110   0.0000       0.047412         1.2902 
 111   0.0000       0.100479         2.7342 
 112   0.0000       0.109798         2.9877 
 113   0.0000       0.134398         3.6572 
 114   0.0000       0.146224         3.9790 
 115   0.0000       0.147158         4.0044 
 116   0.0000       0.150679         4.1002 
 117   0.0000       0.156294         4.2530 
 118   0.0000       0.157714         4.2916 
 119   0.0000       0.158897         4.3238 
 120   0.0000       0.168232         4.5778 
*Only the first 10 virtual orbitals were printed.

                    ********************************
                    * MULLIKEN POPULATION ANALYSIS *
                    ********************************

-----------------------
MULLIKEN ATOMIC CHARGES
-----------------------
   0 C :   -0.127267
   1 C :    0.144134
   2 C :    0.081578
   3 H :    0.016702
   4 H :    0.013270
   5 C :   -0.184648
   6 C :    0.111103
   7 C :    0.006792
   8 H :    0.029798
   9 H :    0.012238
  10 H :    0.023563
  11 H :    0.011371
  12 O :   -0.355140
  13 H :    0.014174
  14 C :   -0.024533
  15 C :   -0.044338
  16 H :    0.036299
  17 H :    0.029223
  18 C :   -0.060302
  19 H :   -0.006997
  20 C :   -0.116192
  21 H :    0.000816
  22 C :    0.115248
  23 C :   -0.001668
  24 H :    0.012744
  25 H :    0.017589
  26 C :    0.106631
  27 H :    0.012607
  28 H :    0.015016
  29 C :   -0.405601
  30 H :    0.008497
  31 H :   -0.002422
  32 C :   -0.045053
  33 H :    0.011890
  34 C :    0.123334
  35 H :    0.181698
  36 C :    0.045265
  37 H :    0.007391
  38 H :    0.015650
  39 C :   -0.053772
  40 H :    0.013763
  41 H :    0.011345
  42 H :   -0.010082
  43 C :   -0.003034
  44 C :    0.092487
  45 H :    0.023668
  46 H :    0.018804
  47 H :    0.019388
  48 H :    0.002898
  49 C :    0.060597
  50 C :   -0.082915
  51 C :   -0.087373
  52 H :    0.013225
  53 H :    0.009830
  54 C :   -0.055864
  55 C :    0.049869
  56 C :   -0.166970
  57 H :    0.013274
  58 H :    0.012003
  59 C :    0.022163
  60 C :    0.027470
  61 H :    0.020844
  62 H :    0.026019
  63 H :    0.016107
  64 H :    0.017723
  65 H :    0.018996
  66 H :    0.016278
  67 H :    0.020039
  68 H :    0.016573
  69 H :    0.019279
  70 H :    0.020072
  71 H :    0.028467
  72 H :    0.018370
Sum of atomic charges:    0.0000000

--------------------------------
MULLIKEN REDUCED ORBITAL CHARGES
--------------------------------
  0 C s       :     3.077963  s :     3.077963
      pz      :     1.004173  p :     3.006458
      px      :     0.999018
      py      :     1.003267
      dz2     :     0.003201  d :     0.042845
      dxz     :     0.006996
      dyz     :     0.006105
      dx2y2   :     0.014734
      dxy     :     0.011809

  1 C s       :     2.932415  s :     2.932415
      pz      :     0.980676  p :     2.889009
      px      :     0.940830
      py      :     0.967503
      dz2     :     0.006985  d :     0.034442
      dxz     :     0.009194
      dyz     :     0.004811
      dx2y2   :     0.009066
      dxy     :     0.004386

  2 C s       :     3.075235  s :     3.075235
      pz      :     1.041075  p :     2.772023
      px      :     0.756390
      py      :     0.974557
      dz2     :     0.011655  d :     0.071165
      dxz     :     0.016043
      dyz     :     0.009311
      dx2y2   :     0.019439
      dxy     :     0.014717

  3 H s       :     0.960108  s :     0.960108
      pz      :     0.010786  p :     0.023191
      px      :     0.007666
      py      :     0.004738

  4 H s       :     0.963940  s :     0.963940
      pz      :     0.004301  p :     0.022791
      px      :     0.003810
      py      :     0.014680

  5 C s       :     3.111906  s :     3.111906
      pz      :     1.004569  p :     3.027948
      px      :     0.974598
      py      :     1.048781
      dz2     :     0.011245  d :     0.044793
      dxz     :     0.006665
      dyz     :     0.011942
      dx2y2   :     0.008337
      dxy     :     0.006603

  6 C s       :     2.949008  s :     2.949008
      pz      :     0.974636  p :     2.904417
      px      :     0.966417
      py      :     0.963364
      dz2     :     0.006895  d :     0.035472
      dxz     :     0.009392
      dyz     :     0.005098
      dx2y2   :     0.009252
      dxy     :     0.004837

  7 C s       :     3.012974  s :     3.012974
      pz      :     0.990477  p :     2.945214
      px      :     0.988008
      py      :     0.966729
      dz2     :     0.005284  d :     0.035020
      dxz     :     0.008233
      dyz     :     0.006732
      dx2y2   :     0.009677
      dxy     :     0.005093

  8 H s       :     0.946912  s :     0.946912
      pz      :     0.011403  p :     0.023290
      px      :     0.007216
      py      :     0.004671

  9 H s       :     0.964941  s :     0.964941
      pz      :     0.004532  p :     0.022821
      px      :     0.003741
      py      :     0.014547

 10 H s       :     0.953744  s :     0.953744
      pz      :     0.011241  p :     0.022693
      px      :     0.005082
      py      :     0.006370

 11 H s       :     0.965937  s :     0.965937
      pz      :     0.010909  p :     0.022692
      px      :     0.007228
      py      :     0.004555

 12 O s       :     3.726311  s :     3.726311
      pz      :     1.536623  p :     4.616623
      px      :     1.245752
      py      :     1.834248
      dz2     :     0.002557  d :     0.012207
      dxz     :     0.004163
      dyz     :     0.001617
      dx2y2   :     0.001832
      dxy     :     0.002038

 13 H s       :     0.965606  s :     0.965606
      pz      :     0.011066  p :     0.020220
      px      :     0.004984
      py      :     0.004170

 14 C s       :     3.197118  s :     3.197118
      pz      :     0.988983  p :     2.791176
      px      :     0.887000
      py      :     0.915193
      dz2     :     0.002740  d :     0.036239
      dxz     :     0.007560
      dyz     :     0.003337
      dx2y2   :     0.012147
      dxy     :     0.010456

 15 C s       :     3.122647  s :     3.122647
      pz      :     0.977313  p :     2.895442
      px      :     1.001326
      py      :     0.916803
      dz2     :     0.007180  d :     0.026249
      dxz     :     0.004218
      dyz     :     0.007092
      dx2y2   :     0.004834
      dxy     :     0.002926

 16 H s       :     0.939153  s :     0.939153
      pz      :     0.010803  p :     0.024549
      px      :     0.006097
      py      :     0.007650

 17 H s       :     0.946150  s :     0.946150
      pz      :     0.004058  p :     0.024627
      px      :     0.004687
      py      :     0.015882

 18 C s       :     3.200794  s :     3.200794
      pz      :     1.029119  p :     2.824200
      px      :     0.876771
      py      :     0.918310
      dz2     :     0.002822  d :     0.035308
      dxz     :     0.006968
      dyz     :     0.003159
      dx2y2   :     0.012381
      dxy     :     0.009978

 19 H s       :     0.982677  s :     0.982677
      pz      :     0.004673  p :     0.024321
      px      :     0.004421
      py      :     0.015227

 20 C s       :     3.099956  s :     3.099956
      pz      :     0.955937  p :     2.972224
      px      :     0.992747
      py      :     1.023540
      dz2     :     0.003473  d :     0.044012
      dxz     :     0.007144
      dyz     :     0.006962
      dx2y2   :     0.014720
      dxy     :     0.011713

 21 H s       :     0.974645  s :     0.974645
      pz      :     0.004629  p :     0.024539
      px      :     0.004334
      py      :     0.015576

 22 C s       :     2.924227  s :     2.924227
      pz      :     1.001750  p :     2.924953
      px      :     0.975773
      py      :     0.947431
      dz2     :     0.009382  d :     0.035571
      dxz     :     0.004225
      dyz     :     0.006148
      dx2y2   :     0.009922
      dxy     :     0.005896

 23 C s       :     3.001800  s :     3.001800
      pz      :     1.009310  p :     2.963419
      px      :     0.968545
      py      :     0.985564
      dz2     :     0.009590  d :     0.036449
      dxz     :     0.007881
      dyz     :     0.003219
      dx2y2   :     0.010241
      dxy     :     0.005517

 24 H s       :     0.964013  s :     0.964013
      pz      :     0.004691  p :     0.023242
      px      :     0.013960
      py      :     0.004591

 25 H s       :     0.959102  s :     0.959102
      pz      :     0.013366  p :     0.023310
      px      :     0.004994
      py      :     0.004950

 26 C s       :     2.970257  s :     2.970257
      pz      :     0.968219  p :     2.887786
      px      :     0.974135
      py      :     0.945432
      dz2     :     0.006674  d :     0.035326
      dxz     :     0.006740
      dyz     :     0.005905
      dx2y2   :     0.008761
      dxy     :     0.007246

 27 H s       :     0.964517  s :     0.964517
      pz      :     0.013365  p :     0.022876
      px      :     0.004654
      py      :     0.004857

 28 H s       :     0.962341  s :     0.962341
      pz      :     0.004591  p :     0.022644
      px      :     0.003829
      py      :     0.014224

 29 C s       :     3.254160  s :     3.254160
      pz      :     1.042350  p :     3.100513
      px      :     1.000852
      py      :     1.057312
      dz2     :     0.011639  d :     0.050927
      dxz     :     0.010253
      dyz     :     0.009537
      dx2y2   :     0.010985
      dxy     :     0.008513

 30 H s       :     0.968423  s :     0.968423
      pz      :     0.009477  p :     0.023080
      px      :     0.007297
      py      :     0.006307

 31 H s       :     0.979877  s :     0.979877
      pz      :     0.012848  p :     0.022545
      px      :     0.005101
      py      :     0.004595

 32 C s       :     3.032710  s :     3.032710
      pz      :     0.985483  p :     2.968519
      px      :     0.951739
      py      :     1.031296
      dz2     :     0.008369  d :     0.043824
      dxz     :     0.007521
      dyz     :     0.008051
      dx2y2   :     0.011100
      dxy     :     0.008784

 33 H s       :     0.966829  s :     0.966829
      pz      :     0.012034  p :     0.021281
      px      :     0.004369
      py      :     0.004878

 34 C s       :     2.893794  s :     2.893794
      pz      :     0.987894  p :     2.948020
      px      :     0.975862
      py      :     0.984264
      dz2     :     0.005508  d :     0.034852
      dxz     :     0.005832
      dyz     :     0.008236
      dx2y2   :     0.008809
      dxy     :     0.006466

 35 H s       :     0.750175  s :     0.750175
[...]
 Total          141.530          174.407          191.131  iso=     169.023

 Orientation: 
  X           0.3020750   -0.5806301    0.7560551
  Y          -0.1465530   -0.8119629   -0.5650119
  Z           0.9419516    0.0598738   -0.3303668

 --------------
 Nucleus  39C :
 --------------

Diamagnetic contribution to the shielding tensor (ppm) : 
           264.040          4.728        -7.272
             5.260        259.093         2.713
            -5.735          1.501       265.061

Paramagnetic contribution to the shielding tensor (ppm): 
           -98.168         -2.245         6.850
             1.803       -128.126         1.803
             9.666         -0.366      -138.790

Total shielding tensor (ppm): 
           165.872          2.484        -0.423
             7.063        130.967         4.516
             3.930          1.135       126.271


 Diagonalized sT*s matrix:
 
 sDSO           262.008          261.527          264.658  iso=     262.731
 sPSO          -137.067         -129.979          -98.038  iso=    -121.694
        ---------------  ---------------  ---------------
 Total          124.941          131.549          166.621  iso=     141.037

 Orientation: 
  X           0.0148599   -0.1357279   -0.9906347
  Y          -0.4392441    0.8891429   -0.1284113
  Z           0.8982448    0.4370387   -0.0464051

 --------------
 Nucleus  43C :
 --------------

Diamagnetic contribution to the shielding tensor (ppm) : 
           257.604         -0.759        -5.572
            -0.637        246.718         7.024
            -5.336         -0.194       253.049

Paramagnetic contribution to the shielding tensor (ppm): 
           -94.476         -1.463        -2.884
             3.355        -90.004        -5.225
            -2.271          4.484       -90.636

Total shielding tensor (ppm): 
           163.127         -2.223        -8.457
             2.718        156.713         1.799
            -7.607          4.289       162.413


 Diagonalized sT*s matrix:
 
 sDSO           246.549          249.499          261.322  iso=     252.457
 sPSO           -93.463          -91.405          -90.248  iso=     -91.706
        ---------------  ---------------  ---------------
 Total          153.086          158.094          171.074  iso=     160.751

 Orientation: 
  X          -0.5192112    0.4896388   -0.7004810
  Y           0.5691374    0.8095330    0.1440100
  Z          -0.6375754    0.3238983    0.6989904

 --------------
 Nucleus  44C :
 --------------

Diamagnetic contribution to the shielding tensor (ppm) : 
           250.854          1.056         2.269
            -0.153        255.412        -4.311
             0.644         -1.019       273.140

Paramagnetic contribution to the shielding tensor (ppm): 
           -71.530         -5.465        -2.482
            -2.523        -74.978         1.144
            -0.539         -2.278       -80.014

Total shielding tensor (ppm): 
           179.324         -4.409        -0.212
            -2.676        180.435        -3.167
             0.105         -3.296       193.126


 Diagonalized sT*s matrix:
 
 sDSO           253.553          252.444          273.410  iso=     259.802
 sPSO           -77.540          -69.517          -79.464  iso=     -75.507
        ---------------  ---------------  ---------------
 Total          176.013          182.927          193.945  iso=     184.295

 Orientation: 
  X           0.7270157   -0.6843374    0.0559505
  Y           0.6742563    0.6961550   -0.2464683
  Z           0.1297172    0.2169113    0.9675345

 --------------
 Nucleus  49C :
 --------------

Diamagnetic contribution to the shielding tensor (ppm) : 
           243.583         -4.536        -1.659
           -13.382        255.827         7.896
            -7.272          4.125       252.113

Paramagnetic contribution to the shielding tensor (ppm): 
           -64.380          2.806        -4.288
            10.871        -72.944        -3.286
             0.123         -0.420       -75.427

Total shielding tensor (ppm): 
           179.203         -1.729        -5.947
            -2.511        182.883         4.611
            -7.149          3.705       176.686


 Diagonalized sT*s matrix:
 
 sDSO           245.342          242.040          264.141  iso=     250.508
 sPSO           -74.390          -62.419          -75.942  iso=     -70.917
        ---------------  ---------------  ---------------
 Total          170.951          179.621          188.199  iso=     179.591

 Orientation: 
  X           0.5836141   -0.6006969    0.5464044
  Y          -0.1727831   -0.7493395   -0.6392467
  Z           0.7934359    0.2786640   -0.5411154

 --------------
 Nucleus  50C :
 --------------

Diamagnetic contribution to the shielding tensor (ppm) : 
           275.364         -2.163        10.337
             4.763        266.243        -5.447
            13.479         -5.245       253.721

Paramagnetic contribution to the shielding tensor (ppm): 
          -196.170        -15.384       -58.602
           -15.278       -300.265       -40.694
           -54.280        -40.391      -114.803

Total shielding tensor (ppm): 
            79.194        -17.547       -48.266
           -10.515        -34.022       -46.141
           -40.801        -45.636       138.918


 Diagonalized sT*s matrix:
 
 sDSO           267.305          277.479          250.543  iso=     265.109
 sPSO          -311.952         -217.268          -82.018  iso=    -203.746
        ---------------  ---------------  ---------------
 Total          -44.647           60.211          168.526  iso=      61.363

 Orientation: 
  X           0.3955287    0.8248871   -0.4038790
  Y           0.8589407   -0.4879330   -0.1553779
  Z           0.3252351    0.2854517    0.9015206

 --------------
 Nucleus  51C :
 --------------

Diamagnetic contribution to the shielding tensor (ppm) : 
           271.589         -1.889        12.789
           -12.527        274.951        12.224
            16.336          1.036       244.006

Paramagnetic contribution to the shielding tensor (ppm): 
          -194.513        -17.823       -58.964
            -0.574       -290.757       -58.589
           -55.909        -49.035       -94.596

Total shielding tensor (ppm): 
            77.076        -19.712       -46.175
           -13.102        -15.807       -46.365
           -39.573        -47.999       149.410


 Diagonalized sT*s matrix:
 
 sDSO           273.909          280.754          235.883  iso=     263.515
 sPSO          -307.745         -212.614          -59.508  iso=    -193.289
        ---------------  ---------------  ---------------
 Total          -33.836           68.140          176.374  iso=      70.226

 Orientation: 
  X           0.3504318    0.8681616   -0.3514158
  Y           0.8822652   -0.4319148   -0.1872371
  Z           0.3143338    0.2444281    0.9173054

 --------------
 Nucleus  54C :
 --------------

Diamagnetic contribution to the shielding tensor (ppm) : 
           255.083          1.847        -0.610
             4.170        253.553         6.094
            -1.963          6.910       241.107

Paramagnetic contribution to the shielding tensor (ppm): 
           -95.535         -1.344        -8.867
            -0.496       -101.189        -4.838
            -4.504         -4.371       -74.899

Total shielding tensor (ppm): 
           159.548          0.503        -9.477
             3.673        152.364         1.256
            -6.467          2.539       166.207


 Diagonalized sT*s matrix:
 
 sDSO           246.197          256.858          246.686  iso=     249.914
 sPSO           -95.845         -100.618          -75.161  iso=     -90.541
        ---------------  ---------------  ---------------
 Total          150.352          156.241          171.525  iso=     159.373

 Orientation: 
  X          -0.4738534   -0.6898036   -0.5473883
  Y           0.8138169   -0.5804925    0.0270300
  Z          -0.3364002   -0.4326656    0.8364421

 --------------
 Nucleus  55C :
 --------------

Diamagnetic contribution to the shielding tensor (ppm) : 
           244.101         -0.777         0.405
            17.608        262.109         0.597
            13.818          6.046       241.487

Paramagnetic contribution to the shielding tensor (ppm): 
           -62.864          3.322        -3.903
           -18.006        -75.937        12.517
           -16.850          3.788       -69.524

Total shielding tensor (ppm): 
           181.237          2.545        -3.498
            -0.398        186.172        13.114
            -3.032          9.833       171.963


 Diagonalized sT*s matrix:
 
 sDSO           244.409          244.828          258.459  iso=     249.232
 sPSO           -79.533          -62.934          -65.858  iso=     -69.442
        ---------------  ---------------  ---------------
 Total          164.876          181.895          192.601  iso=     179.790

 Orientation: 
  X           0.2050820   -0.9767313    0.0627488
  Y          -0.4753212   -0.1554354   -0.8659732
  Z           0.8555765    0.1477697   -0.4961381

 --------------
 Nucleus  56C :
 --------------

Diamagnetic contribution to the shielding tensor (ppm) : 
           246.014         -4.105        -6.114
            -7.841        243.459        -1.165
            -9.810         -2.193       241.445

Paramagnetic contribution to the shielding tensor (ppm): 
           -71.954          1.712         1.849
             7.477        -80.720         3.683
             0.221          8.664       -82.394

Total shielding tensor (ppm): 
           174.060         -2.393        -4.265
            -0.365        162.740         2.518
            -9.588          6.471       159.051


 Diagonalized sT*s matrix:
 
 sDSO           241.029          237.197          252.691  iso=     243.639
 sPSO           -86.433          -73.319          -75.316  iso=     -78.356
        ---------------  ---------------  ---------------
 Total          154.597          163.879          177.375  iso=     165.283

 Orientation: 
  X           0.2678268    0.3430191   -0.9003370
  Y          -0.4235035    0.8812716    0.2097741
  Z           0.8653979    0.3251128    0.3812980

 --------------
 Nucleus  59C :
 --------------

Diamagnetic contribution to the shielding tensor (ppm) : 
           245.247         -0.357        -1.129
             3.086        238.020        -9.253
           -22.006         -6.784       249.401

Paramagnetic contribution to the shielding tensor (ppm): 
           -69.345         -1.297         2.755
            -4.609        -56.076         1.883
            24.578         -5.370       -61.337

Total shielding tensor (ppm): 
           175.902         -1.654         1.626
            -1.523        181.944        -7.370
             2.571        -12.154       188.064


 Diagonalized sT*s matrix:
 
 sDSO           233.783          248.671          250.214  iso=     244.223
 sPSO           -59.010          -73.119          -54.629  iso=     -62.253
        ---------------  ---------------  ---------------
 Total          174.773          175.552          195.585  iso=     181.970

 Orientation: 
  X           0.0525333    0.9896643    0.1334349
  Y           0.8049996    0.0371029   -0.5921141
  Z           0.5909450   -0.1385208    0.7947302

 --------------
 Nucleus  60C :
 --------------

Diamagnetic contribution to the shielding tensor (ppm) : 
           243.910         -5.601        -1.319
           -20.254        245.636         1.914
            -2.093          1.447       226.006

Paramagnetic contribution to the shielding tensor (ppm): 
           -79.803         -6.039        -0.304
             6.546        -54.434       -10.109
            -3.896         -4.046       -55.654

Total shielding tensor (ppm): 
           164.106        -11.640        -1.623
           -13.708        191.202        -8.195
            -5.989         -2.599       170.352


 Diagonalized sT*s matrix:
 
 sDSO           232.650          230.252          252.650  iso=     238.517
 sPSO           -75.852          -58.106          -55.933  iso=     -63.297
        ---------------  ---------------  ---------------
 Total          156.798          172.146          196.717  iso=     175.220

 Orientation: 
  X           0.8415246   -0.4143277   -0.3466539
  Y           0.3773419   -0.0083788    0.9260361
  Z           0.3865870    0.9100892   -0.1492922



--------------------------------
CHEMICAL SHIELDING SUMMARY (ppm)
--------------------------------


  Nucleus  Element    Isotropic     Anisotropy
  -------  -------  ------------   ------------
      0       C           59.638        148.151 
      1       C          151.149         30.014 
      2       C          128.849         55.139 
      5       C           51.522        179.221 
      6       C          165.007         22.975 
      7       C          161.656         22.627 
     14       C           74.696        128.344 
     15       C           83.046        121.144 
     18       C           79.572        134.312 
     20       C           52.412        174.973 
     22       C          169.222          8.610 
     23       C          174.486         12.722 
     26       C          158.675         23.859 
     29       C          153.936         17.860 
     32       C          143.335         28.189 
     34       C          174.788         23.292 
     36       C          169.023         33.163 
     39       C          141.037         38.376 
     43       C          160.751         15.484 
     44       C          184.295         14.476 
     49       C          179.591         12.913 
     50       C           61.363        160.743 
     51       C           70.226        159.222 
     54       C          159.373         18.229 
     55       C          179.790         19.215 
     56       C          165.283         18.138 
     59       C          181.970         20.423 
     60       C          175.220         32.245 


NMR shielding tensor and spin rotation calculation done in   1.0 sec 

Maximum memory used throughout the entire PROP-calculation: 51.5 MB

--------------------------------
SUGGESTED CITATIONS FOR THIS RUN
--------------------------------

Below you find a list of papers that are relevant to this ORCA run
We neither can nor want to force you to cite these papers, but we appreciate if you do
You receive ORCA, which is the product of decades of hard work by many enthusiastic individuals, for free
The only thing we kindly ask in return is that you cite our papers,
We deeply appreciate it, if you show your appreciation for ORCA by not just citing the generic ORCA reference.

Please note that relegating all ORCA citations to the supporting information does *not* help us.
SI sections are not indexed - citations you put there will not count into any citation statistics
But we need these citations in order to attract the funding resources that allow us to do what we are doing

Therefore, if you are a happy ORCA user, please consider citing a few of the papers listed below in the main body of your paper

In addition to the list printed below, the program has created the file inpS.bibtex that contains the list in bibtex format
You can import this file easily into all common literature databanks and citation aid programs


List of essential papers. We consider these as the minimum necessary citations

  1. Neese,F.
     Software update: the ORCA program system, version 5.0
     WIRES Comput. Molec. Sci., 2022 12(1)e1606
     doi.org/10.1002/wcms.1606

List of papers to cite with high priority. The work reported in these papers was absolutely
necessary for this run to complete.
Our perspective: the developers of density functionals and basis sets usually get cited in chemistry papers
Good! But without the algorithms to do something with them, the functionals or basis sets would not do anything.
Hence, in our opinion, the algorithm design and method developments papers are equally worthy of getting cited

  1. Neese,F.
     An improvement of the resolution of the identity approximation for the formation of the Coulomb matrix
     J. Comp. Chem., 2003 24(14)1740-1747
     doi.org/10.1002/jcc.10318
  2. Neese,F.; Wennmohs,F.; Hansen,A.; Becker,U.
     Efficient, approximate and parallel Hartree-Fock and hybrid DFT calculations. A 'chain-of-spheres' algorithm for the Hartree-Fock exchange
     Chem. Phys., 2009 356(1-3)98-109
     doi.org/10.1016/j.chemphys.2008.10.036
  3. Stoychev,G.L.; Auer,A.A.; Izsak,R.; Neese,F.
     Self-Consistent Field Calculation of Nuclear Magnetic Resonance Chemical Shielding Constants Using Gauge-Including Atomic Orbitals and Approximate Two-Electron Integrals
     J. Chem. Theory Comput., 2018 14(2)619-637
     doi.org/10.1021/acs.jctc.7b01006
  4. Garcia-Rates,M.; Neese,F.
     Effect of the Solute Cavity on the Solvation Energy and its Derivatives within the Framework of the Gaussian Charge Scheme
     J. Comput. Chem., 2020 41 922-939
     doi.org/10.1002/jcc.26139
  5. Helmich-Paris,B.; de Souza,B.; Neese,F.; Izsák,R.
     An improved chain of spheres for exchange algorithm
     J. Chem. Phys., 2021 155 104109
     doi.org/doi: 10.1063/5.0058766.
  6. Neese,F.
     The SHARK Integral Generation and Digestion System
     J. Comp. Chem., 2022  1-16
     doi.org/10.1002/jcc.26942
  7. Caldeweyher,E.; Bannwarth,C.; Grimme,S.
     Extension of the D3 dispersion coefficient model
     J. Chem. Phys., 2017 147 034112-XXXX
     doi.org/10.1063/1.4993215
  8. Caldeweyher,E.; Ehlert,S.; Hansen,A.; Neugebauer,H.; Spicher,S.; Bannwarth,C.; Grimme,S.
     A generally applicable atomic-charge dependent London dispersion correction
     J. Chem. Phys., 2019 150 154122-XXXX
     doi.org/10.1063/1.5090222
  9. Caldeweyher,E.; Mewes,J.; Ehlert,S.; Grimme,S.
     Extension and evaluation of the D4 London-dispersion model for periodic systems
     Phys. Chem. Chem. Phys., 2020 22(16)8499-8512
     doi.org/10.1039/D0CP00502A

List of suggested additional citations. These are papers that are important in the 'surrounding' of 
of this run, or papers that preceded the highly important papers. If you like your results we are grateful for a citation.

  1. Izsak,R.; Neese,F.
     An overlap fitted chain of spheres exchange method
     J. Chem. Phys., 2011 135 144105
     doi.org/10.1063/1.3646921
  2. Izsak,R.; Hansen,A.; Neese,F.
     The resolution of identity and chain of spheres approximations for the LPNO-CCSD singles Fock term
     Molec. Phys., 2012 110 2413-2417
     doi.org/10.1080/00268976.2012.687466
  3. Neese,F.
     The ORCA program system
     WIRES Comput. Molec. Sci., 2012 2(1)73-78
     doi.org/10.1002/wcms.81
  4. Izsak,R.; Neese,F.; Klopper,W.
     Robust fitting techniques in the chain of spheres approximation to the Fock exchange: The role of the complementary space
     J. Chem. Phys., 2013 139 
     doi.org/10.1063/1.4819264
  5. Neese,F.
     Software update: the ORCA program system, version 4.0
     WIRES Comput. Molec. Sci., 2018 8(1)1-6
     doi.org/10.1002/wcms.1327
  6. Neese,F.; Wennmohs,F.; Becker,U.; Riplinger,C.
     The ORCA quantum chemistry program package
     J. Chem. Phys., 2020 152 Art. No. L224108
     doi.org/10.1063/5.0004608

Timings for individual modules:

Sum of individual times          ...      174.902 sec (=   2.915 min)
Startup calculation              ...        4.792 sec (=   0.080 min)   2.7 %
SCF iterations                   ...       71.271 sec (=   1.188 min)  40.7 %
Property integrals               ...       59.874 sec (=   0.998 min)  34.2 %
SCF Response                     ...       37.644 sec (=   0.627 min)  21.5 %
Property calculations            ...        1.322 sec (=   0.022 min)   0.8 %
                             ****ORCA TERMINATED NORMALLY****
TOTAL RUN TIME: 0 days 0 hours 2 minutes 55 seconds 207 msec
