
                                 *****************
                                 * O   R   C   A *
                                 *****************

                                            #,                                       
                                            ###                                      
                                            ####                                     
                                            #####                                    
                                            ######                                   
                                           ########,                                 
                                     ,,################,,,,,                         
                               ,,#################################,,                 
                          ,,##########################################,,             
                       ,#########################################, ''#####,          
                    ,#############################################,,   '####,        
                  ,##################################################,,,,####,       
                ,###########''''           ''''###############################       
              ,#####''   ,,,,##########,,,,          '''####'''          '####       
            ,##' ,,,,###########################,,,                        '##       
           ' ,,###''''                  '''############,,,                           
         ,,##''                                '''############,,,,        ,,,,,,###''
      ,#''                                            '''#######################'''  
     '                                                          ''''####''''         
             ,#######,   #######,   ,#######,      ##                                
            ,#'     '#,  ##    ##  ,#'     '#,    #''#        ,####,   ,####,        
            ##       ##  ##   ,#'  ##            #'  '#       #'       #'  '#        
            ##       ##  #######   ##           ,######,      #####,   #    #        
            '#,     ,#'  ##    ##  '#,     ,#' ,#      #,     #,   #   #,  ,#        
             '#######'   ##     ##  '#######'  #'      '#     '####' # '####'        



                #########################################################
                #                        -***-                          #
                #          Department of theory and spectroscopy        #
                #                                                       #
                #                      Frank Neese                      #
                #                                                       #
                #     Directorship, Architecture, Infrastructure        #
                #                    SHARK, DRIVERS                     #
                #        Core code/Algorithms in most modules           #
                #                                                       #
                #        Max Planck Institute fuer Kohlenforschung      #
                #                Kaiser Wilhelm Platz 1                 #
                #                 D-45470 Muelheim/Ruhr                 #
                #                      Germany                          #
                #                                                       #
                #                  All rights reserved                  #
                #                        -***-                          #
                #########################################################


                         Program Version 6.0.1  -  RELEASE   -


 With contributions from (in alphabetic order):
[Max-Planck-Institut fuer Kohlenforschung]                               
  Daniel Aravena         : Magnetic Suceptibility                        
  Michael Atanasov       : Ab Initio Ligand Field Theory (pilot matlab implementation)
  Alexander A. Auer      : GIAO ZORA, VPT2 properties, NMR spectrum      
  Ute Becker             : All parallelization in ORCA, NUMFREQ, NUMCALC 
  Giovanni Bistoni       : ED, misc. LED, open-shell LED, HFLD           
  Martin Brehm           : Molecular dynamics                            
  Dmytro Bykov           : pre 5.0 version of the SCF Hessian            
  Marcos Casanova-Páez   : Triplet and SCS-CIS(D). UHF-(DLPNO)-IP/EA/STEOM-CCSD. UHF-CVS-IP/STEOM-CCSD   
  Vijay G. Chilkuri      : MRCI spin determinant printing, contributions to CSF-ICE 
  Pauline Colinet        : FMM embedding                                 
  Dipayan Datta          : RHF DLPNO-CCSD density                        
  Achintya Kumar Dutta   : EOM-CC, STEOM-CC                              
  Nicolas Foglia         : Exact transition moments, OPA infrastructure, MCD improvements    
  Dmitry Ganyushin       : Spin-Orbit,Spin-Spin,Magnetic field MRCI      
  Miquel Garcia-Rates    : C-PCM and meta-GGA Hessian, CCSD/C-PCM, Gaussian charge scheme 
  Tiago L. C. Gouveia    : GS-ROHF, GS-ROCIS                             
  Yang Guo               : DLPNO-NEVPT2, F12-NEVPT2, CIM, IAO-localization        
  Andreas Hansen         : Spin unrestricted coupled pair/coupled cluster methods 
  Ingolf Harden          : AUTO-CI MPn and infrastructure                
  Benjamin Helmich-Paris : MC-RPA, TRAH-(SCF,CASSCF), AVAS, COSX integrals, SCF dyn. polar. 
  Lee Huntington         : MR-EOM, pCC                                   
  Robert Izsak           : Overlap fitted RIJCOSX, COSX-SCS-MP3, EOM     
  Riya Kayal             : Wick's Theorem for AUTO-CI, AUTO-CI UHF-CCSDT 
  Emily Kempfer          : AUTO-CI, RHF CISDT and CCSDT                  
  Christian Kollmar      : KDIIS, OOCD, Brueckner-CCSD(T), CCSD density, CASPT2, CASPT2-K, improved NEVPT2 
  Axel Koslowski         : Symmetry handling                             
  Simone Kossmann        : meta-GGA functionals, TD-DFT gradient, OOMP2, (MP2 Hessian; deprecated post 5.0) 
  Lucas Lang             : DCDCAS                                        
  Marvin Lechner         : AUTO-CI (C++ implementation), FIC-MRCC        
  Spencer Leger          : CASSCF response                               
  Dagmar Lenk            : GEPOL surface, SMD, ORCA-2-JSON               
  Dimitrios Liakos       : Extrapolation schemes; Compound Job, initial MDCI parallelization 
  Dimitrios Manganas     : Further ROCIS development; embedding schemes. LFT, Crystal Embedding 
  Dimitrios Pantazis     : SARC Basis sets                               
  Anastasios Papadopoulos: AUTO-CI, single reference methods and gradients 
  Taras Petrenko         : pre 6.0 DFT Hessian and TD-DFT gradient, (ASA, deprecated), ECA, 1-Electron XAS/XES, NRVS 
  Peter Pinski           : DLPNO-MP2, DLPNO-MP2 Gradient                 
  Christoph Reimann      : Effective Core Potentials                     
  Marius Retegan         : Local ZFS, SOC                                
  Christoph Riplinger    : Optimizer, TS searches, QM/MM, DLPNO-CCSD(T), (RO)-DLPNO pert. Triples 
  Michael Roemelt        : Original ROCIS implementation                 
  Masaaki Saitow         : Open-shell DLPNO-CCSD energy and density      
  Barbara Sandhoefer     : DKH picture change effects                    
  Kantharuban Sivalingam : CASSCF convergence/infrastructure, NEVPT2 and variants, FIC-MRCI 
  Bernardo de Souza      : ESD, SOC TD-DFT                               
  Georgi L. Stoychev     : AutoAux, RI-MP2 NMR, DLPNO-MP2 response, X2C  
  Van Anh Tran           : RI-MP2 g-tensors                              
  Willem Van den Heuvel  : Paramagnetic NMR                              
  Zikuan Wang            : NOTCH, Electric field optimization            
  Frank Wennmohs         : Technical directorship and infrastructure     
  Hang Xu                : AUTO-CI-Response properties                   
                                                                         
[FACCTs GmbH]                                                            
  Markus Bursch, Miquel Garcia-Rates, Christoph Riplinger, Bernardo de Souza, Georgi L. Stoychev 
                                                                 
  APM, Basis sets (HGBS, AHGBS, def-TZVP (Ac-Lr), def2-XVPD (La-Lu)), CI-OPT, improved COSX, DLPNO-Multilevel,           
  DOCKER, DRACO, updates on ESD, GOAT, IRC, LR-CPCM, MBIS, meta-GGA TD-DFT gradient, ML-optimized integration grids, 
  MM, NACMEs, nearIR, NEB, NEB-TS, NL-DFT gradient (VV10), 2- and 3-layer-ONIOM, interface openCOSMO-RS, QMMM,   
  Crystal-QMMM, SF, symmetry and pop. for TD-DFT, r2SCAN hybrids, SOLVATOR                                   
                                                                         
[Other institutions]                                                     
  V. Asgeirsson          : NEB                                           
  Christoph Bannwarth    : sTDA-DFT, sTD-DFT, PBEh-3c, B97-3c, D3        
  Sebastian Ehlert       : rSCAN, r2SCAN, r2SCAN-3c, D4, dhf basis sets  
  Marvin Friede          : D4 for Fr, Ra, Ac-Lr                          
  Lars Goerigk           : TD-DFT with DH, B97 family of functionals     
  Stefan Grimme          : VdW corrections, initial TS optimization, DFT functionals, gCP, sTDA/sTD-DF 
  Waldemar Hujo          : DFT-NL                                        
  H. Jonsson             : NEB                                           
  Holger Kruse           : gCP                                           
  Marcel Mueller         : wB97X-3c, vDZP basis set                      
  Hagen Neugebauer       : wr2SCAN                                       
  Tobias Risthaus        : range-separated hybrid DFT                    
  Lukas Wittmann         : regularized MP2, r2SCAN double-hybrids, wr2SCAN        
                                                                         
We gratefully acknowledge several colleagues who have allowed us to      
interface, adapt or use parts of their codes:                            
  Ed Valeev, F. Pavosevic, A. Kumar             : LibInt (2-el integral package), F12 methods 
  Garnet Chan, S. Sharma, J. Yang, R. Olivares  : DMRG                   
  Ulf Ekstrom                                   : XCFun DFT Library      
  Mihaly Kallay                                 : mrcc  (arbitrary order and MRCC methods)
  Frank Weinhold                                : gennbo (NPA and NBO analysis)           
  Simon Mueller                                 : openCOSMO-RS                            
  Christopher J. Cramer and Donald G. Truhlar   : smd solvation model                     
  S Lehtola, MJT Oliveira, MAL Marques          : LibXC Library                           
  Liviu Ungur et al                             : ANISO software                          


 Your calculation uses the libint2 library for the computation of 2-el integrals
 For citations please refer to: http://libint.valeyev.net

 Your ORCA version has been built with support for libXC version: 6.2.2
 For citations please refer to: https://libxc.gitlab.io

 This ORCA versions uses:
   CBLAS   interface :  Fast vector & matrix operations
   LAPACKE interface :  Fast linear algebra routines
   SCALAPACK package :  Parallel linear algebra routines
   Shared memory     :  Shared parallel matrices
   BLAS/LAPACK       :  OpenBLAS 0.3.27  USE64BITINT DYNAMIC_ARCH NO_AFFINITY Zen SINGLE_THREADED
        Core in use  :  Zen
   Copyright (c) 2011-2014, The OpenBLAS Project


NOTE: MaxCore=8000 MB was set to SCF,MP2,MDCI,CIPSI,MRCI and CIS
      => If you want to overwrite this, your respective input block should be placed after the MaxCore statement
================================================================================

----- Orbital basis set information -----
Your calculation utilizes the basis: pcSseg-1
   F. Jensen, J. Chem. Theory Comput. 11, 132 (2015).

----- AuxJ basis set information -----
Your calculation utilizes the auxiliary basis: def2/J
   F. Weigend, Phys. Chem. Chem. Phys. 8, 1057 (2006).

================================================================================
                                        WARNINGS
                       Please study these warnings very carefully!
================================================================================


================================================================================
                                       INPUT FILE
================================================================================
NAME = inpS
|  1> ! revTPSS
|  2> ! pcSseg-1
|  3> ! RI def2/J
|  4> ! DEFGRID2
|  5> ! scfconv7
|  6> ! smallprint printgap noloewdin
|  7> ! NOSOSCF
|  8> %MaxCore 8000
|  9> %output
| 10>        print[P_BondOrder_M] 1
| 11>        print[P_Mayer] 1
| 12>        print[P_basis] 2
| 13> end
| 14> %pal
| 15>     nprocs 4
| 16> end
| 17> ! CPCM(chloroform)
| 18> *xyz 0 1
| 19> C   -2.0711701353  -0.8729049682   0.1513153965
| 20> C   -0.8840449254   0.0343870073   0.0046029790
| 21> H   -2.1177280592  -1.6043548454  -0.6580213425
| 22> H   -2.9845289129  -0.2782498339   0.1900950556
| 23> H   -1.9705930027  -1.4204960866   1.0955519548
| 24> O   -0.8567536863   1.2029089402   0.3357787237
| 25> O    0.1687171908  -0.6204063082  -0.5258533211
| 26> C    1.4144338376   0.1283269722  -0.6503578516
| 27> C    2.1858416426   0.1181168964   0.6524835371
| 28> H    1.1830706492   1.1461018636  -0.9774995735
| 29> H    1.9588290199  -0.3927278506  -1.4418454688
| 30> H    1.6342951267   0.6387705074   1.4402231847
| 31> H    3.1445051390   0.6276896228   0.5095214272
| 32> H    2.3869871608  -0.9077847064   0.9758261034
| 33> *
| 34> %eprnmr
| 35>  Nuclei = all H { shift }
| 36>  origin giao
| 37>  giao_2el giao_2el_same_as_scf
| 38>  giao_1el giao_1el_analytic
| 39> end
| 40> 
| 41>                          ****END OF INPUT****
================================================================================

                       ****************************
                       * Single Point Calculation *
                       ****************************

---------------------------------
CARTESIAN COORDINATES (ANGSTROEM)
---------------------------------
  C     -2.071170   -0.872905    0.151315
  C     -0.884045    0.034387    0.004603
  H     -2.117728   -1.604355   -0.658021
  H     -2.984529   -0.278250    0.190095
  H     -1.970593   -1.420496    1.095552
  O     -0.856754    1.202909    0.335779
  O      0.168717   -0.620406   -0.525853
  C      1.414434    0.128327   -0.650358
  C      2.185842    0.118117    0.652484
  H      1.183071    1.146102   -0.977500
  H      1.958829   -0.392728   -1.441845
  H      1.634295    0.638771    1.440223
  H      3.144505    0.627690    0.509521
  H      2.386987   -0.907785    0.975826

----------------------------
CARTESIAN COORDINATES (A.U.)
----------------------------
  NO LB      ZA    FRAG     MASS         X           Y           Z
   0 C     6.0000    0    12.011   -3.913944   -1.649551    0.285945
   1 C     6.0000    0    12.011   -1.670603    0.064982    0.008698
   2 H     1.0000    0     1.008   -4.001926   -3.031791   -1.243480
   3 H     1.0000    0     1.008   -5.639942   -0.525816    0.359228
   4 H     1.0000    0     1.008   -3.723881   -2.684349    2.070293
   5 O     8.0000    0    15.999   -1.619030    2.273168    0.634530
   6 O     8.0000    0    15.999    0.318829   -1.172398   -0.993719
   7 C     6.0000    0    12.011    2.672893    0.242503   -1.228998
   8 C     6.0000    0    12.011    4.130642    0.223209    1.233015
   9 H     1.0000    0     1.008    2.235680    2.165819   -1.847206
  10 H     1.0000    0     1.008    3.701650   -0.742148   -2.724693
  11 H     1.0000    0     1.008    3.088370    1.207101    2.721627
  12 H     1.0000    0     1.008    5.942254    1.186161    0.962856
  13 H     1.0000    0     1.008    4.510752   -1.715464    1.844044

--------------------------------
INTERNAL COORDINATES (ANGSTROEM)
--------------------------------
 C      0   0   0     0.000000000000     0.00000000     0.00000000
 C      1   0   0     1.501322592328     0.00000000     0.00000000
 H      1   2   0     1.091884847513   111.47648431     0.00000000
 H      1   2   3     1.090569964435   109.64461534   236.86893333
 H      1   2   3     1.096154400886   108.27165872   118.56700099
 O      2   1   3     1.214852128153   124.91811353   146.70661361
 O      2   1   3     1.348497773689   111.24178667   325.66544129
 C      7   2   1     1.458736736841   116.80976679   183.44578970
 C      8   7   2     1.514123486170   110.98808755    83.17635841
 H      8   7   2     1.093808191923   108.81363623   319.74545929
 H      8   7   2     1.092848064031   104.03364959   203.18620426
 H      9   8   7     1.093534404694   111.07972358   295.61608851
 H      9   8   7     1.095051700920   109.30196008   176.16982705
 H      9   8   7     1.094296136017   110.74553293    56.93888631

---------------------------
INTERNAL COORDINATES (A.U.)
---------------------------
 C      0   0   0     0.000000000000     0.00000000     0.00000000
 C      1   0   0     2.837088538169     0.00000000     0.00000000
 H      1   2   0     2.063363331578   111.47648431     0.00000000
 H      1   2   3     2.060878562663   109.64461534   236.86893333
 H      1   2   3     2.071431618168   108.27165872   118.56700099
 O      2   1   3     2.295737815420   124.91811353   146.70661361
 O      2   1   3     2.548291484475   111.24178667   325.66544129
 C      7   2   1     2.756612934119   116.80976679   183.44578970
 C      8   7   2     2.861278721800   110.98808755    83.17635841
 H      8   7   2     2.066997925775   108.81363623   319.74545929
 H      8   7   2     2.065183547004   104.03364959   203.18620426
 H      9   8   7     2.066480542893   111.07972358   295.61608851
 H      9   8   7     2.069347817223   109.30196008   176.16982705
 H      9   8   7     2.067920006480   110.74553293    56.93888631

---------------------
BASIS SET INFORMATION
---------------------
There are 3 groups of distinct atoms

 Group   1 Type C   : 8s5p1d contracted to 3s3p1d pattern {521/311/1}
 Group   2 Type H   : 4s2p contracted to 2s1p pattern {31/2}
 Group   3 Type O   : 8s5p1d contracted to 3s3p1d pattern {521/311/1}

Atom   0C    basis set group =>   1
Atom   1C    basis set group =>   1
Atom   2H    basis set group =>   2
Atom   3H    basis set group =>   2
Atom   4H    basis set group =>   2
Atom   5O    basis set group =>   3
Atom   6O    basis set group =>   3
Atom   7C    basis set group =>   1
Atom   8C    basis set group =>   1
Atom   9H    basis set group =>   2
Atom  10H    basis set group =>   2
Atom  11H    basis set group =>   2
Atom  12H    basis set group =>   2
Atom  13H    basis set group =>   2

-------------------------
BASIS SET IN INPUT FORMAT
-------------------------

 # Basis set for element : H 
 NewGTO H 
 S 3 
   1      12.2518000000      0.0372173893
   2       1.8687100000      0.2538082070
   3       0.4182080000      0.7973867639
 S 1 
   1       0.1061000000      1.0000000000
 P 2 
   1       9.0000000000      0.0402678705
   2       1.0000000000      0.9880231245
  end;

 # Basis set for element : C 
 NewGTO C 
 S 5 
   1    1243.2000000000      0.0056300977
   2     187.1450000000      0.0419506039
   3      42.5126000000      0.1846643605
   4      11.7393000000      0.4665574214
   5       3.5054800000      0.4482347783
 S 2 
   1       5.3908900000     -0.1481148174
   2       0.4933410000      1.0519817143
 S 1 
   1       0.1497410000      1.0000000000
 P 3 
   1      59.6736000000      0.0113906672
   2       9.1805600000      0.1672414929
   3       1.9365800000      0.9041087436
 P 1 
   1       0.5262960000      1.0000000000
 P 1 
   1       0.1363190000      1.0000000000
 D 1 
   1       0.8000000000      1.0000000000
  end;

 # Basis set for element : O 
 NewGTO O 
 S 5 
   1    2288.6400000000      0.0054511382
   2     344.4160000000      0.0407189228
   3      78.2538000000      0.1813694209
   4      21.7195000000      0.4655368202
   5       6.5590700000      0.4512113212
 S 2 
   1      10.4656000000     -0.1502112012
   2       0.9643510000      1.0528679834
 S 1 
   1       0.2851270000      1.0000000000
 P 3 
   1     110.8840000000      0.0113058003
   2      17.0590000000      0.1699226452
   3       3.6899900000      0.9008060328
 P 1 
   1       0.9929960000      1.0000000000
 P 1 
   1       0.2449240000      1.0000000000
 D 1 
   1       1.0000000000      1.0000000000
  end;

---------------------------------
AUXILIARY/J BASIS SET INFORMATION
---------------------------------
There are 3 groups of distinct atoms

 Group   1 Type C   : 12s5p4d2f1g contracted to 6s4p3d1f1g pattern {711111/2111/211/2/1}
 Group   2 Type H   : 5s2p1d contracted to 3s1p1d pattern {311/2/1}
 Group   3 Type O   : 12s5p4d2f1g contracted to 6s4p3d1f1g pattern {711111/2111/211/2/1}

Atom   0C    basis set group =>   1
Atom   1C    basis set group =>   1
Atom   2H    basis set group =>   2
Atom   3H    basis set group =>   2
Atom   4H    basis set group =>   2
Atom   5O    basis set group =>   3
Atom   6O    basis set group =>   3
Atom   7C    basis set group =>   1
Atom   8C    basis set group =>   1
Atom   9H    basis set group =>   2
Atom  10H    basis set group =>   2
Atom  11H    basis set group =>   2
Atom  12H    basis set group =>   2
Atom  13H    basis set group =>   2

-------------------------------------
AUXILIARY/J BASIS SET IN INPUT FORMAT
-------------------------------------

 # Auxiliary/J basis set for element : H 
 NewAuxJGTO H 
 S 3 
   1      15.6752927000      0.1007184237
   2       3.6063578000      0.3404257499
   3       1.2080016000      0.6491996172
 S 1 
   1       0.4726794000      1.0000000000
 S 1 
   1       0.2018100000      1.0000000000
 P 2 
   1       2.0281365000      0.5596620919
   2       0.5358730000      0.5596620919
 D 1 
   1       2.2165124000      1.0000000000
  end;

 # Auxiliary/J basis set for element : C 
 NewAuxJGTO C 
 S 7 
   1    1861.0916331000      0.0134602335
   2     642.9939764000      0.0299160374
   3     235.1105725000      0.1008649584
   4      90.7028894000      0.2370970548
   5      36.7794552000      0.3924037254
   6      15.6046273000      0.3195862154
   7       6.8907294000      0.0530104441
 S 1 
   1       3.1478850000     -1.0000000000
 S 1 
   1       1.4777287000      1.0000000000
 S 1 
   1       0.7076466000      1.0000000000
 S 1 
   1       0.3430122000      1.0000000000
 S 1 
   1       0.1669453000      1.0000000000
 P 2 
   1      13.5472892000     -0.6769313712
   2       5.4669419000     -0.3779500978
 P 1 
   1       2.1751721000      1.0000000000
 P 1 
   1       0.8582194000      1.0000000000
 P 1 
   1       0.3376720000      1.0000000000
 D 2 
   1       5.9287253000     -0.3533329857
   2       1.9809209000     -0.7456525731
 D 1 
   1       0.8055417000     -1.0000000000
 D 1 
   1       0.3531244000     -1.0000000000
 F 2 
   1       1.6755626000      0.6311076882
   2       0.5997536000      0.4968166032
 G 1 
   1       1.0024600000     -1.0000000000
  end;

 # Auxiliary/J basis set for element : O 
 NewAuxJGTO O 
 S 7 
   1    2876.8216605000      0.0168151159
   2    1004.7443032000      0.0340137548
   3     369.7579954000      0.1194951309
   4     142.9442404000      0.2664627624
   5      57.8366425000      0.4202764046
   6      24.3864983000      0.2765077335
   7      10.6622662000      0.0057008815
 S 1 
   1       4.8070437000     -1.0000000000
 S 1 
   1       2.2210770000      1.0000000000
 S 1 
   1       1.0447795000      1.0000000000
 S 1 
   1       0.4968425000      1.0000000000
 S 1 
   1       0.2371384000      1.0000000000
 P 2 
   1      64.2613382000     -0.2731534179
   2      16.3006076000     -0.8168011598
 P 1 
   1       4.3550542000      1.0000000000
 P 1 
   1       1.2019554000      1.0000000000
 P 1 
   1       0.3354196000      1.0000000000
 D 2 
   1       9.2146611000     -0.4661230638
   2       2.8435251000     -0.6600908911
 D 1 
   1       0.9955759000     -1.0000000000
 D 1 
   1       0.3649441000     -1.0000000000
 F 2 
   1       2.6420115000      0.5931563945
   2       0.7345613000      0.5931563945
 G 1 
   1       1.3931000000     -1.0000000000
  end;



           ************************************************************
           *        Program running with 4 parallel MPI-processes     *
           *              working on a common directory               *
           ************************************************************
------------------------------------------------------------------------------
                             ORCA STARTUP CALCULATIONS
                           -- RI-GTO INTEGRALS CHOSEN --
------------------------------------------------------------------------------
------------------------------------------------------------------------------
                   ___                                                        
                  /   \      - P O W E R E D   B Y -                         
                 /     \                                                     
                 |  |  |   _    _      __       _____    __    __             
                 |  |  |  | |  | |    /  \     |  _  \  |  |  /  |          
                  \  \/   | |  | |   /    \    | | | |  |  | /  /          
                 / \  \   | |__| |  /  /\  \   | |_| |  |  |/  /          
                |  |  |   |  __  | /  /__\  \  |    /   |      \           
                |  |  |   | |  | | |   __   |  |    \   |  |\   \          
                \     /   | |  | | |  |  |  |  | |\  \  |  | \   \       
                 \___/    |_|  |_| |__|  |__|  |_| \__\ |__|  \__/        
                                                                              
                      - O R C A' S   B I G   F R I E N D -                    
                                      &                                       
                       - I N T E G R A L  F E E D E R -                       
                                                                              
 v1 FN, 2020, v2 2021, v3 2022-2024                                           
------------------------------------------------------------------------------


----------------------
SHARK INTEGRAL PACKAGE
----------------------

Number of atoms                             ...     14
Number of basis functions                   ...    142
Number of shells                            ...     66
Maximum angular momentum                    ...      2
Integral batch strategy                     ... SHARK/LIBINT Hybrid
RI-J (if used) integral strategy            ... SPLIT-RIJ (Revised 2003 algorithm where possible)
Printlevel                                  ...      1
Contraction scheme used                     ... SEGMENTED contraction
Prescreening option                         ... SCHWARTZ
   Thresh                                   ... 3.000e-11
   Tcut                                     ... 1.000e-12
   Tpresel                                  ... 1.000e-12 
Coulomb Range Separation                    ... NOT USED
Exchange Range Separation                   ... NOT USED
Multipole approximations                    ... NOT USED
Finite Nucleus Model                        ... NOT USED
CABS basis                                  ... NOT available
Auxiliary Coulomb fitting basis             ... AVAILABLE
   # of basis functions in Aux-J            ...    382
   # of shells in Aux-J                     ...    130
   Maximum angular momentum in Aux-J        ...      4
Auxiliary J/K fitting basis                 ... NOT available
Auxiliary Correlation fitting basis         ... NOT available
Auxiliary 'external' fitting basis          ... NOT available

Checking pre-screening integrals            ... done (  0.0 sec) Dimension = 66
Check shell pair data                       ... done (  0.0 sec)
Shell pair information
Shell pair cut-off parameter TPreSel        ...   1.0e-12
Total number of shell pairs                 ...      2211
Shell pairs after pre-screening             ...      2091
Total number of primitive shell pairs       ...      8894
Primitive shell pairs kept                  ...      5946
          la=0 lb=0:    575 shell pairs
          la=1 lb=0:    831 shell pairs
          la=1 lb=1:    313 shell pairs
          la=2 lb=0:    200 shell pairs
          la=2 lb=1:    151 shell pairs
          la=2 lb=2:     21 shell pairs

Calculating one electron integrals          ... done (  0.0 sec)
Calculating RI/J V-Matrix + Cholesky decomp.... done (  0.0 sec)
Calculating Nuclear repulsion               ... done (  0.0 sec) ENN=    246.464505583396 Eh

Diagonalization of the overlap matrix:
Smallest eigenvalue                        ... 3.818e-03
Time for diagonalization                   ...    0.002 sec
Threshold for overlap eigenvalues          ... 1.000e-07
Number of eigenvalues below threshold      ... 0
Time for construction of square roots      ...    0.001 sec
Total time needed                          ...    0.003 sec

-------------------
DFT GRID GENERATION
-------------------

General Integration Accuracy     IntAcc      ... 4.388
Radial Grid Type                 RadialGrid  ... OptM3 with GC (2021)
Angular Grid (max. ang.)         AngularGrid ... 4 (Lebedev-302)
Angular grid pruning method      GridPruning ... 4 (adaptive)
Weight generation scheme         WeightScheme... mBecke (2022)
Basis function cutoff            BFCut       ... 1.0000e-11
Integration weight cutoff        WCut        ... 1.0000e-14
Partially contracted basis set               ... off
Rotationally invariant grid construction     ... off
Angular grids for H and He will be reduced by one unit

Total number of grid points                  ...    62230
Total number of batches                      ...      978
Average number of points per batch           ...       63
Average number of grid points per atom       ...     4445
Initializing property integral containers    ... done (  0.0 sec)

SHARK setup successfully completed in   0.3 seconds

Maximum memory used throughout the entire STARTUP-calculation: 19.0 MB


           ************************************************************
           *        Program running with 4 parallel MPI-processes     *
           *              working on a common directory               *
           ************************************************************
-------------------------------------------------------------------------------
                                 ORCA GUESS
                   Start orbitals & Density for SCF / CASSCF
-------------------------------------------------------------------------------

------------
SCF SETTINGS
------------
Hamiltonian:
 Density Functional     Method          .... DFT(GTOs)
 Exchange Functional    Exchange        .... revTPSS
 Correlation Functional Correlation     .... revTPSS
 LDA part of GGA corr.  LDAOpt          .... PW91-LDA
 Gradients option       PostSCFGGA      .... off
 RI-approximation to the Coulomb term is turned on
   Number of AuxJ basis functions       .... 382


General Settings:
 Integral files         IntName         .... inpS
 Hartree-Fock type      HFTyp           .... RHF
 Total Charge           Charge          ....    0
 Multiplicity           Mult            ....    1
 Number of Electrons    NEL             ....   48
 Basis Dimension        Dim             ....  142
 Nuclear Repulsion      ENuc            ....    246.4645055834 Eh

Convergence Acceleration:
 AO-DIIS                CNVDIIS         .... on
   Start iteration      DIISMaxIt       ....    12
   Startup error        DIISStart       ....  0.200000
   # of expansion vecs  DIISMaxEq       ....     5
   Bias factor          DIISBfac        ....   1.050
   Max. coefficient     DIISMaxC        ....  10.000
 MO-DIIS                CNVKDIIS        .... off
 Trust-Rad. Augm. Hess. CNVTRAH         .... auto
   Auto Start mean grad. ratio tolernc. ....  1.125000
   Auto Start start iteration           ....    50
   Auto Start num. interpolation iter.  ....    10
   Max. Number of Micro iterations      ....    24
   Max. Number of Macro iterations      .... Maxiter - #DIIS iter
   Number of Davidson start vectors     ....     2
   Converg. threshold    (grad. norm)   ....   1.000e-04
   Grad. Scal. Fac. for Micro threshold ....   0.100
   Minimum threshold for Micro iter.    ....   1.000e-02
   NR start threshold (gradient norm)   ....   1.000e-04
   Initial trust radius                 ....   0.400
   Minimum AH scaling param. (alpha)    ....   1.000
   Maximum AH scaling param. (alpha)    .... 1000.000
   Quad. conv. algorithm                .... NR
   White noise on init. David. guess    .... on
   Maximum white noise                  ....   0.010
   Pseudo random numbers                .... off
   Inactive MOs                         .... canonical
   Orbital update algorithm             .... Taylor
   Preconditioner                       .... Diag
   Full preconditioner red. dimension   ....   250
 SOSCF                  CNVSOSCF        .... off
 Level Shifting         CNVShift        .... on
   Level shift para.    LevelShift      ....    0.2500
   Turn off err/grad.   ShiftErr        ....    0.0010
 Zerner damping         CNVZerner       .... off
 Static damping         CNVDamp         .... on
   Fraction old density DampFac         ....    0.7000
   Max. Damping (<1)    DampMax         ....    0.9800
   Min. Damping (>=0)   DampMin         ....    0.0000
   Turn off err/grad.   DampErr         ....    0.1000

SCF Procedure:
 Maximum # iterations   MaxIter         ....   125
 SCF integral mode      SCFMode         .... Direct
   Integral package                     .... SHARK and LIBINT hybrid scheme
 Reset frequency        DirectResetFreq ....    20
 Integral Threshold     Thresh          ....  3.000e-11 Eh
 Primitive CutOff       TCut            ....  1.000e-12 Eh

Convergence Tolerance:
 Convergence Check Mode ConvCheckMode   .... Total+1el-Energy
 Convergence forced     ConvForced      .... 0
 Energy Change          TolE            ....  1.000e-07 Eh
 1-El. energy change                    ....  1.000e-04 Eh
 DIIS Error             TolErr          ....  1.000e-07

------------------------------
INITIAL GUESS: MODEL POTENTIAL
------------------------------
Loading Hartree-Fock densities                     ... done
Calculating cut-offs                               ... done
Initializing the effective Hamiltonian             ... done
Setting up the integral package (SHARK)            ... done
Starting the Coulomb interaction                   ... done (   0.0 sec)
Making the grid                                    ... done (   0.0 sec)
Mapping shells                                     ... done
Starting the XC term evaluation                    ... done (   0.0 sec)
  promolecular density results
     # of electrons  =     47.998235903
     EX              =    -39.100480794
     EC              =     -1.577387714
     EX+EC           =    -40.677868508
Transforming the Hamiltonian                       ... done (   0.0 sec)
Diagonalizing the Hamiltonian                      ... done (   0.0 sec)
Back transforming the eigenvectors                 ... done (   0.0 sec)
Now organizing SCF variables                       ... done
                      ------------------
                      INITIAL GUESS DONE (   0.1 sec)
                      ------------------
             **** ENERGY FILE WAS UPDATED (inpS.en.tmp) ****
Finished Guess after   0.1 sec
Maximum memory used throughout the entire GUESS-calculation: 10.8 MB


           ************************************************************
           *        Program running with 4 parallel MPI-processes     *
           *              working on a common directory               *
           ************************************************************

-------------------------------------------------------------------------------------------
                                      ORCA LEAN-SCF
                              memory conserving SCF solver
-------------------------------------------------------------------------------------------

--------------------
CPCM SOLVATION MODEL
--------------------
CPCM parameters:
  Epsilon                                         ...       4.8030
  Refrac                                          ...       1.4459
  Rsolv                                           ...       1.3000
  Surface type                                    ... GAUSSIAN VDW
  Discretization scheme                           ... Constant charge density
    Threshold for H atoms                         ...       5.0000 (charges/Ang^2)
    Threshold for non-H atoms                     ...       5.0000 (charges/Ang^2)
  Epsilon function type                           ...         CPCM
Solvent:                                          ... CHLOROFORM
Radii:
  Scheme                                          ... Element-dependent radii
  Radius for C  used is    3.8550 Bohr (=   2.0400 Ang.)
  Radius for H  used is    2.4944 Bohr (=   1.3200 Ang.)
  Radius for O  used is    3.4469 Bohr (=   1.8240 Ang.)
Calculating surface                               ...        done! (  0.0s)
Cavity surface points                             ...         1300
Cavity Volume                                     ...     811.8484
Cavity Surface-area                               ...     495.1759
Calculating surface distance matrix               ...        done! (  0.0s)
Performing Cholesky decomposition & store         ...        done! (  0.0s)
Overall time for CPCM initialization              ...                 0.0s

----------------------------------------D-I-I-S--------------------------------------------
Iteration    Energy (Eh)           Delta-E    RMSDP     MaxDP     DIISErr   Damp  Time(sec)
-------------------------------------------------------------------------------------------
               ***  Starting incremental Fock matrix formation  ***
    1    -307.4041348309808654     0.00e+00  2.72e-03  5.52e-02  2.93e-01  0.700   0.2

  HOMO=  23 E= -2.189 eV LUMO=  7.502 eV gap=   9.691 eV
    2    -307.5064910021483229    -1.02e-01  1.74e-03  3.06e-02  9.66e-02  0.700   0.2

  HOMO=  23 E= -4.894 eV LUMO=  6.939 eV gap=  11.833 eV
                               ***Turning on AO-DIIS***
    3    -307.5402223759705294    -3.37e-02  6.91e-04  1.12e-02  3.38e-02  0.700   0.2

  HOMO=  23 E= -6.571 eV LUMO=  6.294 eV gap=  12.865 eV
    4    -307.5617700306773941    -2.15e-02  9.66e-04  1.43e-02  1.38e-02  0.000   0.2

  HOMO=  23 E= -6.472 eV LUMO=  6.178 eV gap=  12.650 eV
    5    -307.6104082371028881    -4.86e-02  3.10e-04  5.42e-03  9.63e-03  0.000   0.2

  HOMO=  23 E= -6.485 eV LUMO=  6.122 eV gap=  12.606 eV
    6    -307.6108657994307123    -4.58e-04  1.14e-04  1.96e-03  2.62e-03  0.000   0.2

  HOMO=  23 E= -6.448 eV LUMO=  6.156 eV gap=  12.604 eV
    7    -307.6108907851272534    -2.50e-05  4.43e-05  6.84e-04  1.79e-03  0.000   0.2

  HOMO=  23 E= -6.454 eV LUMO=  6.157 eV gap=  12.611 eV
    8    -307.6108961298041322    -5.34e-06  1.66e-05  2.88e-04  7.46e-04  0.000   0.2

  HOMO=  23 E= -6.446 eV LUMO=  6.157 eV gap=  12.603 eV
    9    -307.6108972633287522    -1.13e-06  6.26e-06  1.01e-04  8.30e-05  0.000   0.2

  HOMO=  23 E= -6.446 eV LUMO=  6.158 eV gap=  12.604 eV
   10    -307.6108973141202796    -5.08e-08  2.19e-06  2.98e-05  6.54e-05  0.000   0.2
                 **** Energy Check signals convergence ****

  HOMO=  23 E= -6.445 eV LUMO=  6.159 eV gap=  12.604 eV

               *****************************************************
               *                     SUCCESS                       *
               *           SCF CONVERGED AFTER  10 CYCLES          *
               *****************************************************

             **** ENERGY FILE WAS UPDATED (inpS.en.tmp) ****

----------------
TOTAL SCF ENERGY
----------------

Total Energy       :       -307.61089731412028 Eh           -8370.51806 eV

Components:
Nuclear Repulsion  :        246.46450558339578 Eh            6706.64016 eV
Electronic Energy  :       -554.06868648920226 Eh          -15076.97546 eV
One Electron Energy:       -906.11828687419177 Eh          -24656.73211 eV
Two Electron Energy:        352.04960038498956 Eh            9579.75665 eV
CPCM Dielectric    :         -0.00671640831384 Eh              -0.18276 eV

Virial components:
Potential Energy   :       -613.86780065158621 Eh          -16704.19208 eV
Kinetic Energy     :        306.25690333746593 Eh            8333.67402 eV
Virial Ratio       :          2.00442110516334

DFT components:
N(Alpha)           :       24.000016333249 electrons
N(Beta)            :       24.000016333249 electrons
N(Total)           :       48.000032666498 electrons
E(X)               :      -40.182765095356 Eh       
E(C)               :       -1.621449090478 Eh       
E(XC)              :      -41.804214185834 Eh       

CPCM Solvation Model Properties:
Surface-charge          :         -0.01775286764526
Corrected charge        :          0.00000000000000
Outlying charge corr.   :          0.00002036521393 Eh               0.00055 eV
Free-energy (cav+disp)  :  This term is not implemented in the current solvation scheme

---------------
SCF CONVERGENCE
---------------

  Last Energy change         ...    5.0792e-08  Tolerance :   1.0000e-07
  Last MAX-Density change    ...    2.9780e-05  Tolerance :   1.0000e-05
  Last RMS-Density change    ...    2.1922e-06  Tolerance :   1.0000e-06
  Last DIIS Error            ...    6.5445e-05  Tolerance :   1.0000e-07


----------------
ORBITAL ENERGIES
----------------

  NO   OCC          E(Eh)            E(eV) 
   0   2.0000     -18.953536      -515.7519 
   1   2.0000     -18.897880      -514.2374 
   2   2.0000     -10.130942      -275.6769 
   3   2.0000     -10.065974      -273.9091 
   4   2.0000     -10.018088      -272.6060 
   5   2.0000     -10.006947      -272.3029 
   6   2.0000      -1.036708       -28.2103 
   7   2.0000      -0.953305       -25.9407 
   8   2.0000      -0.729176       -19.8419 
   9   2.0000      -0.684640       -18.6300 
  10   2.0000      -0.599406       -16.3107 
  11   2.0000      -0.510650       -13.8955 
  12   2.0000      -0.457741       -12.4558 
  13   2.0000      -0.442510       -12.0413 
  14   2.0000      -0.428306       -11.6548 
  15   2.0000      -0.395652       -10.7662 
  16   2.0000      -0.384025       -10.4498 
  17   2.0000      -0.368940       -10.0394 
  18   2.0000      -0.357494        -9.7279 
  19   2.0000      -0.335956        -9.1418 
  20   2.0000      -0.326803        -8.8928 
  21   2.0000      -0.304248        -8.2790 
  22   2.0000      -0.267115        -7.2686 
  23   2.0000      -0.236821        -6.4442 
  24   0.0000      -0.023644        -0.6434 
  25   0.0000       0.050234         1.3669 
  26   0.0000       0.066635         1.8132 
  27   0.0000       0.085104         2.3158 
  28   0.0000       0.094741         2.5780 
  29   0.0000       0.098677         2.6851 
  30   0.0000       0.116818         3.1788 
  31   0.0000       0.122631         3.3370 
  32   0.0000       0.126663         3.4467 
  33   0.0000       0.137429         3.7396 
  34   0.0000       0.185229         5.0403 
*Only the first 10 virtual orbitals were printed.

                    ********************************
                    * MULLIKEN POPULATION ANALYSIS *
                    ********************************

-----------------------
MULLIKEN ATOMIC CHARGES
-----------------------
   0 C :   -0.154085
   1 C :    0.342775
   2 H :    0.119411
   3 H :    0.117267
   4 H :    0.133919
   5 O :   -0.441394
   6 O :   -0.460519
   7 C :    0.046411
   8 C :   -0.233897
   9 H :    0.107904
  10 H :    0.114388
  11 H :    0.103706
  12 H :    0.104482
  13 H :    0.099632
Sum of atomic charges:    0.0000000

--------------------------------
MULLIKEN REDUCED ORBITAL CHARGES
--------------------------------
  0 C s       :     3.080842  s :     3.080842
      pz      :     1.076494  p :     3.046990
      px      :     0.961352
      py      :     1.009144
      dz2     :     0.005624  d :     0.026252
      dxz     :     0.001572
      dyz     :     0.007062
      dx2y2   :     0.003144
      dxy     :     0.008849

  1 C s       :     3.042601  s :     3.042601
      pz      :     0.777130  p :     2.482527
      px      :     0.866595
      py      :     0.838802
      dz2     :     0.012973  d :     0.132098
      dxz     :     0.014672
      dyz     :     0.025387
      dx2y2   :     0.028964
      dxy     :     0.050101

  2 H s       :     0.863361  s :     0.863361
      pz      :     0.007772  p :     0.017228
      px      :     0.002544
      py      :     0.006911

  3 H s       :     0.865693  s :     0.865693
      pz      :     0.002857  p :     0.017040
      px      :     0.008985
      py      :     0.005198

  4 H s       :     0.848631  s :     0.848631
      pz      :     0.009345  p :     0.017450
      px      :     0.002875
      py      :     0.005230

  5 O s       :     3.817900  s :     3.817900
      pz      :     1.462389  p :     4.600794
      px      :     1.769203
      py      :     1.369203
      dz2     :     0.002987  d :     0.022699
      dxz     :     0.000439
      dyz     :     0.007289
      dx2y2   :     0.007147
      dxy     :     0.004838

  6 O s       :     3.824764  s :     3.824764
      pz      :     1.688639  p :     4.614440
      px      :     1.280967
      py      :     1.644833
      dz2     :     0.003046  d :     0.021314
      dxz     :     0.003860
      dyz     :     0.003039
      dx2y2   :     0.003523
      dxy     :     0.007847

  7 C s       :     3.119582  s :     3.119582
      pz      :     1.049829  p :     2.776357
      px      :     0.757928
      py      :     0.968600
      dz2     :     0.010293  d :     0.057650
      dxz     :     0.012931
      dyz     :     0.008566
      dx2y2   :     0.012035
      dxy     :     0.013825

  8 C s       :     3.128789  s :     3.128789
      pz      :     0.988478  p :     3.076602
      px      :     1.020231
      py      :     1.067893
      dz2     :     0.006176  d :     0.028505
      dxz     :     0.006829
      dyz     :     0.005676
      dx2y2   :     0.004892
      dxy     :     0.004932

  9 H s       :     0.875523  s :     0.875523
      pz      :     0.003240  p :     0.016573
      px      :     0.002283
      py      :     0.011051

 10 H s       :     0.869774  s :     0.869774
      pz      :     0.007504  p :     0.015839
      px      :     0.003892
      py      :     0.004442

 11 H s       :     0.879293  s :     0.879293
      pz      :     0.007111  p :     0.017001
      px      :     0.005015
      py      :     0.004875

 12 H s       :     0.878578  s :     0.878578
      pz      :     0.002719  p :     0.016940
      px      :     0.009454
      py      :     0.004767

 13 H s       :     0.883663  s :     0.883663
      pz      :     0.003338  p :     0.016706
      px      :     0.003043
      py      :     0.010325


------------------------
MULLIKEN OVERLAP CHARGES
------------------------
B(  0-C ,  1-C ) :   0.7784 B(  0-C ,  2-H ) :   0.7582 B(  0-C ,  3-H ) :   0.7836 
B(  0-C ,  4-H ) :   0.7651 B(  0-C ,  5-O ) :  -0.1512 B(  0-C ,  6-O ) :  -0.1589 
B(  1-C ,  2-H ) :  -0.0610 B(  1-C ,  3-H ) :  -0.0639 B(  1-C ,  5-O ) :   1.2350 
B(  1-C ,  6-O ) :   0.6377 B(  1-C ,  7-C ) :  -0.0854 B(  5-O ,  6-O ) :  -0.1801 
B(  6-O ,  7-C ) :   0.3801 B(  6-O ,  8-C ) :  -0.0918 B(  6-O ,  9-H ) :  -0.0670 
B(  7-C ,  8-C ) :   0.8198 B(  7-C ,  9-H ) :   0.7880 B(  7-C , 10-H ) :   0.8053 
B(  7-C , 11-H ) :  -0.0525 B(  7-C , 13-H ) :  -0.0691 B(  8-C ,  9-H ) :  -0.0726 
B(  8-C , 10-H ) :  -0.0656 B(  8-C , 11-H ) :   0.7962 B(  8-C , 12-H ) :   0.7807 
B(  8-C , 13-H ) :   0.7852 B(  9-H , 10-H ) :  -0.0545 B( 11-H , 13-H ) :  -0.0506 



                      *****************************
                      * MAYER POPULATION ANALYSIS *
                      *****************************

  NA   - Mulliken gross atomic population
  ZA   - Total nuclear charge
  QA   - Mulliken gross atomic charge
  VA   - Mayer's total valence
  BVA  - Mayer's bonded valence
  FA   - Mayer's free valence

  ATOM       NA         ZA         QA         VA         BVA        FA
  0 C      6.1541     6.0000    -0.1541     3.8774     3.8774     0.0000
  1 C      5.6572     6.0000     0.3428     4.0688     4.0688     0.0000
  2 H      0.8806     1.0000     0.1194     0.9663     0.9663     0.0000
  3 H      0.8827     1.0000     0.1173     0.9707     0.9707     0.0000
  4 H      0.8661     1.0000     0.1339     0.9571     0.9571     0.0000
  5 O      8.4414     8.0000    -0.4414     2.0991     2.0991     0.0000
  6 O      8.4605     8.0000    -0.4605     2.0653     2.0653     0.0000
  7 C      5.9536     6.0000     0.0464     3.8556     3.8556     0.0000
  8 C      6.2339     6.0000    -0.2339     3.9464     3.9464     0.0000
  9 H      0.8921     1.0000     0.1079     0.9702     0.9702     0.0000
 10 H      0.8856     1.0000     0.1144     0.9559     0.9559     0.0000
 11 H      0.8963     1.0000     0.1037     0.9706     0.9706    -0.0000
 12 H      0.8955     1.0000     0.1045     0.9616     0.9616     0.0000
 13 H      0.9004     1.0000     0.0996     0.9605     0.9605     0.0000

  Mayer bond orders larger than 0.100000
B(  0-C ,  1-C ) :   1.0112 B(  0-C ,  2-H ) :   0.9529 B(  0-C ,  3-H ) :   0.9595 
B(  0-C ,  4-H ) :   0.9387 B(  1-C ,  5-O ) :   1.9005 B(  1-C ,  6-O ) :   1.1285 
B(  6-O ,  7-C ) :   0.8267 B(  7-C ,  8-C ) :   1.0784 B(  7-C ,  9-H ) :   0.9433 
B(  7-C , 10-H ) :   0.9562 B(  8-C , 11-H ) :   0.9635 B(  8-C , 12-H ) :   0.9613 
B(  8-C , 13-H ) :   0.9626 

-------
TIMINGS
-------

Total SCF time: 0 days 0 hours 0 min 2 sec 

Total time                  ....       2.350 sec
Sum of individual times     ....       2.337 sec  ( 99.4%)

SCF preparation             ....       0.111 sec  (  4.7%)
Fock matrix formation       ....       2.117 sec  ( 90.1%)
  Startup                   ....       0.004 sec  (  0.2% of F)
  Split-RI-J                ....       0.318 sec  ( 15.0% of F)
  XC integration            ....       1.207 sec  ( 57.0% of F)
    XC Preparation          ....       0.000 sec  (  0.0% of XC)
    Basis function eval.    ....       0.257 sec  ( 21.3% of XC)
    Density eval.           ....       0.360 sec  ( 29.8% of XC)
    XC-Functional eval.     ....       0.110 sec  (  9.1% of XC)
    XC-Potential eval.      ....       0.333 sec  ( 27.6% of XC)
  CPCM terms                ....       0.566 sec  ( 26.7% of F)
Diagonalization             ....       0.000 sec  (  0.0%)
Density matrix formation    ....       0.009 sec  (  0.4%)
Total Energy calculation    ....       0.008 sec  (  0.4%)
Population analysis         ....       0.003 sec  (  0.1%)
Orbital Transformation      ....       0.009 sec  (  0.4%)
Orbital Orthonormalization  ....       0.000 sec  (  0.0%)
DIIS solution               ....       0.079 sec  (  3.4%)
Finished LeanSCF after   2.4 sec

Maximum memory used throughout the entire LEANSCF-calculation: 14.0 MB


           ************************************************************
           *        Program running with 4 parallel MPI-processes     *
           *              working on a common directory               *
           ************************************************************

------------------------------------------------------------------------------
                         ORCA PROPERTY INTEGRAL CALCULATIONS
------------------------------------------------------------------------------

GBWName                                   ... inpS.gbw
Number of atoms                           ...     14
Number of basis functions                 ...    142
Max core memory                           ...   8000 MB

Dipole integrals                          ... YES
Quadrupole integrals                      ...  NO
Linear momentum integrals                 ...  NO
Angular momentum integrals                ...  NO
Higher moments length integrals           ...  NO
Higher moments velocity integrals         ...  NO
Kinetic energy integrals                  ...  NO
GIAO right hand sides                     ... YES
GIAO dipole derivative integrals          ...  NO
SOC integrals                             ...  NO
EPR diamagnetic integrals (GIAO)          ...  NO
EPR gauge integrals                       ...  NO
Field gradient integrals                  ...  NO (   0 nuclei)
Spin-dipole/Fermi contact integrals       ...  NO (   0 nuclei)
Contact density integrals                 ...  NO (   0 nuclei)
Nucleus-orbit integrals                   ...  NO (   0 nuclei)
Geometric perturbations                   ...  NO (  14 nuclei)

Tau option for meta-GGA DFT with GIAOs    ... Ad-hoc gauge-invariant
Choice of electric origin   ... Center of mass
Position of electric origin ... (  0.0000, -0.0000,  0.0000) 
Choice of magnetic origin   ... GIAO
Position of magnetic origin ... (  0.0000,  0.0000,  0.0000) 

Calculating integrals                     ... Electric Dipole (Length)     done (  0.0 sec)

Calculating integrals                     ... GIAO Right Hand Sides
     -> RI used in SCF. Same chosen for GIAO calculation.
  One-electron GIAO integrals (SHARK)     ... done (  0.1 sec)
  Calculating G(B)[P]                     ... (RI-J: SHARK-ok) (copy J to G-ok) => dG/dB done (  0.2 sec)
  DFT XC-terms                            ... done (  0.9 sec)
  Extracting occupied and virtual blocks  ... 
  Operator  0  NO=  24 NV= 118 
  Transforming and RHS contribution       ... done
  Adding eps_i * S(B)_ai terms            ... done
  GIAO Right hand sides done (  1.2 sec)


Property integrals calculated in   1.2 sec

Maximum memory used throughout the entire PROPINT-calculation: 16.3 MB

-------------------------   --------------------
FINAL SINGLE POINT ENERGY      -307.610897314120
-------------------------   --------------------



           ************************************************************
           *        Program running with 4 parallel MPI-processes     *
           *              working on a common directory               *
           ************************************************************
------------------------------------------------------------------------------
                            ORCA SCF RESPONSE CALCULATION
------------------------------------------------------------------------------

GBWName                                 ... inpS.gbw
Number of atoms                         ...     14
Number of basis functions               ...    142
Max core memory                         ...   8000 MB

Electric field perturbation             ...  NO
Quadrupolar field perturbation          ...  NO
Magnetic field perturbation (no GIAO)   ...  NO
Magnetic field perturbation (with GIAO) ... YES
Linear momentum (velocity) perturbation ...  NO
Spin-orbit coupling perturbation        ...  NO
Choice of electric origin               ... Center of mass
Position of electric origin             ...     0.000014    -0.000011     0.000004
Choice of magnetic origin               ... GIAO
Position of magnetic origin             ...     0.000000     0.000000     0.000000
Nuclear geometric perturbations         ...  NO (  42 perturbations)
Nucleus-orbit perturbations             ...  NO (   0 perturbations)
Spin-dipole/Fermi contact perturbations ...  NO (   0 perturbations)

Total number of real perturbations      ...      0
Total number of imaginary perturbations ...      3
Total number of triplet perturbations   ...      0
Total number of SOC perturbations       ...      0

Using XC Grid                  ... (inpS.grid_cpscf.tmp) 
Recalculating density on grid  ... (inpS.grho_cpscf0.tmp) done
Calculating the xc-kernel      ... (inpS.fxc_cpscf0.tmp) done

                              ***************************
                              * IMAGINARY PERTURBATIONS *
                              ***************************



-------------------
SHARK CP-SCF DRIVER
-------------------

Dimension of the orbital basis          ...    142
Dimension of the CPSCF-problem          ...   2832
Number of operators                     ...      1
Max. number of iterations               ...    128
Convergence Tolerance                   ... 1.0e-03
Number of perturbations                 ...      3
Perturbation type                       ... IMAGINARY

----------------------------
POPLE LINEAR EQUATION SOLVER
----------------------------

  ITERATION   0:   ||err||_max =   1.8122e-16 (   0.0 sec   3/  3 done)

CP-SCF equations solved in   0.0 sec
Response densities calculated in   0.0 sec

Maximum memory used throughout the entire SCFRESP-calculation: 9.2 MB


           ************************************************************
           *        Program running with 4 parallel MPI-processes     *
           *              working on a common directory               *
           ************************************************************

------------------------------------------------------------------------------
                              ORCA PROPERTY CALCULATIONS
------------------------------------------------------------------------------

GBWName                                 ... inpS.gbw
Number of atoms                         ...     14
Number of basis functions               ...    142
Max core memory                         ...   8000 MB

Electric properties:
Dipole moment                           ... YES
Quadrupole moment                       ...  NO
Static polarizability (Dipole/Dipole)   ...  NO
Static polarizability (Dipole/Quad.)    ...  NO
Static polarizability (Quad./Quad.)     ...  NO
Static polarizability (Velocity)        ...  NO

Atomic electric properties:
Dipole moment                           ...  NO
Quadrupole moment                       ...  NO
Static polarizability                   ...  NO

Choice of electric origin               ... Center of mass
Position of electric origin             ...     0.000014    -0.000011     0.000004

General magnetic properties:
Magnetizability                         ...  NO

EPR properties:
g-Tensor (aka g-matrix)                 ...  NO
Zero-Field splitting spin-orbit         ...  NO
Zero-field splitting spin-spin          ...  NO
Hyperfine couplings                     ...  NO (   0 nuclei)
Quadrupole couplings                    ...  NO (   0 nuclei)
Contact density                         ...  NO (   0 nuclei)

NMR properties:
Chemical shifts                         ... YES (   8 nuclei)
Spin-rotation constants                 ...  NO (   0 nuclei)
Spin-spin couplings                     ...  NO (   0 nuclei,    0 pairs)

Choice of magnetic origin               ... GIAO
Position of magnetic origin             ...     0.000000     0.000000     0.000000

Properties with geometric perturbations:
SCF Hessian                             ...  NO
IR spectrum                             ...  NO
VCD spectrum                            ...  NO
X-ray spectroscopy properties:
SCF XES/XAS/RIXS spectra                ...  NO


-------------
DIPOLE MOMENT
-------------

Method             : SCF
Type of density    : Electron Density
Multiplicity       :   1
Irrep              :   0
Energy             :  -307.6108973141202796 Eh
Relativity type    : 
Basis              : AO
                                X                 Y                 Z
Electronic contribution:     -2.626528395       1.275272849      -1.263864848
Nuclear contribution   :      3.024617533      -2.046933232       1.060925621
                        -----------------------------------------
Total Dipole Moment    :      0.398089138      -0.771660383      -0.202939228
                        -----------------------------------------
Magnitude (a.u.)       :      0.891694476
Magnitude (Debye)      :      2.266507236



--------------------
Rotational spectrum 
--------------------
 
Rotational constants in cm-1:             0.242615             0.077156             0.068498 
Rotational constants in MHz :          7273.418718          2313.070324          2053.520527 

Dipole components along the rotational axes: 
x,y,z [a.u.] :     0.311697    -0.827446     0.115316 
x,y,z [Debye]:     0.792270    -2.103200     0.293110 

 

Dipole moment calculation done in   0.0 sec 
GIAO: Analytic para- and diamagnetic shielding integrals (SHARK)       ... done (  0.0 sec)
-------------------
CHEMICAL SHIELDINGS (ppm)
-------------------

Method             : SCF
Type of density    : Electron Density
Type of derivative : Magnetic Field (with GIAOs) (Direction=X)
Multiplicity       :   1
Irrep              :   0
Relativity type    : 
Basis              : AO
 --------------
 Nucleus   2H :
 --------------

Diamagnetic contribution to the shielding tensor (ppm) : 
            26.455          4.057         1.474
             6.995         32.555         7.330
             4.327          8.657        28.409

Paramagnetic contribution to the shielding tensor (ppm): 
             3.196         -1.478        -0.661
            -5.620         -2.127        -2.981
            -4.186         -5.040         0.531

Total shielding tensor (ppm): 
            29.650          2.579         0.814
             1.376         30.428         4.349
             0.141          3.618        28.940


 Diagonalized sT*s matrix:
 
 sDSO            21.840           24.311           41.267  iso=      29.139
 sPSO             3.582            4.841           -6.822  iso=       0.533
        ---------------  ---------------  ---------------
 Total           25.422           29.152           34.444  iso=      29.673

 Orientation: 
  X          -0.2310834    0.9072152    0.3515126
  Y           0.6617047   -0.1183185    0.7403700
  Z          -0.7132653   -0.4036847    0.5729670

 --------------
 Nucleus   3H :
 --------------

Diamagnetic contribution to the shielding tensor (ppm) : 
            39.950         -1.937        -1.032
            -5.592         24.329         0.578
            -1.532          0.236        19.989

Paramagnetic contribution to the shielding tensor (ppm): 
            -4.905         -1.269         0.321
             5.158          4.544        -0.382
             1.496          0.556         6.026

Total shielding tensor (ppm): 
            35.045         -3.206        -0.711
            -0.434         28.873         0.195
            -0.035          0.792        26.015


 Diagonalized sT*s matrix:
 
 sDSO            19.957           23.492           40.819  iso=      28.089
 sPSO             5.975            4.946           -5.255  iso=       1.888
        ---------------  ---------------  ---------------
 Total           25.931           28.438           35.564  iso=      29.978

 Orientation: 
  X           0.0110604    0.2915965   -0.9564775
  Y          -0.1557001    0.9453712    0.2864101
  Z           0.9877425    0.1457558    0.0558578

 --------------
 Nucleus   4H :
 --------------

Diamagnetic contribution to the shielding tensor (ppm) : 
            24.608          2.594        -1.569
             5.035         29.348        -7.679
            -5.452         -9.083        32.395

Paramagnetic contribution to the shielding tensor (ppm): 
             3.579         -1.482         0.323
            -3.967         -0.089         4.036
             4.300          5.420        -1.633

Total shielding tensor (ppm): 
            28.187          1.112        -1.246
             1.068         29.260        -3.643
            -1.152         -3.663        30.761


 Diagonalized sT*s matrix:
 
 sDSO            22.281           23.103           40.967  iso=      28.784
 sPSO             3.995            4.651           -6.790  iso=       0.619
        ---------------  ---------------  ---------------
 Total           26.276           27.755           34.177  iso=      29.403

 Orientation: 
  X          -0.0554264    0.9640067   -0.2600366
  Y           0.7812646   -0.1202992   -0.6124980
  Z           0.6217343    0.2371060    0.7464765

 --------------
 Nucleus   9H :
 --------------

Diamagnetic contribution to the shielding tensor (ppm) : 
            27.665         -0.353        -0.195
             2.181         38.284        -6.412
            -0.307         -6.744        29.475

Paramagnetic contribution to the shielding tensor (ppm): 
            -0.412          2.498         0.067
            -1.743        -10.792         3.318
            -0.035          2.886        -3.040

Total shielding tensor (ppm): 
            27.253          2.146        -0.128
             0.439         27.493        -3.094
            -0.342         -3.858        26.435


 Diagonalized sT*s matrix:
 
 sDSO            26.716           28.120           40.588  iso=      31.808
 sPSO            -3.385           -1.112           -9.746  iso=      -4.748
        ---------------  ---------------  ---------------
 Total           23.331           27.007           30.842  iso=      27.060

 Orientation: 
  X          -0.1857295   -0.9367144   -0.2967672
  Y           0.6539521    0.1075837   -0.7488474
  Z           0.7333834   -0.3331546    0.5925848

 --------------
 Nucleus  10H :
 --------------

Diamagnetic contribution to the shielding tensor (ppm) : 
            31.214         -2.253        -6.452
            -4.363         24.733         4.451
           -10.096          4.261        34.171

Paramagnetic contribution to the shielding tensor (ppm): 
            -2.081          2.464         3.776
             5.649         -0.829        -3.198
             7.209         -1.362        -3.297

Total shielding tensor (ppm): 
            29.133          0.211        -2.676
             1.286         23.903         1.253
            -2.887          2.899        30.875


 Diagonalized sT*s matrix:
 
 sDSO            23.619           24.283           42.216  iso=      30.039
 sPSO            -0.674            3.592           -9.125  iso=      -2.069
        ---------------  ---------------  ---------------
 Total           22.945           27.875           33.091  iso=      27.970

 Orientation: 
  X          -0.2487023   -0.7962504   -0.5514820
  Y           0.9060745   -0.3924834    0.1580690
  Z          -0.3423101   -0.4603717    0.8190737

 --------------
 Nucleus  11H :
 --------------

Diamagnetic contribution to the shielding tensor (ppm) : 
            29.097         -2.714        -1.603
            -0.312         27.841         5.610
             1.493          5.421        37.995

Paramagnetic contribution to the shielding tensor (ppm): 
             0.906          1.245         1.494
            -1.329          0.037        -3.025
            -1.588         -1.473        -4.843

Total shielding tensor (ppm): 
            30.003         -1.470        -0.109
            -1.641         27.877         2.585
            -0.095          3.948        33.152


 Diagonalized sT*s matrix:
 
 sDSO            24.980           29.668           40.285  iso=      31.644
 sPSO             0.884            0.663           -5.448  iso=      -1.300
        ---------------  ---------------  ---------------
 Total           25.864           30.331           34.838  iso=      30.344

 Orientation: 
  X           0.3153965    0.9349132   -0.1626726
  Y           0.8632975   -0.2115041    0.4582395
  Z          -0.3940083    0.2849620    0.8738159

 --------------
 Nucleus  12H :
 --------------

Diamagnetic contribution to the shielding tensor (ppm) : 
            38.240          6.414         1.639
             7.586         23.434         0.257
             1.812          0.362        22.025

Paramagnetic contribution to the shielding tensor (ppm): 
            -2.103         -2.481        -0.730
            -3.811          5.269        -0.223
            -0.384         -0.139         5.529

Total shielding tensor (ppm): 
            36.137          3.933         0.910
             3.775         28.704         0.035
             1.427          0.223        27.554


 Diagonalized sT*s matrix:
 
 sDSO            20.678           21.857           41.165  iso=      27.900
 sPSO             6.188            5.775           -3.268  iso=       2.898
        ---------------  ---------------  ---------------
 Total           26.866           27.632           37.897  iso=      30.798

 Orientation: 
  X           0.3833816    0.1163939    0.9162265
  Y          -0.7710611   -0.5057496    0.3868877
  Z          -0.5084126    0.8547922    0.1041483

 --------------
 Nucleus  13H :
 --------------

Diamagnetic contribution to the shielding tensor (ppm) : 
            27.741         -4.080         4.120
            -7.317         33.867        -6.137
             5.024         -4.358        28.637

Paramagnetic contribution to the shielding tensor (ppm): 
             1.612          1.596        -1.857
             5.059         -0.576         3.962
            -2.616          0.546         0.640

Total shielding tensor (ppm): 
            29.353         -2.485         2.262
            -2.259         33.291        -2.175
             2.408         -3.812        29.278


 Diagonalized sT*s matrix:
 
 sDSO            23.864           25.426           40.957  iso=      30.082
 sPSO             3.051            3.220           -4.595  iso=       0.559
        ---------------  ---------------  ---------------
 Total           26.915           28.646           36.362  iso=      30.641

 Orientation: 
  X          -0.6124863    0.6709384    0.4179739
  Y           0.1276235    0.6057537   -0.7853500
  Z           0.7801107    0.4276729    0.4566434



--------------------------------
CHEMICAL SHIELDING SUMMARY (ppm)
--------------------------------


  Nucleus  Element    Isotropic     Anisotropy
  -------  -------  ------------   ------------
      2       H           29.673          7.157 
      3       H           29.978          8.379 
      4       H           29.403          7.162 
      9       H           27.060          5.673 
     10       H           27.970          7.680 
     11       H           30.344          6.740 
     12       H           30.798         10.648 
     13       H           30.641          8.582 


NMR shielding tensor and spin rotation calculation done in   0.0 sec 

Maximum memory used throughout the entire PROP-calculation: 9.3 MB

--------------------------------
SUGGESTED CITATIONS FOR THIS RUN
--------------------------------

Below you find a list of papers that are relevant to this ORCA run
We neither can nor want to force you to cite these papers, but we appreciate if you do
You receive ORCA, which is the product of decades of hard work by many enthusiastic individuals, for free
The only thing we kindly ask in return is that you cite our papers,
We deeply appreciate it, if you show your appreciation for ORCA by not just citing the generic ORCA reference.

Please note that relegating all ORCA citations to the supporting information does *not* help us.
SI sections are not indexed - citations you put there will not count into any citation statistics
But we need these citations in order to attract the funding resources that allow us to do what we are doing

Therefore, if you are a happy ORCA user, please consider citing a few of the papers listed below in the main body of your paper

In addition to the list printed below, the program has created the file inpS.bibtex that contains the list in bibtex format
You can import this file easily into all common literature databanks and citation aid programs


List of essential papers. We consider these as the minimum necessary citations

  1. Neese,F.
     Software update: the ORCA program system, version 5.0
     WIRES Comput. Molec. Sci., 2022 12(1)e1606
     doi.org/10.1002/wcms.1606

List of papers to cite with high priority. The work reported in these papers was absolutely
necessary for this run to complete.
Our perspective: the developers of density functionals and basis sets usually get cited in chemistry papers
Good! But without the algorithms to do something with them, the functionals or basis sets would not do anything.
Hence, in our opinion, the algorithm design and method developments papers are equally worthy of getting cited

  1. Neese,F.
     An improvement of the resolution of the identity approximation for the formation of the Coulomb matrix
     J. Comp. Chem., 2003 24(14)1740-1747
     doi.org/10.1002/jcc.10318
  2. Stoychev,G.L.; Auer,A.A.; Izsak,R.; Neese,F.
     Self-Consistent Field Calculation of Nuclear Magnetic Resonance Chemical Shielding Constants Using Gauge-Including Atomic Orbitals and Approximate Two-Electron Integrals
     J. Chem. Theory Comput., 2018 14(2)619-637
     doi.org/10.1021/acs.jctc.7b01006
  3. Garcia-Rates,M.; Neese,F.
     Effect of the Solute Cavity on the Solvation Energy and its Derivatives within the Framework of the Gaussian Charge Scheme
     J. Comput. Chem., 2020 41 922-939
     doi.org/10.1002/jcc.26139
  4. Neese,F.
     The SHARK Integral Generation and Digestion System
     J. Comp. Chem., 2022  1-16
     doi.org/10.1002/jcc.26942

List of suggested additional citations. These are papers that are important in the 'surrounding' of 
of this run, or papers that preceded the highly important papers. If you like your results we are grateful for a citation.

  1. Neese,F.
     The ORCA program system
     WIRES Comput. Molec. Sci., 2012 2(1)73-78
     doi.org/10.1002/wcms.81
  2. Neese,F.
     Software update: the ORCA program system, version 4.0
     WIRES Comput. Molec. Sci., 2018 8(1)1-6
     doi.org/10.1002/wcms.1327
  3. Neese,F.; Wennmohs,F.; Becker,U.; Riplinger,C.
     The ORCA quantum chemistry program package
     J. Chem. Phys., 2020 152 Art. No. L224108
     doi.org/10.1063/5.0004608

Timings for individual modules:

Sum of individual times          ...        4.893 sec (=   0.082 min)
Startup calculation              ...        0.428 sec (=   0.007 min)   8.8 %
SCF iterations                   ...        2.719 sec (=   0.045 min)  55.6 %
Property integrals               ...        1.324 sec (=   0.022 min)  27.1 %
SCF Response                     ...        0.218 sec (=   0.004 min)   4.5 %
Property calculations            ...        0.203 sec (=   0.003 min)   4.1 %
                             ****ORCA TERMINATED NORMALLY****
TOTAL RUN TIME: 0 days 0 hours 0 minutes 5 seconds 60 msec
