
                                 *****************
                                 * O   R   C   A *
                                 *****************

                                            #,                                       
                                            ###                                      
                                            ####                                     
                                            #####                                    
                                            ######                                   
                                           ########,                                 
                                     ,,################,,,,,                         
                               ,,#################################,,                 
                          ,,##########################################,,             
                       ,#########################################, ''#####,          
                    ,#############################################,,   '####,        
                  ,##################################################,,,,####,       
                ,###########''''           ''''###############################       
              ,#####''   ,,,,##########,,,,          '''####'''          '####       
            ,##' ,,,,###########################,,,                        '##       
           ' ,,###''''                  '''############,,,                           
         ,,##''                                '''############,,,,        ,,,,,,###''
      ,#''                                            '''#######################'''  
     '                                                          ''''####''''         
             ,#######,   #######,   ,#######,      ##                                
            ,#'     '#,  ##    ##  ,#'     '#,    #''#        ######   ,####,        
            ##       ##  ##   ,#'  ##            #'  '#       #        #'  '#        
            ##       ##  #######   ##           ,######,      #####,   #    #        
            '#,     ,#'  ##    ##  '#,     ,#' ,#      #,         ##   #,  ,#        
             '#######'   ##     ##  '#######'  #'      '#     #####' # '####'        



                  #######################################################
                  #                        -***-                        #
                  #          Department of theory and spectroscopy      #
                  #    Directorship and core code : Frank Neese         #
                  #        Max Planck Institute fuer Kohlenforschung    #
                  #                Kaiser Wilhelm Platz 1               #
                  #                 D-45470 Muelheim/Ruhr               #
                  #                      Germany                        #
                  #                                                     #
                  #                  All rights reserved                #
                  #                        -***-                        #
                  #######################################################


                         Program Version 5.0.2 -  RELEASE  -


 With contributions from (in alphabetic order):
   Daniel Aravena         : Magnetic Suceptibility
   Michael Atanasov       : Ab Initio Ligand Field Theory (pilot matlab implementation)
   Alexander A. Auer      : GIAO ZORA, VPT2 properties, NMR spectrum
   Ute Becker             : Parallelization
   Giovanni Bistoni       : ED, misc. LED, open-shell LED, HFLD
   Martin Brehm           : Molecular dynamics
   Dmytro Bykov           : SCF Hessian
   Vijay G. Chilkuri      : MRCI spin determinant printing, contributions to CSF-ICE
   Dipayan Datta          : RHF DLPNO-CCSD density
   Achintya Kumar Dutta   : EOM-CC, STEOM-CC
   Dmitry Ganyushin       : Spin-Orbit,Spin-Spin,Magnetic field MRCI
   Miquel Garcia          : C-PCM and meta-GGA Hessian, CC/C-PCM, Gaussian charge scheme
   Yang Guo               : DLPNO-NEVPT2, F12-NEVPT2, CIM, IAO-localization
   Andreas Hansen         : Spin unrestricted coupled pair/coupled cluster methods
   Benjamin Helmich-Paris : MC-RPA, TRAH-SCF, COSX integrals
   Lee Huntington         : MR-EOM, pCC
   Robert Izsak           : Overlap fitted RIJCOSX, COSX-SCS-MP3, EOM
   Marcus Kettner         : VPT2
   Christian Kollmar      : KDIIS, OOCD, Brueckner-CCSD(T), CCSD density, CASPT2, CASPT2-K
   Simone Kossmann        : Meta GGA functionals, TD-DFT gradient, OOMP2, MP2 Hessian
   Martin Krupicka        : Initial AUTO-CI
   Lucas Lang             : DCDCAS
   Marvin Lechner         : AUTO-CI (C++ implementation), FIC-MRCC
   Dagmar Lenk            : GEPOL surface, SMD
   Dimitrios Liakos       : Extrapolation schemes; Compound Job, initial MDCI parallelization
   Dimitrios Manganas     : Further ROCIS development; embedding schemes
   Dimitrios Pantazis     : SARC Basis sets
   Anastasios Papadopoulos: AUTO-CI, single reference methods and gradients
   Taras Petrenko         : DFT Hessian,TD-DFT gradient, ASA, ECA, R-Raman, ABS, FL, XAS/XES, NRVS
   Peter Pinski           : DLPNO-MP2, DLPNO-MP2 Gradient
   Christoph Reimann      : Effective Core Potentials
   Marius Retegan         : Local ZFS, SOC
   Christoph Riplinger    : Optimizer, TS searches, QM/MM, DLPNO-CCSD(T), (RO)-DLPNO pert. Triples
   Tobias Risthaus        : Range-separated hybrids, TD-DFT gradient, RPA, STAB
   Michael Roemelt        : Original ROCIS implementation
   Masaaki Saitow         : Open-shell DLPNO-CCSD energy and density
   Barbara Sandhoefer     : DKH picture change effects
   Avijit Sen             : IP-ROCIS
   Kantharuban Sivalingam : CASSCF convergence, NEVPT2, FIC-MRCI
   Bernardo de Souza      : ESD, SOC TD-DFT
   Georgi Stoychev        : AutoAux, RI-MP2 NMR, DLPNO-MP2 response
   Willem Van den Heuvel  : Paramagnetic NMR
   Boris Wezisla          : Elementary symmetry handling
   Frank Wennmohs         : Technical directorship


 We gratefully acknowledge several colleagues who have allowed us to
 interface, adapt or use parts of their codes:
   Stefan Grimme, W. Hujo, H. Kruse, P. Pracht,  : VdW corrections, initial TS optimization,
                  C. Bannwarth, S. Ehlert          DFT functionals, gCP, sTDA/sTD-DF
   Ed Valeev, F. Pavosevic, A. Kumar             : LibInt (2-el integral package), F12 methods
   Garnet Chan, S. Sharma, J. Yang, R. Olivares  : DMRG
   Ulf Ekstrom                                   : XCFun DFT Library
   Mihaly Kallay                                 : mrcc  (arbitrary order and MRCC methods)
   Jiri Pittner, Ondrej Demel                    : Mk-CCSD
   Frank Weinhold                                : gennbo (NPA and NBO analysis)
   Christopher J. Cramer and Donald G. Truhlar   : smd solvation model
   Lars Goerigk                                  : TD-DFT with DH, B97 family of functionals
   V. Asgeirsson, H. Jonsson                     : NEB implementation
   FAccTs GmbH                                   : IRC, NEB, NEB-TS, DLPNO-Multilevel, CI-OPT
                                                   MM, QMMM, 2- and 3-layer-ONIOM, Crystal-QMMM,
                                                   LR-CPCM, SF, NACMEs, symmetry and pop. for TD-DFT,
                                                   nearIR, NL-DFT gradient (VV10), updates on ESD,
                                                   ML-optimized integration grids
   S Lehtola, MJT Oliveira, MAL Marques          : LibXC Library
   Liviu Ungur et al                             : ANISO software


 Your calculation uses the libint2 library for the computation of 2-el integrals
 For citations please refer to: http://libint.valeyev.net

 Your ORCA version has been built with support for libXC version: 5.1.0
 For citations please refer to: https://tddft.org/programs/libxc/

 This ORCA versions uses:
   CBLAS   interface :  Fast vector & matrix operations
   LAPACKE interface :  Fast linear algebra routines
   SCALAPACK package :  Parallel linear algebra routines
   Shared memory     :  Shared parallel matrices
   BLAS/LAPACK       :  OpenBLAS 0.3.15  USE64BITINT DYNAMIC_ARCH NO_AFFINITY Zen SINGLE_THREADED
        Core in use  :  Zen
   Copyright (c) 2011-2014, The OpenBLAS Project


Your calculation utilizes the atom-pairwise dispersion correction
based on tight binding partial charges (D4)
Cite in your paper:
E.Caldeweyher, C.Bannwarth, S.Grimme, J.Chem.Phys., (2017), 147, 034112.
E.Caldeweyher, S.Ehlert, A.Hansen, H.Neugebauer, S.Grimme, J.Chem.Phys., (2018), in progress.
   

================================================================================

----- Orbital basis set information -----
Your calculation utilizes the basis: pcSseg-1
   F. Jensen, J. Chem. Theory Comput. 11, 132 (2015).

----- AuxJ basis set information -----
Your calculation utilizes the auxiliary basis: def2/J
   F. Weigend, Phys. Chem. Chem. Phys. 8, 1057 (2006).

================================================================================
                                        WARNINGS
                       Please study these warnings very carefully!
================================================================================



WARNING: Found flag for RIJCOSX approximation but no HF exchange needed!
  ===> : RIJCOSX  will be disabled and Split-RI-J is turned on

INFO   : the flag for use of the SHARK integral package has been found!

================================================================================
                                       INPUT FILE
================================================================================
NAME = inpS
|  1> ! revTPSS
|  2> ! D4
|  3> ! pcSseg-1
|  4> ! def2/J RIJCOSX
|  5> ! DEFGRID2
|  6> ! scfconv7
|  7> ! smallprint printgap noloewdin
|  8> ! NOSOSCF
|  9> %MaxCore 4000
| 10> %output
| 11>        print[P_BondOrder_M] 1
| 12>        print[P_Mayer] 1
| 13>        print[P_basis] 2
| 14> end
| 15> %pal
| 16>     nprocs 4
| 17> end
| 18> ! CPCM(chloroform)
| 19> *xyz 0 1
| 20> C   -5.0239014700   0.2170792100  -0.5107102000
| 21> C   -6.4720986600  -0.1715194100  -0.6942168700
| 22> C   -7.3835764800   0.7479105300   0.1285559000
| 23> H   -6.6321841700  -1.2160566800  -0.4039493800
| 24> H   -6.7555824000  -0.0661908000  -1.7519863300
| 25> C   -4.7435942500   1.6431040600  -0.7884673000
| 26> C   -5.6770448300   2.6112811900  -0.0957540600
| 27> C   -7.1491040400   2.2083986000  -0.2611445200
| 28> H   -5.5117671800   3.6281193300  -0.4675546300
| 29> H   -5.4323013800   2.6184128800   0.9773554000
| 30> H   -7.4508125600   2.3384707400  -1.3094144200
| 31> H   -7.7877083600   2.8573744300   0.3492210200
| 32> O   -7.1829851200   0.5351118100   1.5358222000
| 33> H   -8.4322494900   0.4837137400  -0.0554837200
| 34> C   -4.1090696700  -0.6768720200  -0.0654275100
| 35> C   -3.7726780200   2.0499401500  -1.6136348300
| 36> H   -3.1229542900   1.3385523800  -2.1164691000
| 37> H   -3.6135484300   3.1073676300  -1.8115445100
| 38> C   -2.7267080600  -0.3973440300   0.2491941400
| 39> H   -4.4675742000  -1.6923250000   0.0990262300
| 40> C   -1.7815678600  -1.3021095900   0.5816489200
| 41> H   -2.4378518000   0.6509632400   0.2216778800
| 42> C   -1.9750074700  -2.7960003100   0.6379579500
| 43> C   -0.9577757200  -3.5291012500  -0.2583400800
| 44> H   -2.9901382400  -3.0950721900   0.3635712200
| 45> H   -1.8109449700  -3.1199929300   1.6779138300
| 46> C    0.4888888400  -3.0933997900   0.0099941300
| 47> H   -1.2123289700  -3.3464745700  -1.3100278000
| 48> H   -1.0514004000  -4.6102230300  -0.0982100900
| 49> C    0.6548250200  -1.5707851200  -0.0876073400
| 50> H    1.1513659200  -3.6118654400  -0.6910505300
| 51> H    0.7803521700  -3.4115036800   1.0223730100
| 52> C   -0.3680844100  -0.9230552400   0.9005014100
| 53> H   -0.1351558300  -1.3830888200   1.8783980400
| 54> C    0.0608449300   0.5396009500   0.9765517300
| 55> H   -6.2303297700   0.4578741600   1.6874833500
| 56> C    1.6048665700   0.4706479800   0.8839313700
| 57> H   -0.2899996000   1.0236717400   1.8939894100
| 58> H   -0.3471603400   1.1098867000   0.1346214400
| 59> C    1.9768472500  -0.9884022500   0.4835367000
| 60> H    2.0832023000   0.7430104800   1.8300818400
| 61> H    1.9847827100   1.1731926700   0.1328684700
| 62> H    2.1982715400  -1.5574419200   1.4016842800
| 63> C    3.2485314200  -1.0269473800  -0.3879271700
| 64> C    0.4177959900  -1.0806201700  -1.5231899500
| 65> H    0.6432771500  -0.0145180700  -1.6278413200
| 66> H   -0.6226532200  -1.2258072100  -1.8297310900
| 67> H    1.0559168300  -1.6255796400  -2.2276112100
| 68> H    3.0610570600  -0.4426532800  -1.3007929800
| 69> C    3.6709617400  -2.4484525000  -0.7891190800
| 70> C    4.3804543100  -0.3712985400   0.3595192100
| 71> C    5.0745416200   0.6806571900  -0.0739711300
| 72> H    4.6289867800  -0.8332136200   1.3177278900
| 73> H    4.7948326300   1.1175522400  -1.0372515200
| 74> C    6.2214439800   1.3690759900   0.6186613000
| 75> C    6.5786530300   0.7488254200   1.9684437600
| 76> C    5.9530584400   2.8984390400   0.6892959700
| 77> H    7.0988594800   1.2574896000  -0.0417476100
| 78> H    5.6748184200   3.2025443600  -0.3316738600
| 79> C    7.2066157700   3.6871052400   1.0750508900
| 80> C    4.7852020100   3.2488764000   1.6136533300
| 81> H    5.7341453600   0.7874228300   2.6651324000
| 82> H    7.4230723000   1.2688582900   2.4298866400
| 83> H    6.8620632300  -0.3020167600   1.8483953300
| 84> H    8.0545490300   3.4284679900   0.4302799200
| 85> H    7.4984229300   3.4936645100   2.1135508700
| 86> H    7.0256448100   4.7637374900   0.9817964300
| 87> H    3.8893351400   2.6709558200   1.3617488600
| 88> H    4.5388599800   4.3134830000   1.5343281000
| 89> H    5.0365078600   3.0458452000   2.6611412200
| 90> H    2.9521428100  -2.9102471800  -1.4707589900
| 91> H    3.7627812500  -3.0901231600   0.0959078100
| 92> H    4.6435914000  -2.4252573200  -1.2920625300
| 93> *
| 94> %eprnmr
| 95>  Nuclei = all H { shift }
| 96>  origin giao
| 97>  giao_2el giao_2el_same_as_scf
| 98>  giao_1el giao_1el_analytic
| 99> end
|100> 
|101>                          ****END OF INPUT****
================================================================================

                       ****************************
                       * Single Point Calculation *
                       ****************************

---------------------------------
CARTESIAN COORDINATES (ANGSTROEM)
---------------------------------
  C     -5.023901    0.217079   -0.510710
  C     -6.472099   -0.171519   -0.694217
  C     -7.383576    0.747911    0.128556
  H     -6.632184   -1.216057   -0.403949
  H     -6.755582   -0.066191   -1.751986
  C     -4.743594    1.643104   -0.788467
  C     -5.677045    2.611281   -0.095754
  C     -7.149104    2.208399   -0.261145
  H     -5.511767    3.628119   -0.467555
  H     -5.432301    2.618413    0.977355
  H     -7.450813    2.338471   -1.309414
  H     -7.787708    2.857374    0.349221
  O     -7.182985    0.535112    1.535822
  H     -8.432249    0.483714   -0.055484
  C     -4.109070   -0.676872   -0.065428
  C     -3.772678    2.049940   -1.613635
  H     -3.122954    1.338552   -2.116469
  H     -3.613548    3.107368   -1.811545
  C     -2.726708   -0.397344    0.249194
  H     -4.467574   -1.692325    0.099026
  C     -1.781568   -1.302110    0.581649
  H     -2.437852    0.650963    0.221678
  C     -1.975007   -2.796000    0.637958
  C     -0.957776   -3.529101   -0.258340
  H     -2.990138   -3.095072    0.363571
  H     -1.810945   -3.119993    1.677914
  C      0.488889   -3.093400    0.009994
  H     -1.212329   -3.346475   -1.310028
  H     -1.051400   -4.610223   -0.098210
  C      0.654825   -1.570785   -0.087607
  H      1.151366   -3.611865   -0.691051
  H      0.780352   -3.411504    1.022373
  C     -0.368084   -0.923055    0.900501
  H     -0.135156   -1.383089    1.878398
  C      0.060845    0.539601    0.976552
  H     -6.230330    0.457874    1.687483
  C      1.604867    0.470648    0.883931
  H     -0.290000    1.023672    1.893989
  H     -0.347160    1.109887    0.134621
  C      1.976847   -0.988402    0.483537
  H      2.083202    0.743010    1.830082
  H      1.984783    1.173193    0.132868
  H      2.198272   -1.557442    1.401684
  C      3.248531   -1.026947   -0.387927
  C      0.417796   -1.080620   -1.523190
  H      0.643277   -0.014518   -1.627841
  H     -0.622653   -1.225807   -1.829731
  H      1.055917   -1.625580   -2.227611
  H      3.061057   -0.442653   -1.300793
  C      3.670962   -2.448452   -0.789119
  C      4.380454   -0.371299    0.359519
  C      5.074542    0.680657   -0.073971
  H      4.628987   -0.833214    1.317728
  H      4.794833    1.117552   -1.037252
  C      6.221444    1.369076    0.618661
  C      6.578653    0.748825    1.968444
  C      5.953058    2.898439    0.689296
  H      7.098859    1.257490   -0.041748
  H      5.674818    3.202544   -0.331674
  C      7.206616    3.687105    1.075051
  C      4.785202    3.248876    1.613653
  H      5.734145    0.787423    2.665132
  H      7.423072    1.268858    2.429887
  H      6.862063   -0.302017    1.848395
  H      8.054549    3.428468    0.430280
  H      7.498423    3.493665    2.113551
  H      7.025645    4.763737    0.981796
  H      3.889335    2.670956    1.361749
  H      4.538860    4.313483    1.534328
  H      5.036508    3.045845    2.661141
  H      2.952143   -2.910247   -1.470759
  H      3.762781   -3.090123    0.095908
  H      4.643591   -2.425257   -1.292063

----------------------------
CARTESIAN COORDINATES (A.U.)
----------------------------
  NO LB      ZA    FRAG     MASS         X           Y           Z
   0 C     6.0000    0    12.011   -9.493798    0.410220   -0.965102
   1 C     6.0000    0    12.011  -12.230494   -0.324125   -1.311880
   2 C     6.0000    0    12.011  -13.952937    1.413346    0.242935
   3 H     1.0000    0     1.008  -12.533012   -2.298014   -0.763354
   4 H     1.0000    0     1.008  -12.766201   -0.125082   -3.310774
   5 C     6.0000    0    12.011   -8.964094    3.105017   -1.489987
   6 C     6.0000    0    12.011  -10.728060    4.934606   -0.180949
   7 C     6.0000    0    12.011  -13.509849    4.173269   -0.493492
   8 H     1.0000    0     1.008  -10.415730    6.856152   -0.883550
   9 H     1.0000    0     1.008  -10.265562    4.948083    1.846934
  10 H     1.0000    0     1.008  -14.079995    4.419069   -2.474435
  11 H     1.0000    0     1.008  -14.716636    5.399655    0.659932
  12 O     8.0000    0    15.999  -13.573875    1.011215    2.902283
  13 H     1.0000    0     1.008  -15.934642    0.914086   -0.104849
  14 C     6.0000    0    12.011   -7.765016   -1.279103   -0.123640
  15 C     6.0000    0    12.011   -7.129328    3.873825   -3.049328
  16 H     1.0000    0     1.008   -5.901528    2.529497   -3.999547
  17 H     1.0000    0     1.008   -6.828617    5.872074   -3.423323
  18 C     6.0000    0    12.011   -5.152731   -0.750871    0.470909
  19 H     1.0000    0     1.008   -8.442492   -3.198031    0.187132
  20 C     6.0000    0    12.011   -3.366675   -2.460631    1.099157
  21 H     1.0000    0     1.008   -4.606872    1.230142    0.418910
  22 C     6.0000    0    12.011   -3.732223   -5.283675    1.205566
  23 C     6.0000    0    12.011   -1.809934   -6.669035   -0.488192
  24 H     1.0000    0     1.008   -5.650542   -5.848839    0.687050
  25 H     1.0000    0     1.008   -3.422190   -5.895932    3.170798
  26 C     6.0000    0    12.011    0.923866   -5.845678    0.018886
  27 H     1.0000    0     1.008   -2.290970   -6.323920   -2.475594
  28 H     1.0000    0     1.008   -1.986859   -8.712059   -0.185590
  29 C     6.0000    0    12.011    1.237440   -2.968354   -0.165554
  30 H     1.0000    0     1.008    2.175766   -6.825437   -1.305896
  31 H     1.0000    0     1.008    1.474652   -6.446808    1.932005
  32 C     6.0000    0    12.011   -0.695579   -1.744322    1.701701
  33 H     1.0000    0     1.008   -0.255408   -2.613659    3.549658
  34 C     6.0000    0    12.011    0.114980    1.019698    1.845415
  35 H     1.0000    0     1.008  -11.773617    0.865257    3.188881
  36 C     6.0000    0    12.011    3.032758    0.889396    1.670388
  37 H     1.0000    0     1.008   -0.548020    1.934459    3.579121
  38 H     1.0000    0     1.008   -0.656038    2.097382    0.254398
  39 C     6.0000    0    12.011    3.735700   -1.867810    0.913752
  40 H     1.0000    0     1.008    3.936682    1.404086    3.458353
  41 H     1.0000    0     1.008    3.750696    2.217013    0.251085
  42 H     1.0000    0     1.008    4.154131   -2.943139    2.648799
  43 C     6.0000    0    12.011    6.138835   -1.940649   -0.733076
  44 C     6.0000    0    12.011    0.789520   -2.042076   -2.878412
  45 H     1.0000    0     1.008    1.215618   -0.027435   -3.076174
  46 H     1.0000    0     1.008   -1.176644   -2.316440   -3.457691
  47 H     1.0000    0     1.008    1.995394   -3.071900   -4.209575
  48 H     1.0000    0     1.008    5.784560   -0.836493   -2.458142
  49 C     6.0000    0    12.011    6.937112   -4.626905   -1.491219
  50 C     6.0000    0    12.011    8.277859   -0.701653    0.679393
  51 C     6.0000    0    12.011    9.589494    1.286256   -0.139785
  52 H     1.0000    0     1.008    8.747517   -1.574546    2.490145
  53 H     1.0000    0     1.008    9.060921    2.111868   -1.960121
  54 C     6.0000    0    12.011   11.756825    2.587179    1.169100
  55 C     6.0000    0    12.011   12.431853    1.415075    3.719820
  56 C     6.0000    0    12.011   11.249650    5.477256    1.302581
  57 H     1.0000    0     1.008   13.414900    2.376311   -0.078892
  58 H     1.0000    0     1.008   10.723853    6.051932   -0.626773
  59 C     6.0000    0    12.011   13.618530    6.967619    2.031552
  60 C     6.0000    0    12.011    9.042721    6.139487    3.049363
  61 H     1.0000    0     1.008   10.835964    1.488014    5.036370
  62 H     1.0000    0     1.008   14.027574    2.397795    4.591820
  63 H     1.0000    0     1.008   12.967420   -0.570729    3.492961
  64 H     1.0000    0     1.008   15.220892    6.478866    0.813111
  65 H     1.0000    0     1.008   14.169966    6.602069    3.994032
  66 H     1.0000    0     1.008   13.276545    9.002159    1.855326
  67 H     1.0000    0     1.008    7.349778    5.047375    2.573332
  68 H     1.0000    0     1.008    8.577202    8.151302    2.899460
  69 H     1.0000    0     1.008    9.517621    5.755813    5.028828
  70 H     1.0000    0     1.008    5.578741   -5.499570   -2.779332
  71 H     1.0000    0     1.008    7.110626   -5.839486    0.181239
  72 H     1.0000    0     1.008    8.775116   -4.583072   -2.441644

--------------------------------
INTERNAL COORDINATES (ANGSTROEM)
--------------------------------
 C      0   0   0     0.000000000000     0.00000000     0.00000000
 C      1   0   0     1.510615333738     0.00000000     0.00000000
 C      2   1   0     1.533981180450   110.50544173     0.00000000
 H      2   1   3     1.095874397311   110.67473405   237.86676682
 H      2   1   3     1.100151524763   109.82810899   118.76664158
 C      1   2   3     1.479617523890   114.00029957   306.32731335
 C      6   1   2     1.512794954126   114.45370039    49.53829506
 C      3   2   1     1.529663082211   110.15400048    56.73450367
 H      7   6   1     1.095222428733   110.22002662   188.84276625
 H      7   6   1     1.100688025946   108.26275818    72.19181438
 H      8   3   2     1.098552036041   108.30359927    64.34618115
 H      8   3   2     1.096143785215   109.51893957   181.34025213
 O      3   2   1     1.437330382360   110.70048949   292.72465016
 H      3   2   1     1.096989337906   109.49247983   177.20095971
 C      1   2   3     1.354379082061   121.17792876   123.24157762
 C      6   1   2     1.337570701821   123.12498083   231.43793990
 H     16   6   1     1.086763906153   121.35289721   359.07035122
 H     16   6   1     1.087494065874   120.94649441   178.45809630
 C     15   1   2     1.445007370446   126.16272900   185.24065332
 H     15   1   2     1.089364624550   116.27009971     3.08878747
 C     19  15   1     1.349969220747   126.42278479   186.15829908
 H     19  15   1     1.087723869298   115.78360567     6.87736093
 C     21  19  15     1.507414698376   125.70098793     2.50503981
 C     23  21  19     1.541281148921   111.40513009   124.17255099
 H     23  21  19     1.093262341439   112.38845151     0.62221043
 H     23  21  19     1.101542533935   107.91712823   242.70148027
 C     24  23  21     1.534495799819   112.67296140    51.35206561
 H     24  23  21     1.097359066911   108.96976851   289.20322370
 H     24  23  21     1.096919093458   109.12133154   173.27981698
 C     27  24  23     1.534736555920   111.87026645   306.31568025
 H     27  24  23     1.095055307767   108.90268349   182.84025000
 H     27  24  23     1.100478057136   109.17690156    66.37166566
 C     21  19  15     1.497759851931   122.92457987   180.31364127
 H     33  21  19     1.105517271269   106.36995286   127.57027876
 C     33  21  19     1.526147817228   121.22496751     5.00546276
 H     13   3   2     0.967739104759   107.61613957    42.65671653
 C     35  33  21     1.548333254809   103.56858180   196.87500352
 H     35  33  21     1.095038040730   112.04712728    74.88166794
 H     35  33  21     1.095691904789   110.84736100   315.27222686
 C     30  27  24     1.553421416844   116.14057173   166.16959824
 H     37  35  33     1.094617336736   111.89985172   249.43310456
 H     37  35  33     1.096357968291   110.97760312   130.82671019
 H     40  30  27     1.102646743475   106.47350861   320.91016804
 C     40  30  27     1.542114013940   118.98983355    81.70942338
 C     30  27  24     1.535363758008   111.06942514   294.00628642
 H     45  30  27     1.094699662182   111.62295926   186.40777344
 H     45  30  27     1.094340580298   111.48962294    66.35049912
 H     45  30  27     1.095622353699   110.63716063   306.24531396
 H     44  40  30     1.099941006609   108.37098768    60.89487090
 C     44  40  30     1.536254904009   113.41947817   300.01730560
 C     44  40  30     1.506585849288   109.16707471   178.26343352
 C     51  44  40     1.332772271116   124.98785752   238.41893645
 H     51  44  40     1.092381711767   114.96712276    59.38377720
 H     52  51  44     1.094085697539   117.93133541     1.14653780
 C     52  51  44     1.506335006117   127.42221737   180.67777380
 C     55  52  51     1.527816011276   113.49762880   359.74044527
 C     55  52  51     1.554339536071   109.82205828   231.42641482
 H     55  52  51     1.103833959652   106.49376031   117.89237140
 H     57  55  52     1.101034489992   105.85817705   310.29241235
 C     57  55  52     1.530427134144   112.15211582   193.51264964
 C     57  55  52     1.530075656091   112.61879859    67.72956093
 H     56  55  52     1.095471599747   111.55029945   299.87578484
 H     56  55  52     1.093804196797   111.11209100   179.22035752
 H     56  55  52     1.094989613776   110.68681063    59.70575198
 H     60  57  55     1.096181392041   111.33047624    52.13067719
 H     60  57  55     1.095925610208   111.46824042   291.40639644
 H     60  57  55     1.095711588153   110.46380046   172.15708888
 H     61  57  55     1.095456757502   111.37384761   307.93846994
 H     61  57  55     1.095611290843   110.51345365   187.65500705
 H     61  57  55     1.096178442643   111.09321458    68.41633422
 H     50  44  40     1.092972070781   111.89938587    67.37088116
 H     50  44  40     1.097016250720   110.70544781   306.68507209
 H     50  44  40     1.095216227868   110.15276419   187.34023340

---------------------------
INTERNAL COORDINATES (A.U.)
---------------------------
 C      0   0   0     0.000000000000     0.00000000     0.00000000
 C      1   0   0     2.854649274467     0.00000000     0.00000000
 C      2   1   0     2.898804325639   110.50544173     0.00000000
 H      2   1   3     2.070902488094   110.67473405   237.86676682
 H      2   1   3     2.078985087617   109.82810899   118.76664158
 C      1   2   3     2.796071903103   114.00029957   306.32731335
 C      6   1   2     2.858768160076   114.45370039    49.53829506
 C      3   2   1     2.890644302549   110.15400048    56.73450367
 H      7   6   1     2.069670446034   110.22002662   188.84276625
 H      7   6   1     2.079998927925   108.26275818    72.19181438
 H      8   3   2     2.075962491980   108.30359927    64.34618115
 H      8   3   2     2.071411557457   109.51893957   181.34025213
 O      3   2   1     2.716160786625   110.70048949   292.72465016
 H      3   2   1     2.073009420473   109.49247983   177.20095971
 C      1   2   3     2.559405546606   121.17792876   123.24157762
 C      6   1   2     2.527642311199   123.12498083   231.43793990
 H     16   6   1     2.053686154860   121.35289721   359.07035122
 H     16   6   1     2.055065956766   120.94649441   178.45809630
 C     15   1   2     2.730668191641   126.16272900   185.24065332
 H     15   1   2     2.058600800382   116.27009971     3.08878747
 C     19  15   1     2.551072116434   126.42278479   186.15829908
 H     19  15   1     2.055500222302   115.78360567     6.87736093
 C     21  19  15     2.848600950177   125.70098793     2.50503981
 C     23  21  19     2.912599266836   111.40513009   124.17255099
 H     23  21  19     2.065966417848   112.38845151     0.62221043
 H     23  21  19     2.081613714002   107.91712823   242.70148027
 C     24  23  21     2.899776815311   112.67296140    51.35206561
 H     24  23  21     2.073708107038   108.96976851   289.20322370
 H     24  23  21     2.072876677705   109.12133154   173.27981698
 C     27  24  23     2.900231778407   111.87026645   306.31568025
 H     27  24  23     2.069354633177   108.90268349   182.84025000
 H     27  24  23     2.079602144377   109.17690156    66.37166566
 C     21  19  15     2.830355934532   122.92457987   180.31364127
 H     33  21  19     2.089124879018   106.36995286   127.57027876
 C     33  21  19     2.884001414443   121.22496751     5.00546276
 H     13   3   2     1.828761877081   107.61613957    42.65671653
 C     35  33  21     2.925925815631   103.56858180   196.87500352
 H     35  33  21     2.069322003206   112.04712728    74.88166794
 H     35  33  21     2.070557627206   110.84736100   315.27222686
 C     30  27  24     2.935541048404   116.14057173   166.16959824
 H     37  35  33     2.068526987873   111.89985172   249.43310456
 H     37  35  33     2.071816304813   110.97760312   130.82671019
 H     40  30  27     2.083700367627   106.47350861   320.91016804
 C     40  30  27     2.914173153629   118.98983355    81.70942338
 C     30  27  24     2.901417018584   111.06942514   294.00628642
 H     45  30  27     2.068682560421   111.62295926   186.40777344
 H     45  30  27     2.068003993999   111.48962294    66.35049912
 H     45  30  27     2.070426194693   110.63716063   306.24531396
 H     44  40  30     2.078587265960   108.37098768    60.89487090
 C     44  40  30     2.903101040470   113.41947817   300.01730560
 C     44  40  30     2.847034652395   109.16707471   178.26343352
 C     51  44  40     2.518574591294   124.98785752   238.41893645
 H     51  44  40     2.064302268944   114.96712276    59.38377720
 H     52  51  44     2.067522335389   117.93133541     1.14653780
 C     52  51  44     2.846560627500   127.42221737   180.67777380
 C     55  52  51     2.887153844331   113.49762880   359.74044527
 C     55  52  51     2.937276042300   109.82205828   231.42641482
 H     55  52  51     2.085943881064   106.49376031   117.89237140
 H     57  55  52     2.080653650087   105.85817705   310.29241235
 C     57  55  52     2.892088151454   112.15211582   193.51264964
 C     57  55  52     2.891423954192   112.61879859    67.72956093
 H     56  55  52     2.070141311011   111.55029945   299.87578484
 H     56  55  52     2.066990376080   111.11209100   179.22035752
 H     56  55  52     2.069230489524   110.68681063    59.70575198
 H     60  57  55     2.071482624058   111.33047624    52.13067719
 H     60  57  55     2.070999266444   111.46824042   291.40639644
 H     60  57  55     2.070594823374   110.46380046   172.15708888
 H     61  57  55     2.070113263232   111.37384761   307.93846994
 H     61  57  55     2.070405288925   110.51345365   187.65500705
 H     61  57  55     2.071477050503   111.09321458    68.41633422
 H     50  44  40     2.065417885801   111.89938587    67.37088116
 H     50  44  40     2.073060278323   110.70544781   306.68507209
 H     50  44  40     2.069658728096   110.15276419   187.34023340

---------------------
BASIS SET INFORMATION
---------------------
There are 3 groups of distinct atoms

 Group   1 Type C   : 8s5p1d contracted to 3s3p1d pattern {521/311/1}
 Group   2 Type H   : 4s2p contracted to 2s1p pattern {31/2}
 Group   3 Type O   : 8s5p1d contracted to 3s3p1d pattern {521/311/1}

Atom   0C    basis set group =>   1
Atom   1C    basis set group =>   1
Atom   2C    basis set group =>   1
Atom   3H    basis set group =>   2
Atom   4H    basis set group =>   2
Atom   5C    basis set group =>   1
Atom   6C    basis set group =>   1
Atom   7C    basis set group =>   1
Atom   8H    basis set group =>   2
Atom   9H    basis set group =>   2
Atom  10H    basis set group =>   2
Atom  11H    basis set group =>   2
Atom  12O    basis set group =>   3
Atom  13H    basis set group =>   2
Atom  14C    basis set group =>   1
Atom  15C    basis set group =>   1
Atom  16H    basis set group =>   2
Atom  17H    basis set group =>   2
Atom  18C    basis set group =>   1
Atom  19H    basis set group =>   2
Atom  20C    basis set group =>   1
Atom  21H    basis set group =>   2
Atom  22C    basis set group =>   1
Atom  23C    basis set group =>   1
Atom  24H    basis set group =>   2
Atom  25H    basis set group =>   2
Atom  26C    basis set group =>   1
Atom  27H    basis set group =>   2
Atom  28H    basis set group =>   2
Atom  29C    basis set group =>   1
Atom  30H    basis set group =>   2
Atom  31H    basis set group =>   2
Atom  32C    basis set group =>   1
Atom  33H    basis set group =>   2
Atom  34C    basis set group =>   1
Atom  35H    basis set group =>   2
Atom  36C    basis set group =>   1
Atom  37H    basis set group =>   2
Atom  38H    basis set group =>   2
Atom  39C    basis set group =>   1
Atom  40H    basis set group =>   2
Atom  41H    basis set group =>   2
Atom  42H    basis set group =>   2
Atom  43C    basis set group =>   1
Atom  44C    basis set group =>   1
Atom  45H    basis set group =>   2
Atom  46H    basis set group =>   2
Atom  47H    basis set group =>   2
Atom  48H    basis set group =>   2
Atom  49C    basis set group =>   1
Atom  50C    basis set group =>   1
Atom  51C    basis set group =>   1
Atom  52H    basis set group =>   2
Atom  53H    basis set group =>   2
Atom  54C    basis set group =>   1
Atom  55C    basis set group =>   1
Atom  56C    basis set group =>   1
Atom  57H    basis set group =>   2
Atom  58H    basis set group =>   2
Atom  59C    basis set group =>   1
Atom  60C    basis set group =>   1
Atom  61H    basis set group =>   2
Atom  62H    basis set group =>   2
Atom  63H    basis set group =>   2
Atom  64H    basis set group =>   2
Atom  65H    basis set group =>   2
Atom  66H    basis set group =>   2
Atom  67H    basis set group =>   2
Atom  68H    basis set group =>   2
Atom  69H    basis set group =>   2
Atom  70H    basis set group =>   2
Atom  71H    basis set group =>   2
Atom  72H    basis set group =>   2

-------------------------
BASIS SET IN INPUT FORMAT
-------------------------

 # Basis set for element : H 
 NewGTO H 
 S 3 
   1      12.2518000000      0.0372173893
   2       1.8687100000      0.2538082070
   3       0.4182080000      0.7973867639
 S 1 
   1       0.1061000000      1.0000000000
 P 2 
   1       9.0000000000      0.0402678705
   2       1.0000000000      0.9880231245
  end;

 # Basis set for element : C 
 NewGTO C 
 S 5 
   1    1243.2000000000      0.0056300977
   2     187.1450000000      0.0419506039
   3      42.5126000000      0.1846643605
   4      11.7393000000      0.4665574214
   5       3.5054800000      0.4482347783
 S 2 
   1       5.3908900000     -0.1481148174
   2       0.4933410000      1.0519817143
 S 1 
   1       0.1497410000      1.0000000000
 P 3 
   1      59.6736000000      0.0113906672
   2       9.1805600000      0.1672414929
   3       1.9365800000      0.9041087436
 P 1 
   1       0.5262960000      1.0000000000
 P 1 
   1       0.1363190000      1.0000000000
 D 1 
   1       0.8000000000      1.0000000000
  end;

 # Basis set for element : O 
 NewGTO O 
 S 5 
   1    2288.6400000000      0.0054511382
   2     344.4160000000      0.0407189228
   3      78.2538000000      0.1813694209
   4      21.7195000000      0.4655368202
   5       6.5590700000      0.4512113212
 S 2 
   1      10.4656000000     -0.1502112012
   2       0.9643510000      1.0528679834
 S 1 
   1       0.2851270000      1.0000000000
 P 3 
   1     110.8840000000      0.0113058003
   2      17.0590000000      0.1699226452
   3       3.6899900000      0.9008060328
 P 1 
   1       0.9929960000      1.0000000000
 P 1 
   1       0.2449240000      1.0000000000
 D 1 
   1       1.0000000000      1.0000000000
  end;

---------------------------------
AUXILIARY/J BASIS SET INFORMATION
---------------------------------
There are 3 groups of distinct atoms

 Group   1 Type C   : 12s5p4d2f1g contracted to 6s4p3d1f1g pattern {711111/2111/211/2/1}
 Group   2 Type H   : 5s2p1d contracted to 3s1p1d pattern {311/2/1}
 Group   3 Type O   : 12s5p4d2f1g contracted to 6s4p3d1f1g pattern {711111/2111/211/2/1}

Atom   0C    basis set group =>   1
Atom   1C    basis set group =>   1
Atom   2C    basis set group =>   1
Atom   3H    basis set group =>   2
Atom   4H    basis set group =>   2
Atom   5C    basis set group =>   1
Atom   6C    basis set group =>   1
Atom   7C    basis set group =>   1
Atom   8H    basis set group =>   2
Atom   9H    basis set group =>   2
Atom  10H    basis set group =>   2
Atom  11H    basis set group =>   2
Atom  12O    basis set group =>   3
Atom  13H    basis set group =>   2
Atom  14C    basis set group =>   1
Atom  15C    basis set group =>   1
Atom  16H    basis set group =>   2
Atom  17H    basis set group =>   2
Atom  18C    basis set group =>   1
Atom  19H    basis set group =>   2
Atom  20C    basis set group =>   1
Atom  21H    basis set group =>   2
Atom  22C    basis set group =>   1
Atom  23C    basis set group =>   1
Atom  24H    basis set group =>   2
Atom  25H    basis set group =>   2
Atom  26C    basis set group =>   1
Atom  27H    basis set group =>   2
Atom  28H    basis set group =>   2
Atom  29C    basis set group =>   1
Atom  30H    basis set group =>   2
Atom  31H    basis set group =>   2
Atom  32C    basis set group =>   1
Atom  33H    basis set group =>   2
Atom  34C    basis set group =>   1
Atom  35H    basis set group =>   2
Atom  36C    basis set group =>   1
Atom  37H    basis set group =>   2
Atom  38H    basis set group =>   2
Atom  39C    basis set group =>   1
Atom  40H    basis set group =>   2
Atom  41H    basis set group =>   2
Atom  42H    basis set group =>   2
Atom  43C    basis set group =>   1
Atom  44C    basis set group =>   1
Atom  45H    basis set group =>   2
Atom  46H    basis set group =>   2
Atom  47H    basis set group =>   2
Atom  48H    basis set group =>   2
Atom  49C    basis set group =>   1
Atom  50C    basis set group =>   1
Atom  51C    basis set group =>   1
Atom  52H    basis set group =>   2
Atom  53H    basis set group =>   2
Atom  54C    basis set group =>   1
Atom  55C    basis set group =>   1
Atom  56C    basis set group =>   1
Atom  57H    basis set group =>   2
Atom  58H    basis set group =>   2
Atom  59C    basis set group =>   1
Atom  60C    basis set group =>   1
Atom  61H    basis set group =>   2
Atom  62H    basis set group =>   2
Atom  63H    basis set group =>   2
Atom  64H    basis set group =>   2
Atom  65H    basis set group =>   2
Atom  66H    basis set group =>   2
Atom  67H    basis set group =>   2
Atom  68H    basis set group =>   2
Atom  69H    basis set group =>   2
Atom  70H    basis set group =>   2
Atom  71H    basis set group =>   2
Atom  72H    basis set group =>   2

-------------------------------------
AUXILIARY/J BASIS SET IN INPUT FORMAT
-------------------------------------

 # Auxiliary/J basis set for element : H 
 NewAuxJGTO H 
 S 3 
   1      15.6752927000      0.1007184237
   2       3.6063578000      0.3404257499
   3       1.2080016000      0.6491996172
 S 1 
   1       0.4726794000      1.0000000000
 S 1 
   1       0.2018100000      1.0000000000
 P 2 
   1       2.0281365000      0.5596620919
   2       0.5358730000      0.5596620919
 D 1 
   1       2.2165124000      1.0000000000
  end;

 # Auxiliary/J basis set for element : C 
 NewAuxJGTO C 
 S 7 
   1    1861.0916331000      0.0134602335
   2     642.9939764000      0.0299160374
   3     235.1105725000      0.1008649584
   4      90.7028894000      0.2370970548
   5      36.7794552000      0.3924037254
   6      15.6046273000      0.3195862154
   7       6.8907294000      0.0530104441
 S 1 
   1       3.1478850000     -1.0000000000
 S 1 
   1       1.4777287000      1.0000000000
 S 1 
   1       0.7076466000      1.0000000000
 S 1 
   1       0.3430122000      1.0000000000
 S 1 
   1       0.1669453000      1.0000000000
 P 2 
   1      13.5472892000     -0.6769313712
   2       5.4669419000     -0.3779500978
 P 1 
   1       2.1751721000      1.0000000000
 P 1 
   1       0.8582194000      1.0000000000
 P 1 
   1       0.3376720000      1.0000000000
 D 2 
   1       5.9287253000     -0.3533329857
   2       1.9809209000     -0.7456525731
 D 1 
   1       0.8055417000     -1.0000000000
 D 1 
   1       0.3531244000     -1.0000000000
 F 2 
   1       1.6755626000      0.6311076882
   2       0.5997536000      0.4968166032
 G 1 
   1       1.0024600000     -1.0000000000
  end;

 # Auxiliary/J basis set for element : O 
 NewAuxJGTO O 
 S 7 
   1    2876.8216605000      0.0168151159
   2    1004.7443032000      0.0340137548
   3     369.7579954000      0.1194951309
   4     142.9442404000      0.2664627624
   5      57.8366425000      0.4202764046
   6      24.3864983000      0.2765077335
   7      10.6622662000      0.0057008815
 S 1 
   1       4.8070437000     -1.0000000000
 S 1 
   1       2.2210770000      1.0000000000
 S 1 
   1       1.0447795000      1.0000000000
 S 1 
   1       0.4968425000      1.0000000000
 S 1 
   1       0.2371384000      1.0000000000
 P 2 
   1      64.2613382000     -0.2731534179
   2      16.3006076000     -0.8168011598
 P 1 
   1       4.3550542000      1.0000000000
 P 1 
   1       1.2019554000      1.0000000000
 P 1 
   1       0.3354196000      1.0000000000
 D 2 
   1       9.2146611000     -0.4661230638
   2       2.8435251000     -0.6600908911
 D 1 
   1       0.9955759000     -1.0000000000
 D 1 
   1       0.3649441000     -1.0000000000
 F 2 
   1       2.6420115000      0.5931563945
   2       0.7345613000      0.5931563945
 G 1 
   1       1.3931000000     -1.0000000000
  end;



           ************************************************************
           *        Program running with 4 parallel MPI-processes     *
           *              working on a common directory               *
           ************************************************************
------------------------------------------------------------------------------
                           ORCA GTO INTEGRAL CALCULATION
                           -- RI-GTO INTEGRALS CHOSEN --
------------------------------------------------------------------------------
------------------------------------------------------------------------------
                   ___                                                        
                  /   \      - P O W E R E D   B Y -                         
                 /     \                                                     
                 |  |  |   _    _      __       _____    __    __             
                 |  |  |  | |  | |    /  \     |  _  \  |  |  /  |          
                  \  \/   | |  | |   /    \    | | | |  |  | /  /          
                 / \  \   | |__| |  /  /\  \   | |_| |  |  |/  /          
                |  |  |   |  __  | /  /__\  \  |    /   |      \           
                |  |  |   | |  | | |   __   |  |    \   |  |\   \          
                \     /   | |  | | |  |  |  |  | |\  \  |  | \   \       
                 \___/    |_|  |_| |__|  |__|  |_| \__\ |__|  \__/        
                                                                              
                      - O R C A' S   B I G   F R I E N D -                    
                                      &                                       
                       - I N T E G R A L  F E E D E R -                       
                                                                              
 v1 FN, 2020, v2 2021                                                         
------------------------------------------------------------------------------


Reading SHARK input file inpS.SHARKINP.tmp ... ok
----------------------
SHARK INTEGRAL PACKAGE
----------------------

Number of atoms                             ...     73
Number of basis functions                   ...    713
Number of shells                            ...    335
Maximum angular momentum                    ...      2
Integral batch strategy                     ... SHARK/LIBINT Hybrid
RI-J (if used) integral strategy            ... SPLIT-RIJ (Revised 2003 algorithm where possible)
Printlevel                                  ...      1
Contraction scheme used                     ... SEGMENTED contraction
Coulomb Range Separation                    ... NOT USED
Exchange Range Separation                   ... NOT USED
Finite Nucleus Model                        ... NOT USED
Auxiliary Coulomb fitting basis             ... AVAILABLE
   # of basis functions in Aux-J            ...   1905
   # of shells in Aux-J                     ...    655
   Maximum angular momentum in Aux-J        ...      4
Auxiliary J/K fitting basis                 ... NOT available
Auxiliary Correlation fitting basis         ... NOT available
Auxiliary 'external' fitting basis          ... NOT available
Integral threshold                          ...     3.000000e-11
Primitive cut-off                           ...     1.000000e-12
Primitive pair pre-selection threshold      ...     1.000000e-12

Calculating pre-screening integrals         ... done (  0.0 sec) Dimension = 335
Organizing shell pair data                  ... done (  0.1 sec)
Shell pair information
Total number of shell pairs                 ...     56280
Shell pairs after pre-screening             ...     31868
Total number of primitive shell pairs       ...    225367
Primitive shell pairs kept                  ...     75020
          la=0 lb=0:   9766 shell pairs
          la=1 lb=0:  13091 shell pairs
          la=1 lb=1:   4272 shell pairs
          la=2 lb=0:   2776 shell pairs
          la=2 lb=1:   1769 shell pairs
          la=2 lb=2:    194 shell pairs

Calculating one electron integrals          ... done (  0.1 sec)
Calculating RI/J V-Matrix + Cholesky decomp.... done (  0.1 sec)
Calculating Nuclear repulsion               ... done (  0.0 sec) ENN=   2796.458319548219 Eh

SHARK setup successfully completed in   0.6 seconds

Maximum memory used throughout the entire GTOINT-calculation: 61.4 MB


           ************************************************************
           *        Program running with 4 parallel MPI-processes     *
           *              working on a common directory               *
           ************************************************************
-------------------------------------------------------------------------------
                                 ORCA SCF
-------------------------------------------------------------------------------

------------
SCF SETTINGS
------------
Hamiltonian:
 Density Functional     Method          .... DFT(GTOs)
 Exchange Functional    Exchange        .... revTPSS
 Correlation Functional Correlation     .... revTPSS
 LDA part of GGA corr.  LDAOpt          .... PW91-LDA
 Gradients option       PostSCFGGA      .... off
   Density functional embedding theory  .... OFF
 RI-approximation to the Coulomb term is turned on
   Number of AuxJ basis functions       .... 1905


General Settings:
 Integral files         IntName         .... inpS
 Hartree-Fock type      HFTyp           .... RHF
 Total Charge           Charge          ....    0
 Multiplicity           Mult            ....    1
 Number of Electrons    NEL             ....  220
 Basis Dimension        Dim             ....  713
 Nuclear Repulsion      ENuc            ....   2796.4583195482 Eh

Convergence Acceleration:
 DIIS                   CNVDIIS         .... on
   Start iteration      DIISMaxIt       ....    12
   Startup error        DIISStart       ....  0.200000
   # of expansion vecs  DIISMaxEq       ....     5
   Bias factor          DIISBfac        ....   1.050
   Max. coefficient     DIISMaxC        ....  10.000
 Trust-Rad. Augm. Hess. CNVTRAH         .... auto
   Auto Start mean grad. ratio tolernc. ....  1.125000
   Auto Start start iteration           ....    20
   Auto Start num. interpolation iter.  ....    10
   Max. Number of Micro iterations      ....    16
   Max. Number of Macro iterations      .... Maxiter - #DIIS iter
   Number of Davidson start vectors     ....     2
   Converg. threshold I  (grad. norm)   ....   1.000e-04
   Converg. threshold II (energy diff.) ....   1.000e-07
   Grad. Scal. Fac. for Micro threshold ....   0.100
   Minimum threshold for Micro iter.    ....   0.010
   NR start threshold (gradient norm)   ....   0.001
   Initial trust radius                 ....   0.400
   Minimum AH scaling param. (alpha)    ....   1.000
   Maximum AH scaling param. (alpha)    .... 1000.000
   Orbital update algorithm             .... Taylor
   White noise on init. David. guess    .... on
   Maximum white noise                  ....   0.010
   Quad. conv. algorithm                .... NR
 SOSCF                  CNVSOSCF        .... off
 Level Shifting         CNVShift        .... on
   Level shift para.    LevelShift      ....    0.2500
   Turn off err/grad.   ShiftErr        ....    0.0010
 Zerner damping         CNVZerner       .... off
 Static damping         CNVDamp         .... on
   Fraction old density DampFac         ....    0.7000
   Max. Damping (<1)    DampMax         ....    0.9800
   Min. Damping (>=0)   DampMin         ....    0.0000
   Turn off err/grad.   DampErr         ....    0.1000
 Fernandez-Rico         CNVRico         .... off

SCF Procedure:
 Maximum # iterations   MaxIter         ....   125
 SCF integral mode      SCFMode         .... Direct
   Integral package                     .... SHARK and LIBINT hybrid scheme
 Reset frequency        DirectResetFreq ....    20
 Integral Threshold     Thresh          ....  3.000e-11 Eh
 Primitive CutOff       TCut            ....  1.000e-12 Eh

Convergence Tolerance:
 Convergence Check Mode ConvCheckMode   .... Total+1el-Energy
 Convergence forced     ConvForced      .... 0
 Energy Change          TolE            ....  1.000e-07 Eh
 1-El. energy change                    ....  1.000e-04 Eh
 DIIS Error             TolErr          ....  1.000e-07


Diagonalization of the overlap matrix:
Smallest eigenvalue                        ... 5.161e-04
Time for diagonalization                   ...    0.087 sec
Threshold for overlap eigenvalues          ... 1.000e-08
Number of eigenvalues below threshold      ... 0
Time for construction of square roots      ...    0.085 sec
Total time needed                          ...    0.175 sec

Time for model grid setup =    0.769 sec

------------------------------
INITIAL GUESS: MODEL POTENTIAL
------------------------------
Loading Hartree-Fock densities                     ... done
Calculating cut-offs                               ... done
Initializing the effective Hamiltonian             ... done
Setting up the integral package (SHARK)            ... done
Starting the Coulomb interaction                   ... done (   0.7 sec)
Reading the grid                                   ... done
Mapping shells                                     ... done
Starting the XC term evaluation                    ... done (   0.3 sec)
  promolecular density results
     # of electrons  =    219.973996003
     EX              =   -164.430318777
     EC              =     -7.326759261
     EX+EC           =   -171.757078038
Transforming the Hamiltonian                       ... done (   0.0 sec)
Diagonalizing the Hamiltonian                      ... done (   0.1 sec)
Back transforming the eigenvectors                 ... done (   0.0 sec)
Now organizing SCF variables                       ... done
                      ------------------
                      INITIAL GUESS DONE (   1.9 sec)
                      ------------------
-------------------
DFT GRID GENERATION
-------------------

General Integration Accuracy     IntAcc      ... 4.388
Radial Grid Type                 RadialGrid  ... OptM3 with GC (2021)
Angular Grid (max. ang.)         AngularGrid ... 4 (Lebedev-302)
Angular grid pruning method      GridPruning ... 4 (adaptive)
Weight generation scheme         WeightScheme... Becke
Basis function cutoff            BFCut       ... 1.0000e-11
Integration weight cutoff        WCut        ... 1.0000e-14
Angular grids for H and He will be reduced by one unit
Partially contracted basis set               ... off
Rotationally invariant grid construction     ... off

Total number of grid points                  ...   309814
Total number of batches                      ...     4875
Average number of points per batch           ...       63
Average number of grid points per atom       ...     4244
Time for grid setup =    2.891 sec


--------------------
CPCM SOLVATION MODEL
--------------------
CPCM parameters:
  Epsilon                                         ...       4.9000
  Refrac                                          ...       1.4500
  Rsolv                                           ...       1.3000
  Surface type                                    ... GAUSSIAN VDW
  Epsilon function type                           ...         CPCM
Radii:
 Radius for C  used is    3.8550 Bohr (=   2.0400 Ang.)
 Radius for H  used is    2.4944 Bohr (=   1.3200 Ang.)
 Radius for O  used is    3.4469 Bohr (=   1.8240 Ang.)
Calculating surface                               ...        done! (  0.0s)
GEPOL surface points                              ...         3634
GEPOL Volume                                      ...    3612.0153
GEPOL Surface-area                                ...    1780.0010
Calculating surface distance matrix               ...        done! (  0.1s)
Performing Cholesky decomposition & store         ...        done! (  0.5s)
Overall time for CPCM initialization              ...                 0.5s
--------------
SCF ITERATIONS
--------------
ITER       Energy         Delta-E        Max-DP      RMS-DP      [F,P]     Damp
               ***  Starting incremental Fock matrix formation  ***

  HOMO= 109 E= -1.912 eV LUMO=  7.773 eV gap=   9.685 eV
  0  -1167.5236952765   0.000000000000 0.05514808  0.00083064  0.2634325 0.7000

  HOMO= 109 E= -3.431 eV LUMO=  6.670 eV gap=  10.101 eV
  1  -1167.8981878412  -0.374492564700 0.02888272  0.00061294  0.1017000 0.7000
                               ***Turning on DIIS***

  HOMO= 109 E= -4.408 eV LUMO=  5.786 eV gap=  10.193 eV
  2  -1168.0446478602  -0.146460019071 0.04854420  0.00101043  0.0317947 0.0000

  HOMO= 109 E= -5.029 eV LUMO=  5.202 eV gap=  10.231 eV
  3  -1168.2428834013  -0.198235541073 0.02318413  0.00047283  0.0537869 0.0000

  HOMO= 109 E= -5.053 eV LUMO=  5.178 eV gap=  10.231 eV
  4  -1168.3097695710  -0.066886169661 0.00745944  0.00015145  0.0103493 0.0000

  HOMO= 109 E= -5.007 eV LUMO=  5.231 eV gap=  10.238 eV
  5  -1168.3128310313  -0.003061460287 0.00341924  0.00005693  0.0101390 0.0000

  HOMO= 109 E= -4.988 eV LUMO=  5.247 eV gap=  10.235 eV
  6  -1168.3130959647  -0.000264933446 0.00128573  0.00001908  0.0031190 0.0000

  HOMO= 109 E= -4.990 eV LUMO= -1.557 eV gap=   3.432 eV
  7  -1168.3131164788  -0.000020514070 0.00071141  0.00001157  0.0004904 0.0000

  HOMO= 109 E= -4.988 eV LUMO= -1.555 eV gap=   3.432 eV
  8  -1168.3131193913  -0.000002912552 0.00026776  0.00000293  0.0003757 0.0000

  HOMO= 109 E= -4.986 eV LUMO= -1.554 eV gap=   3.432 eV
  9  -1168.3131200521  -0.000000660815 0.00016272  0.00000151  0.0002557 0.0000

  HOMO= 109 E= -4.986 eV LUMO= -1.554 eV gap=   3.432 eV
 10  -1168.3131203067  -0.000000254557 0.00006270  0.00000068  0.0001036 0.0000

  HOMO= 109 E= -4.986 eV LUMO= -1.554 eV gap=   3.432 eV
 11  -1168.3131203377  -0.000000030963 0.00002408  0.00000026  0.0000267 0.0000

  HOMO= 109 E= -4.986 eV LUMO= -1.554 eV gap=   3.432 eV
 12  -1168.3131203341   0.000000003582 0.00001163  0.00000012  0.0000168 0.0000

  HOMO= 109 E= -4.986 eV LUMO= -1.554 eV gap=   3.432 eV
 13  -1168.3131203465  -0.000000012375 0.00000564  0.00000005  0.0000077 0.0000
                 **** Energy Check signals convergence ****

               *****************************************************
               *                     SUCCESS                       *
               *           SCF CONVERGED AFTER  14 CYCLES          *
               *****************************************************


----------------
TOTAL SCF ENERGY
----------------

Total Energy       :        -1168.31312036 Eh          -31791.41625 eV

Components:
Nuclear Repulsion  :         2796.45831955 Eh           76095.49950 eV
Electronic Energy  :        -3964.77143991 Eh         -107886.91574 eV
One Electron Energy:        -7139.08452331 Eh         -194264.36609 eV
Two Electron Energy:         3174.31308340 Eh           86377.45034 eV
CPCM Dielectric    :           -0.00892886 Eh              -0.24297 eV

Virial components:
Potential Energy   :        -2330.41790806 Eh          -63413.89518 eV
Kinetic Energy     :         1162.10478770 Eh           31622.47893 eV
Virial Ratio       :            2.00534232


DFT components:
N(Alpha)           :      110.000078628341 electrons
N(Beta)            :      110.000078628341 electrons
N(Total)           :      220.000157256682 electrons
E(X)               :     -169.584446148052 Eh       
E(C)               :       -7.443963508226 Eh       
E(XC)              :     -177.028409656278 Eh       
DFET-embed. en.    :        0.000000000000 Eh       
CPCM Solvation Model Properties:
Surface-charge          :           -0.04529144
Charge-correction       :           -0.00006985 Eh              -0.00190 eV
Free-energy (cav+disp)  :  This term is not implemented in the current solvation scheme

---------------
SCF CONVERGENCE
---------------

  Last Energy change         ...   -1.2991e-08  Tolerance :   1.0000e-07
  Last MAX-Density change    ...    2.9285e-06  Tolerance :   1.0000e-05
  Last RMS-Density change    ...    2.8159e-08  Tolerance :   1.0000e-06
  Last DIIS Error            ...    3.4571e-06  Tolerance :   1.0000e-07

             **** THE GBW FILE WAS UPDATED (inpS.gbw) ****
             **** DENSITY inpS.scfp WAS UPDATED ****
             **** ENERGY FILE WAS UPDATED (inpS.en.tmp) ****
             **** THE GBW FILE WAS UPDATED (inpS.gbw) ****
             **** DENSITY inpS.scfp WAS UPDATED ****
----------------
ORBITAL ENERGIES
----------------

  NO   OCC          E(Eh)            E(eV) 
   0   2.0000     -18.903721      -514.3964 
   1   2.0000     -10.057177      -273.6697 
   2   2.0000     -10.016436      -272.5611 
   3   2.0000     -10.014619      -272.5116 
   4   2.0000     -10.012203      -272.4459 
   5   2.0000     -10.012101      -272.4431 
   6   2.0000     -10.011936      -272.4386 
   7   2.0000     -10.010247      -272.3927 
   8   2.0000     -10.010029      -272.3867 
   9   2.0000     -10.009727      -272.3785 
  10   2.0000     -10.009633      -272.3760 
  11   2.0000     -10.007891      -272.3286 
  12   2.0000     -10.007523      -272.3185 
  13   2.0000     -10.006391      -272.2878 
  14   2.0000     -10.006278      -272.2847 
  15   2.0000     -10.005539      -272.2646 
  16   2.0000     -10.005067      -272.2517 
  17   2.0000     -10.001003      -272.1411 
  18   2.0000     -10.000823      -272.1362 
  19   2.0000      -9.999598      -272.1029 
  20   2.0000      -9.999540      -272.1013 
  21   2.0000      -9.998607      -272.0759 
  22   2.0000      -9.997661      -272.0502 
  23   2.0000      -9.997415      -272.0435 
  24   2.0000      -9.996491      -272.0183 
  25   2.0000      -9.996276      -272.0125 
  26   2.0000      -9.995862      -272.0012 
  27   2.0000      -9.995400      -271.9887 
  28   2.0000      -9.993778      -271.9445 
  29   2.0000      -0.954394       -25.9704 
  30   2.0000      -0.807786       -21.9810 
  31   2.0000      -0.789435       -21.4816 
  32   2.0000      -0.770503       -20.9664 
  33   2.0000      -0.757133       -20.6026 
  34   2.0000      -0.734671       -19.9914 
  35   2.0000      -0.727997       -19.8098 
  36   2.0000      -0.708957       -19.2917 
  37   2.0000      -0.708855       -19.2889 
  38   2.0000      -0.693810       -18.8795 
  39   2.0000      -0.676022       -18.3955 
  40   2.0000      -0.657782       -17.8992 
  41   2.0000      -0.652170       -17.7464 
  42   2.0000      -0.635982       -17.3059 
  43   2.0000      -0.628771       -17.1097 
  44   2.0000      -0.625239       -17.0136 
  45   2.0000      -0.619271       -16.8512 
  46   2.0000      -0.597214       -16.2510 
  47   2.0000      -0.591002       -16.0820 
  48   2.0000      -0.557415       -15.1680 
  49   2.0000      -0.547685       -14.9033 
  50   2.0000      -0.540959       -14.7202 
  51   2.0000      -0.533406       -14.5147 
  52   2.0000      -0.525631       -14.3031 
  53   2.0000      -0.506857       -13.7923 
  54   2.0000      -0.491615       -13.3775 
  55   2.0000      -0.480603       -13.0779 
  56   2.0000      -0.472587       -12.8597 
  57   2.0000      -0.463406       -12.6099 
  58   2.0000      -0.451261       -12.2794 
  59   2.0000      -0.442713       -12.0468 
  60   2.0000      -0.434500       -11.8234 
  61   2.0000      -0.427804       -11.6411 
  62   2.0000      -0.423662       -11.5284 
  63   2.0000      -0.416966       -11.3462 
  64   2.0000      -0.415515       -11.3067 
  65   2.0000      -0.406309       -11.0562 
  66   2.0000      -0.404568       -11.0088 
  67   2.0000      -0.400478       -10.8976 
  68   2.0000      -0.397792       -10.8245 
  69   2.0000      -0.393740       -10.7142 
  70   2.0000      -0.389167       -10.5898 
  71   2.0000      -0.384700       -10.4682 
  72   2.0000      -0.377994       -10.2857 
  73   2.0000      -0.371781       -10.1167 
  74   2.0000      -0.366688        -9.9781 
  75   2.0000      -0.362741        -9.8707 
  76   2.0000      -0.360615        -9.8128 
  77   2.0000      -0.358322        -9.7504 
  78   2.0000      -0.355181        -9.6650 
  79   2.0000      -0.354568        -9.6483 
  80   2.0000      -0.347310        -9.4508 
  81   2.0000      -0.345174        -9.3927 
  82   2.0000      -0.341915        -9.3040 
  83   2.0000      -0.338153        -9.2016 
  84   2.0000      -0.328730        -8.9452 
  85   2.0000      -0.325888        -8.8679 
  86   2.0000      -0.323352        -8.7989 
  87   2.0000      -0.319791        -8.7020 
  88   2.0000      -0.314497        -8.5579 
  89   2.0000      -0.311917        -8.4877 
  90   2.0000      -0.309139        -8.4121 
  91   2.0000      -0.305569        -8.3150 
  92   2.0000      -0.300779        -8.1846 
  93   2.0000      -0.295144        -8.0313 
  94   2.0000      -0.290043        -7.8925 
  95   2.0000      -0.288479        -7.8499 
  96   2.0000      -0.285813        -7.7774 
  97   2.0000      -0.284341        -7.7373 
  98   2.0000      -0.281948        -7.6722 
  99   2.0000      -0.278773        -7.5858 
 100   2.0000      -0.277191        -7.5428 
 101   2.0000      -0.274225        -7.4620 
 102   2.0000      -0.272013        -7.4019 
 103   2.0000      -0.269205        -7.3254 
 104   2.0000      -0.259944        -7.0734 
 105   2.0000      -0.249468        -6.7884 
 106   2.0000      -0.230184        -6.2636 
 107   2.0000      -0.228636        -6.2215 
 108   2.0000      -0.212947        -5.7946 
 109   2.0000      -0.183244        -4.9863 
 110   0.0000      -0.057113        -1.5541 
 111   0.0000      -0.014098        -0.3836 
 112   0.0000      -0.005194        -0.1413 
 113   0.0000       0.030456         0.8287 
 114   0.0000       0.038167         1.0386 
 115   0.0000       0.039232         1.0676 
 116   0.0000       0.044443         1.2094 
 117   0.0000       0.048355         1.3158 
 118   0.0000       0.053211         1.4479 
 119   0.0000       0.060046         1.6339 
 120   0.0000       0.062043         1.6883 
 121   0.0000       0.064698         1.7605 
 122   0.0000       0.070276         1.9123 
 123   0.0000       0.076513         2.0820 
 124   0.0000       0.078722         2.1421 
 125   0.0000       0.081082         2.2064 
 126   0.0000       0.082663         2.2494 
 127   0.0000       0.086815         2.3623 
 128   0.0000       0.089438         2.4337 
 129   0.0000       0.092381         2.5138 
 130   0.0000       0.096914         2.6372 
 131   0.0000       0.100980         2.7478 
 132   0.0000       0.104609         2.8465 
 133   0.0000       0.105841         2.8801 
 134   0.0000       0.108473         2.9517 
 135   0.0000       0.109578         2.9818 
 136   0.0000       0.111210         3.0262 
 137   0.0000       0.117450         3.1960 
 138   0.0000       0.120611         3.2820 
 139   0.0000       0.122000         3.3198 
 140   0.0000       0.126306         3.4370 
 141   0.0000       0.128284         3.4908 
 142   0.0000       0.129269         3.5176 
 143   0.0000       0.135394         3.6843 
 144   0.0000       0.139604         3.7988 
 145   0.0000       0.139938         3.8079 
 146   0.0000       0.141484         3.8500 
 147   0.0000       0.144781         3.9397 
 148   0.0000       0.145845         3.9686 
 149   0.0000       0.149242         4.0611 
 150   0.0000       0.152245         4.1428 
 151   0.0000       0.158246         4.3061 
 152   0.0000       0.163599         4.4518 
 153   0.0000       0.165608         4.5064 
 154   0.0000       0.168109         4.5745 
 155   0.0000       0.169557         4.6139 
 156   0.0000       0.177007         4.8166 
 157   0.0000       0.178440         4.8556 
 158   0.0000       0.180367         4.9080 
 159   0.0000       0.185164         5.0386 
 160   0.0000       0.188448         5.1279 
 161   0.0000       0.193331         5.2608 
 162   0.0000       0.197806         5.3826 
 163   0.0000       0.199903         5.4396 
 164   0.0000       0.202777         5.5178 
 165   0.0000       0.203380         5.5342 
 166   0.0000       0.206621         5.6224 
 167   0.0000       0.210070         5.7163 
 168   0.0000       0.214973         5.8497 
 169   0.0000       0.219282         5.9670 
 170   0.0000       0.219789         5.9808 
 171   0.0000       0.224558         6.1105 
 172   0.0000       0.227821         6.1993 
 173   0.0000       0.230123         6.2620 
 174   0.0000       0.239413         6.5147 
 175   0.0000       0.242157         6.5894 
 176   0.0000       0.244662         6.6576 
 177   0.0000       0.253012         6.8848 
 178   0.0000       0.263219         7.1626 
 179   0.0000       0.264312         7.1923 
 180   0.0000       0.274706         7.4751 
 181   0.0000       0.277153         7.5417 
 182   0.0000       0.289584         7.8800 
 183   0.0000       0.295045         8.0286 
 184   0.0000       0.296254         8.0615 
 185   0.0000       0.318384         8.6637 
 186   0.0000       0.333104         9.0642 
 187   0.0000       0.335776         9.1369 
 188   0.0000       0.350732         9.5439 
 189   0.0000       0.352393         9.5891 
 190   0.0000       0.356972         9.7137 
 191   0.0000       0.360779         9.8173 
 192   0.0000       0.368829        10.0364 
 193   0.0000       0.371946        10.1212 
 194   0.0000       0.379457        10.3255 
 195   0.0000       0.382808        10.4167 
 196   0.0000       0.384682        10.4677 
 197   0.0000       0.389881        10.6092 
 198   0.0000       0.391677        10.6581 
 199   0.0000       0.402220        10.9450 
 200   0.0000       0.405176        11.0254 
 201   0.0000       0.408055        11.1038 
 202   0.0000       0.413223        11.2444 
 203   0.0000       0.418879        11.3983 
 204   0.0000       0.424805        11.5595 
 205   0.0000       0.430056        11.7024 
 206   0.0000       0.440822        11.9954 
 207   0.0000       0.447562        12.1788 
 208   0.0000       0.452250        12.3064 
 209   0.0000       0.454762        12.3747 
 210   0.0000       0.463803        12.6207 
 211   0.0000       0.467055        12.7092 
 212   0.0000       0.470811        12.8114 
 213   0.0000       0.473457        12.8834 
 214   0.0000       0.478062        13.0087 
 215   0.0000       0.481887        13.1128 
 216   0.0000       0.483520        13.1573 
 217   0.0000       0.494476        13.4554 
 218   0.0000       0.499691        13.5973 
 219   0.0000       0.502375        13.6703 
 220   0.0000       0.506362        13.7788 
 221   0.0000       0.510561        13.8931 
 222   0.0000       0.513618        13.9762 
 223   0.0000       0.517304        14.0766 
 224   0.0000       0.518331        14.1045 
 225   0.0000       0.525287        14.2938 
 226   0.0000       0.531012        14.4496 
 227   0.0000       0.537828        14.6350 
 228   0.0000       0.541336        14.7305 
 229   0.0000       0.545382        14.8406 
 230   0.0000       0.546406        14.8685 
 231   0.0000       0.553333        15.0570 
 232   0.0000       0.555084        15.1046 
 233   0.0000       0.560906        15.2630 
 234   0.0000       0.563100        15.3227 
 235   0.0000       0.569887        15.5074 
 236   0.0000       0.572071        15.5669 
 237   0.0000       0.572657        15.5828 
 238   0.0000       0.574753        15.6398 
 239   0.0000       0.581832        15.8325 
 240   0.0000       0.582451        15.8493 
 241   0.0000       0.585663        15.9367 
 242   0.0000       0.586901        15.9704 
 243   0.0000       0.591158        16.0862 
 244   0.0000       0.594722        16.1832 
 245   0.0000       0.595092        16.1933 
 246   0.0000       0.598092        16.2749 
 247   0.0000       0.600145        16.3308 
 248   0.0000       0.602439        16.3932 
 249   0.0000       0.606229        16.4963 
 250   0.0000       0.606601        16.5064 
 251   0.0000       0.607698        16.5363 
 252   0.0000       0.612230        16.6596 
 253   0.0000       0.613979        16.7072 
 254   0.0000       0.615983        16.7617 
 255   0.0000       0.617737        16.8095 
 256   0.0000       0.621577        16.9140 
 257   0.0000       0.626587        17.0503 
 258   0.0000       0.629453        17.1283 
 259   0.0000       0.634185        17.2571 
 260   0.0000       0.637475        17.3466 
 261   0.0000       0.637527        17.3480 
 262   0.0000       0.641790        17.4640 
 263   0.0000       0.644140        17.5279 
 264   0.0000       0.647742        17.6260 
 265   0.0000       0.651318        17.7233 
 266   0.0000       0.654018        17.7967 
 267   0.0000       0.655345        17.8328 
 268   0.0000       0.656138        17.8544 
 269   0.0000       0.660486        17.9727 
 270   0.0000       0.665617        18.1124 
 271   0.0000       0.667964        18.1762 
 272   0.0000       0.672770        18.3070 
 273   0.0000       0.674863        18.3640 
 274   0.0000       0.678047        18.4506 
 275   0.0000       0.678770        18.4703 
 276   0.0000       0.683788        18.6068 
 277   0.0000       0.684525        18.6269 
 278   0.0000       0.688440        18.7334 
 279   0.0000       0.690674        18.7942 
 280   0.0000       0.693720        18.8771 
 281   0.0000       0.698615        19.0103 
 282   0.0000       0.703137        19.1333 
 283   0.0000       0.708271        19.2730 
 284   0.0000       0.711965        19.3735 
 285   0.0000       0.717780        19.5318 
 286   0.0000       0.720302        19.6004 
 287   0.0000       0.725152        19.7324 
 288   0.0000       0.732314        19.9273 
 289   0.0000       0.735807        20.0223 
 290   0.0000       0.739281        20.1169 
 291   0.0000       0.745527        20.2868 
 292   0.0000       0.749323        20.3901 
 293   0.0000       0.754232        20.5237 
 294   0.0000       0.762379        20.7454 
 295   0.0000       0.767406        20.8822 
 296   0.0000       0.773256        21.0414 
 297   0.0000       0.779509        21.2115 
 298   0.0000       0.786940        21.4137 
 299   0.0000       0.798023        21.7153 
 300   0.0000       0.802575        21.8392 
 301   0.0000       0.805137        21.9089 
 302   0.0000       0.813208        22.1285 
 303   0.0000       0.824966        22.4485 
 304   0.0000       0.840375        22.8678 
 305   0.0000       0.871955        23.7271 
 306   0.0000       0.874081        23.7850 
 307   0.0000       0.889475        24.2038 
 308   0.0000       0.894754        24.3475 
 309   0.0000       0.922054        25.0904 
 310   0.0000       0.934095        25.4180 
 311   0.0000       0.939340        25.5607 
 312   0.0000       0.951351        25.8876 
 313   0.0000       0.967055        26.3149 
 314   0.0000       0.981713        26.7138 
 315   0.0000       0.989360        26.9219 
 316   0.0000       1.002734        27.2858 
 317   0.0000       1.026822        27.9412 
 318   0.0000       1.029145        28.0045 
 319   0.0000       1.037530        28.2326 
 320   0.0000       1.047826        28.5128 
 321   0.0000       1.065480        28.9932 
 322   0.0000       1.070063        29.1179 
 323   0.0000       1.091197        29.6930 
 324   0.0000       1.100570        29.9480 
 325   0.0000       1.111397        30.2426 
 326   0.0000       1.130650        30.7665 
 327   0.0000       1.145156        31.1613 
 328   0.0000       1.159529        31.5524 
 329   0.0000       1.180233        32.1158 
 330   0.0000       1.186993        32.2997 
 331   0.0000       1.214834        33.0573 
 332   0.0000       1.234327        33.5878 
 333   0.0000       1.252481        34.0818 
 334   0.0000       1.256149        34.1816 
 335   0.0000       1.263386        34.3785 
 336   0.0000       1.275249        34.7013 
 337   0.0000       1.292636        35.1744 
 338   0.0000       1.296018        35.2664 
 339   0.0000       1.310442        35.6589 
 340   0.0000       1.312109        35.7043 
 341   0.0000       1.330628        36.2082 
 342   0.0000       1.337253        36.3885 
 343   0.0000       1.350824        36.7578 
 344   0.0000       1.362158        37.0662 
 345   0.0000       1.371740        37.3269 
 346   0.0000       1.380354        37.5613 
 347   0.0000       1.392692        37.8971 
 348   0.0000       1.410879        38.3920 
 349   0.0000       1.415115        38.5072 
 350   0.0000       1.418369        38.5958 
 351   0.0000       1.439965        39.1834 
 352   0.0000       1.441825        39.2340 
 353   0.0000       1.449286        39.4371 
 354   0.0000       1.456383        39.6302 
 355   0.0000       1.473394        40.0931 
 356   0.0000       1.477247        40.1979 
 357   0.0000       1.492339        40.6086 
 358   0.0000       1.504135        40.9296 
 359   0.0000       1.509028        41.0627 
 360   0.0000       1.517797        41.3013 
 361   0.0000       1.521762        41.4092 
 362   0.0000       1.530588        41.6494 
 363   0.0000       1.533871        41.7388 
 364   0.0000       1.549826        42.1729 
 365   0.0000       1.563845        42.5544 
 366   0.0000       1.571614        42.7658 
 367   0.0000       1.587260        43.1915 
 368   0.0000       1.594492        43.3883 
 369   0.0000       1.598664        43.5018 
 370   0.0000       1.602856        43.6159 
 371   0.0000       1.611031        43.8384 
 372   0.0000       1.620408        44.0935 
 373   0.0000       1.630434        44.3664 
 374   0.0000       1.644860        44.7589 
 375   0.0000       1.650783        44.9201 
 376   0.0000       1.662560        45.2406 
 377   0.0000       1.665596        45.3232 
 378   0.0000       1.682379        45.7799 
 379   0.0000       1.685826        45.8737 
 380   0.0000       1.689917        45.9850 
 381   0.0000       1.695972        46.1498 
 382   0.0000       1.701770        46.3075 
 383   0.0000       1.712178        46.5907 
 384   0.0000       1.713554        46.6282 
 385   0.0000       1.717088        46.7243 
 386   0.0000       1.722990        46.8849 
 387   0.0000       1.732285        47.1379 
 388   0.0000       1.735087        47.2141 
 389   0.0000       1.741026        47.3757 
 390   0.0000       1.744867        47.4802 
 391   0.0000       1.750947        47.6457 
 392   0.0000       1.755495        47.7694 
 393   0.0000       1.761399        47.9301 
 394   0.0000       1.768143        48.1136 
 395   0.0000       1.773178        48.2506 
 396   0.0000       1.774488        48.2863 
 397   0.0000       1.782966        48.5170 
 398   0.0000       1.787899        48.6512 
 399   0.0000       1.789762        48.7019 
 400   0.0000       1.799081        48.9555 
 401   0.0000       1.806426        49.1553 
 402   0.0000       1.812395        49.3178 
 403   0.0000       1.821089        49.5544 
 404   0.0000       1.826432        49.6997 
 405   0.0000       1.833040        49.8795 
 406   0.0000       1.838696        50.0335 
 407   0.0000       1.844269        50.1851 
 408   0.0000       1.850340        50.3503 
 409   0.0000       1.853783        50.4440 
 410   0.0000       1.870204        50.8908 
 411   0.0000       1.871392        50.9232 
 412   0.0000       1.875740        51.0415 
 413   0.0000       1.883776        51.2601 
 414   0.0000       1.887542        51.3626 
 415   0.0000       1.895621        51.5825 
 416   0.0000       1.897799        51.6417 
 417   0.0000       1.904662        51.8285 
 418   0.0000       1.911543        52.0157 
 419   0.0000       1.919463        52.2312 
 420   0.0000       1.926427        52.4207 
 421   0.0000       1.933787        52.6210 
 422   0.0000       1.939663        52.7809 
 423   0.0000       1.950082        53.0644 
 424   0.0000       1.952443        53.1287 
 425   0.0000       1.964717        53.4627 
 426   0.0000       1.967795        53.5464 
 427   0.0000       1.969461        53.5918 
 428   0.0000       1.976585        53.7856 
 429   0.0000       1.978929        53.8494 
 430   0.0000       1.987146        54.0730 
 431   0.0000       1.991176        54.1826 
 432   0.0000       1.993435        54.2441 
 433   0.0000       1.996508        54.3277 
 434   0.0000       1.998287        54.3761 
 435   0.0000       2.001172        54.4547 
 436   0.0000       2.003258        54.5114 
 437   0.0000       2.007875        54.6370 
 438   0.0000       2.014904        54.8283 
 439   0.0000       2.024244        55.0825 
 440   0.0000       2.032940        55.3191 
 441   0.0000       2.035356        55.3848 
 442   0.0000       2.037289        55.4374 
 443   0.0000       2.045035        55.6482 
[...]

 --------------
 Nucleus  47H :
 --------------

Diamagnetic contribution to the shielding tensor (ppm) : 
            33.819         -3.309        -6.107
            -5.522         34.951         7.811
            -7.089          8.245        47.227

Paramagnetic contribution to the shielding tensor (ppm): 
            -2.461          1.893         3.740
             4.028         -7.619        -5.675
             3.932         -5.414       -12.013

Total shielding tensor (ppm): 
            31.357         -1.417        -2.367
            -1.494         27.333         2.137
            -3.157          2.831        35.214


 Diagonalized sT*s matrix:
 
 sDSO            31.161           31.364           53.472  iso=      38.666
 sPSO            -4.649           -1.441          -16.003  iso=      -7.364
        ---------------  ---------------  ---------------
 Total           26.512           29.923           37.469  iso=      31.301

 --------------
 Nucleus  48H :
 --------------

Diamagnetic contribution to the shielding tensor (ppm) : 
            37.725         -0.610        -3.229
            -8.586         38.951        -0.103
            -3.619         -0.359        42.131

Paramagnetic contribution to the shielding tensor (ppm): 
            -6.160          2.152         3.565
            10.344        -10.128        -1.146
             3.111         -1.334       -12.739

Total shielding tensor (ppm): 
            31.565          1.542         0.336
             1.758         28.823        -1.249
            -0.508         -1.694        29.393


 Diagonalized sT*s matrix:
 
 sDSO            42.776           40.035           35.997  iso=      39.603
 sPSO           -15.541          -10.008           -3.479  iso=      -9.676
        ---------------  ---------------  ---------------
 Total           27.235           30.027           32.518  iso=      29.927

 --------------
 Nucleus  52H :
 --------------

Diamagnetic contribution to the shielding tensor (ppm) : 
            39.513          0.736         1.168
             1.960         34.352       -14.323
             4.841        -10.783        45.031

Paramagnetic contribution to the shielding tensor (ppm): 
            -9.008          3.124         0.239
             1.479         -6.986        16.006
            -2.325         13.174       -22.989

Total shielding tensor (ppm): 
            30.504          3.860         1.407
             3.438         27.366         1.684
             2.515          2.391        22.042


 Diagonalized sT*s matrix:
 
 sDSO            49.998           31.507           37.392  iso=      39.632
 sPSO           -28.714           -6.446           -3.823  iso=     -12.994
        ---------------  ---------------  ---------------
 Total           21.284           25.061           33.568  iso=      26.638

 --------------
 Nucleus  53H :
 --------------

Diamagnetic contribution to the shielding tensor (ppm) : 
            37.299          0.342         0.393
            -3.028         39.298        -6.387
             0.947         -7.316        44.086

Paramagnetic contribution to the shielding tensor (ppm): 
            -9.924          3.790        -0.768
             7.079        -12.594         7.642
            -0.785          9.170       -19.523

Total shielding tensor (ppm): 
            27.375          4.132        -0.375
             4.051         26.704         1.255
             0.163          1.854        24.563


 Diagonalized sT*s matrix:
 
 sDSO            45.656           39.152           35.875  iso=      40.228
 sPSO           -23.394          -14.061           -4.586  iso=     -14.014
        ---------------  ---------------  ---------------
 Total           22.262           25.091           31.289  iso=      26.214

 --------------
 Nucleus  57H :
 --------------

Diamagnetic contribution to the shielding tensor (ppm) : 
            44.631          2.386        -4.632
            -5.350         17.028        -5.932
           -12.398         -8.107        34.810

Paramagnetic contribution to the shielding tensor (ppm): 
           -12.619         -1.655         0.501
             4.494         10.605         7.796
             8.450          9.256        -5.324

Total shielding tensor (ppm): 
            32.011          0.732        -4.132
            -0.857         27.633         1.864
            -3.948          1.149        29.486


 Diagonalized sT*s matrix:
 
 sDSO            32.233           16.132           48.104  iso=      32.156
 sPSO            -6.489           12.153          -13.003  iso=      -2.446
        ---------------  ---------------  ---------------
 Total           25.745           28.284           35.101  iso=      29.710

 --------------
 Nucleus  58H :
 --------------

Diamagnetic contribution to the shielding tensor (ppm) : 
            30.778         -0.369         1.896
             8.685         36.760        -5.297
            -0.163        -12.570        39.830

Paramagnetic contribution to the shielding tensor (ppm): 
            -2.882          1.354         0.151
            -7.531         -7.407         2.314
             1.768         10.445        -6.418

Total shielding tensor (ppm): 
            27.897          0.985         2.047
             1.155         29.353        -2.983
             1.605         -2.125        33.412


 Diagonalized sT*s matrix:
 
 sDSO            26.263           36.108           44.998  iso=      35.790
 sPSO            -0.104           -6.464          -10.140  iso=      -5.569
        ---------------  ---------------  ---------------
 Total           26.159           29.644           34.858  iso=      30.220

 --------------
 Nucleus  61H :
 --------------

Diamagnetic contribution to the shielding tensor (ppm) : 
            37.572          1.181        -7.381
            -0.774         24.390        -3.945
             0.708         -6.634        41.366

Paramagnetic contribution to the shielding tensor (ppm): 
            -6.338         -0.728         4.886
             1.489          4.608         3.198
            -3.318          5.268        -8.237

Total shielding tensor (ppm): 
            31.234          0.453        -2.495
             0.715         28.997        -0.747
            -2.610         -1.366        33.129


 Diagonalized sT*s matrix:
 
 sDSO            22.859           36.218           44.251  iso=      34.442
 sPSO             5.884           -6.739           -9.112  iso=      -3.322
        ---------------  ---------------  ---------------
 Total           28.742           29.479           35.139  iso=      31.120

 --------------
 Nucleus  62H :
 --------------

Diamagnetic contribution to the shielding tensor (ppm) : 
            40.551          6.413         8.184
            -4.691         10.942         0.137
             7.938          3.464        29.868

Paramagnetic contribution to the shielding tensor (ppm): 
            -7.725         -4.109        -2.667
             6.644         19.061        -0.782
            -2.286         -3.663        -0.317

Total shielding tensor (ppm): 
            32.826          2.304         5.517
             1.954         30.003        -0.645
             5.653         -0.199        29.551


 Diagonalized sT*s matrix:
 
 sDSO            25.266           12.208           43.887  iso=      27.120
 sPSO            -0.421           18.021           -6.581  iso=       3.673
        ---------------  ---------------  ---------------
 Total           24.846           30.228           37.306  iso=      30.793

 --------------
 Nucleus  63H :
 --------------

Diamagnetic contribution to the shielding tensor (ppm) : 
            33.984         -4.437         3.487
           -14.925         26.130       -13.896
             4.096         -6.382        25.151

Paramagnetic contribution to the shielding tensor (ppm): 
            -3.887          1.283        -0.851
            12.182          9.526        12.922
            -2.252          5.411         1.763

Total shielding tensor (ppm): 
            30.097         -3.155         2.636
            -2.743         35.655        -0.974
             1.845         -0.971        26.913


 Diagonalized sT*s matrix:
 
 sDSO            24.521           22.280           38.464  iso=      28.422
 sPSO             1.207            7.413           -1.219  iso=       2.467
        ---------------  ---------------  ---------------
 Total           25.728           29.692           37.245  iso=      30.889

 --------------
 Nucleus  64H :
 --------------

Diamagnetic contribution to the shielding tensor (ppm) : 
            38.311          9.573        -3.106
             7.742          9.711        -0.053
           -10.315         -7.785        20.940

Paramagnetic contribution to the shielding tensor (ppm): 
            -2.433         -7.859        -1.429
            -5.113         18.410        -0.138
             6.805          7.802         7.464

Total shielding tensor (ppm): 
            35.878          1.714        -4.535
             2.630         28.121        -0.191
            -3.510          0.017        28.404


 Diagonalized sT*s matrix:
 
 sDSO            16.644            9.383           42.935  iso=      22.987
 sPSO             9.598           18.733           -4.890  iso=       7.814
        ---------------  ---------------  ---------------
 Total           26.242           28.115           38.046  iso=      30.801

 --------------
 Nucleus  65H :
 --------------

Diamagnetic contribution to the shielding tensor (ppm) : 
            28.361          8.376         6.903
             9.224         13.106         0.006
            11.028          3.055        33.713

Paramagnetic contribution to the shielding tensor (ppm): 
             1.971         -6.418        -2.656
            -6.815         16.602         0.510
            -7.225         -2.962        -1.419

Total shielding tensor (ppm): 
            30.331          1.959         4.247
             2.410         29.708         0.516
             3.803          0.092        32.294


 Diagonalized sT*s matrix:
 
 sDSO            14.740           18.505           41.936  iso=      25.060
 sPSO            11.658           11.548           -6.053  iso=       5.718
        ---------------  ---------------  ---------------
 Total           26.398           30.053           35.882  iso=      30.778

 --------------
 Nucleus  66H :
 --------------

Diamagnetic contribution to the shielding tensor (ppm) : 
            18.293          5.932         3.085
            24.278         34.649        -0.141
             1.604         -4.088        15.550

Paramagnetic contribution to the shielding tensor (ppm): 
            10.559         -3.142        -2.858
           -22.056          2.541        -0.581
            -1.680          4.019        10.393

Total shielding tensor (ppm): 
            28.851          2.790         0.227
             2.223         37.190        -0.723
            -0.075         -0.068        25.943


 Diagonalized sT*s matrix:
 
 sDSO            14.931           12.316           41.245  iso=      22.830
 sPSO            10.987           15.855           -3.349  iso=       7.831
        ---------------  ---------------  ---------------
 Total           25.918           28.170           37.896  iso=      30.661

 --------------
 Nucleus  67H :
 --------------

Diamagnetic contribution to the shielding tensor (ppm) : 
            39.603         -0.705        -5.480
            15.468         46.792         9.897
             3.389         10.779        33.006

Paramagnetic contribution to the shielding tensor (ppm): 
            -2.803          4.889         6.414
           -12.124        -16.118        -7.178
            -3.261         -8.216        -8.120

Total shielding tensor (ppm): 
            36.800          4.184         0.934
             3.344         30.674         2.719
             0.128          2.563        24.886


 Diagonalized sT*s matrix:
 
 sDSO            27.150           44.398           47.854  iso=      39.800
 sPSO            -3.354          -14.616           -9.071  iso=      -9.014
        ---------------  ---------------  ---------------
 Total           23.796           29.781           38.783  iso=      30.786

 --------------
 Nucleus  68H :
 --------------

Diamagnetic contribution to the shielding tensor (ppm) : 
            21.740        -10.519        -4.025
            12.077         51.567         3.299
             4.297          5.806        32.638

Paramagnetic contribution to the shielding tensor (ppm): 
             8.849          6.866         3.136
           -15.026        -15.345        -2.736
            -4.953         -4.553        -6.143

Total shielding tensor (ppm): 
            30.589         -3.653        -0.889
            -2.949         36.222         0.563
            -0.656          1.254        26.495


 Diagonalized sT*s matrix:
 
 sDSO            32.120           27.374           46.451  iso=      35.315
 sPSO            -5.778            1.730           -8.591  iso=      -4.213
        ---------------  ---------------  ---------------
 Total           26.342           29.104           37.860  iso=      31.102

 --------------
 Nucleus  69H :
 --------------

Diamagnetic contribution to the shielding tensor (ppm) : 
            25.887         -4.870        -3.236
             9.380         37.134         6.126
             5.695          1.998        43.728

Paramagnetic contribution to the shielding tensor (ppm): 
             3.009          4.061         2.079
            -9.886         -7.569        -5.267
            -6.007         -1.450        -8.348

Total shielding tensor (ppm): 
            28.896         -0.809        -1.157
            -0.506         29.565         0.859
            -0.312          0.547        35.380


 Diagonalized sT*s matrix:
 
 sDSO            30.866           31.822           44.061  iso=      35.583
 sPSO            -2.383           -2.026           -8.499  iso=      -4.303
        ---------------  ---------------  ---------------
 Total           28.483           29.797           35.562  iso=      31.280

 --------------
 Nucleus  70H :
 --------------

Diamagnetic contribution to the shielding tensor (ppm) : 
            31.526          0.386         3.717
            -8.971         37.506         9.978
            -3.018          8.797        37.636

Paramagnetic contribution to the shielding tensor (ppm): 
             0.508         -0.004        -3.222
            10.592         -7.157        -4.564
             3.959         -4.080        -9.401

Total shielding tensor (ppm): 
            32.034          0.382         0.495
             1.621         30.348         5.414
             0.941          4.717        28.235


 Diagonalized sT*s matrix:
 
 sDSO            28.400           36.112           42.156  iso=      35.556
 sPSO            -4.283           -4.591           -7.177  iso=      -5.350
        ---------------  ---------------  ---------------
 Total           24.117           31.521           34.979  iso=      30.206

 --------------
 Nucleus  71H :
 --------------

Diamagnetic contribution to the shielding tensor (ppm) : 
            28.529         -7.092        -0.506
           -13.761         38.899        -3.126
            -4.199         -6.650        34.747

Paramagnetic contribution to the shielding tensor (ppm): 
             1.905          4.624         1.269
            11.881         -5.238        -0.199
             4.594          4.531        -6.065

Total shielding tensor (ppm): 
            30.435         -2.468         0.762
            -1.880         33.661        -3.325
             0.395         -2.120        28.682


 Diagonalized sT*s matrix:
 
 sDSO            29.594           26.622           45.960  iso=      34.058
 sPSO            -2.162            2.939          -10.175  iso=      -3.133
        ---------------  ---------------  ---------------
 Total           27.431           29.561           35.785  iso=      30.926

 --------------
 Nucleus  72H :
 --------------

Diamagnetic contribution to the shielding tensor (ppm) : 
            37.164         -7.948        -8.692
           -15.953         24.834         1.528
           -15.079          2.685        30.622

Paramagnetic contribution to the shielding tensor (ppm): 
            -2.679          6.250         4.078
            14.003          4.806         1.181
            10.810         -0.053        -1.905

Total shielding tensor (ppm): 
            34.484         -1.698        -4.614
            -1.950         29.640         2.709
            -4.269          2.632        28.717


 Diagonalized sT*s matrix:
 
 sDSO            25.424           16.490           50.706  iso=      30.873
 sPSO             0.213           12.794          -12.787  iso=       0.074
        ---------------  ---------------  ---------------
 Total           25.638           29.284           37.919  iso=      30.947



--------------------------------
CHEMICAL SHIELDING SUMMARY (ppm)
--------------------------------


  Nucleus  Element    Isotropic     Anisotropy
  -------  -------  ------------   ------------
      3       H           29.370          6.460 
      4       H           29.050          7.418 
      8       H           29.574          7.916 
      9       H           29.339          5.422 
     10       H           30.107          8.324 
     11       H           29.861         10.227 
     13       H           27.736          7.791 
     16       H           26.790          4.708 
     17       H           26.511          4.846 
     19       H           25.407         10.371 
     21       H           25.608         14.598 
     24       H           28.910         10.075 
     25       H           30.043          9.577 
     27       H           30.241          7.031 
     28       H           30.108         11.876 
     30       H           29.751          8.061 
     31       H           30.413          7.091 
     33       H           29.747          4.371 
     35       H           30.170         14.722 
     37       H           30.392         10.364 
     38       H           30.246          9.715 
     40       H           30.053         10.013 
     41       H           30.551          9.367 
     42       H           30.515          5.086 
     45       H           31.248          7.225 
     46       H           31.014          8.017 
     47       H           31.301          9.252 
     48       H           29.927          3.887 
     52       H           26.638         10.396 
     53       H           26.214          7.613 
     57       H           29.710          8.087 
     58       H           30.220          6.957 
     61       H           31.120          6.028 
     62       H           30.793          9.768 
     63       H           30.889          9.535 
     64       H           30.801         10.867 
     65       H           30.778          7.657 
     66       H           30.661         10.852 
     67       H           30.786         11.994 
     68       H           31.102         10.137 
     69       H           31.280          6.422 
     70       H           30.206          7.160 
     71       H           30.926          7.289 
     72       H           30.947         10.458 



Maximum memory used throughout the entire EPRNMR-calculation: 141.1 MB

Timings for individual modules:

Sum of individual times         ...      144.042 sec (=   2.401 min)
GTO integral calculation        ...        0.786 sec (=   0.013 min)   0.5 %
SCF iterations                  ...       97.457 sec (=   1.624 min)  67.7 %
EPR/NMR calculation             ...       45.799 sec (=   0.763 min)  31.8 %
                             ****ORCA TERMINATED NORMALLY****
TOTAL RUN TIME: 0 days 0 hours 2 minutes 24 seconds 506 msec
