 Entering Gaussian System
 *********************************************
 Gaussian 98:
 frequency output generated by the xtb code
 *********************************************
                         Standard orientation:
 --------------------------------------------------------------------
  Center     Atomic     Atomic              Coordinates (Angstroms)
  Number     Number      Type              X           Y           Z
 --------------------------------------------------------------------
    1          6             0        1.843598    0.000006   -0.075875
    2          6             0        1.056997   -1.249909    0.301906
    3          6             0       -0.305756   -1.264602   -0.399563
    4          1             0        0.903149   -1.272480    1.383191
    5          1             0        1.612358   -2.147381    0.023906
    6          6             0       -1.067987    0.000005   -0.107251
    7          1             0       -0.897592   -2.126487   -0.086430
    8          1             0       -0.153277   -1.320718   -1.479963
    9          6             0       -0.305757    1.264621   -0.399527
   10          6             0        1.056996    1.249911    0.301941
   11          1             0       -0.897594    2.126497   -0.086370
   12          1             0       -0.153279    1.320769   -1.479925
   13          1             0        0.903149    1.272452    1.383226
   14          1             0        1.612356    2.147391    0.023965
   15          1             0        2.040056    0.000021   -1.150190
   16          1             0        2.804544   -0.000001    0.442080
   17          8             0       -2.201653   -0.000001    0.329210
 --------------------------------------------------------------------
     1 basis functions        1 primitive gaussians
     1 alpha electrons        1 beta electrons
 
 Harmonic frequencies (cm**-1), IR intensities (km*mol⁻¹),
 Raman scattering activities (A**4/amu), Raman depolarization ratios,
 reduced masses (AMU), force constants (mDyne/A) and normal coordinates:
                      1                      2                      3
                        a                      a                      a 
 Frequencies --    81.6165               172.4224               298.9392
 Red. masses --    11.3834                 7.2232                 6.9188
 Frc consts  --     0.0000                 0.0000                 0.0000
 IR Inten    --     3.8764                 2.8848                 0.3433
 Raman Activ --     0.0000                 0.0000                 0.0000
 Depolar     --     0.0000                 0.0000                 0.0000
 Atom AN      X      Y      Z        X      Y      Z        X      Y      Z
   1   6    -0.06  -0.00   0.28     0.00   0.14  -0.00     0.23  -0.00   0.36
   2   6    -0.16  -0.02   0.00     0.23  -0.10  -0.28     0.10  -0.13  -0.26
   3   6     0.01   0.04  -0.36    -0.07  -0.09   0.28    -0.06   0.08   0.03
   4   1    -0.13  -0.03  -0.01     0.19  -0.16  -0.07     0.08  -0.22  -0.07
   5   1    -0.03  -0.00   0.03     0.07   0.02  -0.24     0.02   0.01  -0.25
   6   6     0.05   0.00  -0.12    -0.00   0.03   0.00    -0.13  -0.00   0.20
   7   1    -0.01  -0.01  -0.18    -0.00   0.01   0.22     0.02  -0.00  -0.01
   8   1     0.08   0.08  -0.09    -0.15  -0.13   0.07    -0.09   0.09  -0.01
   9   6     0.01  -0.04  -0.36     0.07  -0.09  -0.28    -0.06  -0.08   0.03
  10   6    -0.16   0.02   0.00    -0.23  -0.10   0.28     0.10   0.13  -0.26
  11   1    -0.01   0.01  -0.18     0.00   0.01  -0.22     0.02   0.00  -0.01
  12   1     0.08  -0.08  -0.09     0.15  -0.13  -0.07    -0.09  -0.09  -0.01
  13   1    -0.13   0.03  -0.01    -0.19  -0.16   0.07     0.08   0.22  -0.07
  14   1    -0.03   0.00   0.03    -0.07   0.02   0.24     0.02  -0.01  -0.25
  15   1     0.09   0.00   0.10    -0.00   0.13  -0.00     0.31  -0.00   0.15
  16   1    -0.07  -0.00   0.17     0.00   0.04  -0.00    -0.05  -0.00   0.31
  17   8     0.32  -0.00   0.54    -0.00   0.25  -0.00    -0.25   0.00  -0.03
                      4                      5                      6
                        a                      a                      a 
 Frequencies --   394.9257               399.5684               486.6489
 Red. masses --     8.9224                 9.6300                 6.2358
 Frc consts  --     0.0000                 0.0000                 0.0000
 IR Inten    --     0.8705                 4.2547                 0.5498
 Raman Activ --     0.0000                 0.0000                 0.0000
 Depolar     --     0.0000                 0.0000                 0.0000
 Atom AN      X      Y      Z        X      Y      Z        X      Y      Z
   1   6     0.31  -0.00  -0.14    -0.00  -0.22   0.00     0.38   0.00   0.02
   2   6     0.05   0.26   0.06     0.22  -0.27   0.15    -0.02   0.24  -0.08
   3   6     0.08   0.27  -0.09     0.24   0.32   0.15    -0.12  -0.08   0.03
   4   1    -0.03   0.19   0.02     0.12  -0.14   0.05    -0.05   0.19  -0.02
   5   1    -0.05   0.00   0.12     0.01  -0.08  -0.05    -0.05   0.00   0.11
   6   6    -0.26   0.00   0.17     0.00   0.25  -0.00    -0.12  -0.00  -0.35
   7   1     0.10  -0.02  -0.17     0.01   0.09  -0.06    -0.01   0.04   0.25
   8   1     0.08   0.24  -0.03     0.13   0.16   0.04    -0.12  -0.26   0.01
   9   6     0.08  -0.27  -0.09    -0.24   0.32  -0.15    -0.12   0.08   0.03
  10   6     0.05  -0.26   0.06    -0.22  -0.27  -0.15    -0.02  -0.24  -0.08
  11   1     0.10   0.02  -0.17    -0.01   0.09   0.06    -0.01  -0.04   0.25
  12   1     0.08  -0.24  -0.03    -0.13   0.16  -0.04    -0.12   0.26   0.01
  13   1    -0.03  -0.19   0.01    -0.12  -0.14  -0.05    -0.05  -0.19  -0.02
  14   1    -0.05  -0.00   0.12    -0.01  -0.08   0.05    -0.05  -0.00   0.11
  15   1     0.07  -0.00  -0.04    -0.00  -0.11  -0.00     0.31  -0.00   0.05
  16   1     0.09   0.00  -0.04    -0.00   0.05   0.00     0.00   0.00   0.20
  17   8    -0.36  -0.00   0.07     0.00  -0.12  -0.00     0.05   0.00   0.13
                      7                      8                      9
                        a                      a                      a 
 Frequencies --   487.0376               661.0673               798.4263
 Red. masses --    11.3491                 9.3504                 4.9410
 Frc consts  --     0.0000                 0.0000                 0.0000
 IR Inten    --    19.2664                10.8379                 6.7136
 Raman Activ --     0.0000                 0.0000                 0.0000
 Depolar     --     0.0000                 0.0000                 0.0000
 Atom AN      X      Y      Z        X      Y      Z        X      Y      Z
   1   6     0.00  -0.02   0.00     0.01  -0.00   0.08    -0.00   0.12   0.00
   2   6    -0.17   0.07  -0.08     0.17  -0.07   0.13    -0.18   0.12   0.11
   3   6    -0.20   0.20   0.13     0.06   0.03   0.00    -0.20  -0.04   0.22
   4   1    -0.03   0.01  -0.02     0.13  -0.17   0.04     0.15  -0.20   0.05
   5   1    -0.09   0.00  -0.04     0.03   0.02  -0.14    -0.05   0.12  -0.26
   6   6    -0.00   0.24  -0.00    -0.43   0.00  -0.55     0.00  -0.19  -0.00
   7   1    -0.11   0.14   0.18     0.04  -0.00   0.01    -0.04  -0.13  -0.24
   8   1    -0.15  -0.09   0.03     0.14  -0.09   0.02     0.15   0.27   0.07
   9   6     0.20   0.20  -0.13     0.06  -0.03   0.00     0.20  -0.04  -0.22
  10   6     0.17   0.07   0.08     0.17   0.07   0.13     0.18   0.12  -0.11
  11   1     0.11   0.14  -0.18     0.04   0.00   0.01     0.04  -0.13   0.24
  12   1     0.15  -0.09  -0.03     0.14   0.09   0.02    -0.15   0.27  -0.07
  13   1     0.03   0.01   0.02     0.13   0.17   0.04    -0.15  -0.20  -0.05
  14   1     0.09   0.00   0.04     0.03  -0.02  -0.14     0.05   0.12   0.26
  15   1     0.00   0.01   0.00    -0.20   0.00  -0.02    -0.00  -0.04  -0.00
  16   1     0.00  -0.07   0.00     0.11   0.00  -0.17     0.00  -0.05  -0.00
  17   8     0.00  -0.67   0.00    -0.20  -0.00   0.26     0.00  -0.07  -0.00
                     10                     11                     12
                        a                      a                      a 
 Frequencies --   801.9182               886.6525               904.6634
 Red. masses --     9.6891                 4.2857                 8.3481
 Frc consts  --     0.0000                 0.0000                 0.0000
 IR Inten    --     8.9944                10.0370                 1.9363
 Raman Activ --     0.0000                 0.0000                 0.0000
 Depolar     --     0.0000                 0.0000                 0.0000
 Atom AN      X      Y      Z        X      Y      Z        X      Y      Z
   1   6    -0.04  -0.00   0.05    -0.16   0.00  -0.33    -0.51  -0.00   0.07
   2   6    -0.14   0.21  -0.00    -0.04  -0.07   0.02     0.00   0.31  -0.12
   3   6    -0.06   0.45   0.14    -0.02  -0.06   0.22     0.27  -0.03   0.00
   4   1     0.07  -0.09   0.01     0.20   0.08   0.03     0.00   0.02  -0.03
   5   1    -0.14   0.06  -0.20    -0.05  -0.03  -0.02     0.15   0.19  -0.07
   6   6     0.17   0.00  -0.18    -0.04   0.00  -0.21    -0.07  -0.00   0.05
   7   1    -0.05   0.16   0.08    -0.08  -0.05  -0.19     0.22  -0.07   0.11
   8   1     0.00   0.07   0.05     0.27   0.12   0.09     0.01  -0.07  -0.00
   9   6    -0.06  -0.45   0.14    -0.02   0.06   0.22     0.27   0.03   0.00
  10   6    -0.14  -0.21  -0.00    -0.04   0.07   0.02     0.00  -0.31  -0.12
  11   1    -0.05  -0.16   0.08    -0.08   0.05  -0.19     0.22   0.07   0.11
  12   1     0.00  -0.07   0.05     0.27  -0.12   0.09     0.01   0.07  -0.00
  13   1     0.07   0.09   0.01     0.20  -0.08   0.03     0.00  -0.02  -0.03
  14   1    -0.14  -0.06  -0.20    -0.05   0.03  -0.02     0.15  -0.19  -0.07
  15   1    -0.08   0.00  -0.00     0.40  -0.00  -0.00     0.01   0.00   0.05
  16   1     0.01   0.00  -0.04    -0.25  -0.00   0.31    -0.21  -0.00   0.16
  17   8     0.31   0.00  -0.09     0.07  -0.00   0.03    -0.11  -0.00   0.04
                     13                     14                     15
                        a                      a                      a 
 Frequencies --   921.9309               965.8986               980.1634
 Red. masses --     4.4426                 7.3549                 7.8098
 Frc consts  --     0.0000                 0.0000                 0.0000
 IR Inten    --     0.1105                15.1583                 2.6105
 Raman Activ --     0.0000                 0.0000                 0.0000
 Depolar     --     0.0000                 0.0000                 0.0000
 Atom AN      X      Y      Z        X      Y      Z        X      Y      Z
   1   6     0.00  -0.10  -0.00    -0.00  -0.31  -0.00    -0.23   0.00  -0.09
   2   6     0.04  -0.04  -0.26    -0.20   0.20  -0.12     0.08  -0.33  -0.06
   3   6    -0.01   0.04   0.27     0.33   0.10   0.07     0.20   0.32   0.01
   4   1    -0.02   0.32  -0.06    -0.03  -0.07  -0.03    -0.14   0.11  -0.03
   5   1    -0.08  -0.14   0.21    -0.12   0.05  -0.15    -0.01  -0.17   0.21
   6   6     0.00  -0.12  -0.00    -0.00  -0.17  -0.00    -0.09   0.00  -0.09
   7   1     0.07  -0.10  -0.10     0.27  -0.05   0.16     0.01   0.17   0.16
   8   1    -0.06   0.30   0.04     0.04  -0.07   0.02    -0.11  -0.05  -0.01
   9   6     0.01   0.04  -0.27    -0.33   0.10  -0.07     0.20  -0.32   0.01
  10   6    -0.04  -0.04   0.26     0.20   0.20   0.12     0.08   0.33  -0.06
  11   1    -0.07  -0.10   0.10    -0.27  -0.05  -0.16     0.01  -0.17   0.16
  12   1     0.06   0.30  -0.04    -0.04  -0.07  -0.02    -0.11   0.05  -0.01
  13   1     0.02   0.32   0.06     0.03  -0.07   0.03    -0.14  -0.11  -0.03
  14   1     0.08  -0.14  -0.21     0.12   0.05   0.15    -0.01   0.17   0.21
  15   1     0.00   0.26   0.00     0.00  -0.14  -0.00     0.10   0.00   0.01
  16   1     0.00  -0.15  -0.00    -0.00  -0.31  -0.00    -0.13   0.00   0.11
  17   8     0.00  -0.02  -0.00    -0.00   0.08   0.00    -0.08  -0.00   0.06
                     16                     17                     18
                        a                      a                      a 
 Frequencies --  1045.8820              1075.2269              1101.3400
 Red. masses --     1.4588                 6.4165                 6.2754
 Frc consts  --     0.0000                 0.0000                 0.0000
 IR Inten    --     1.7147                10.2081                11.2219
 Raman Activ --     0.0000                 0.0000                 0.0000
 Depolar     --     0.0000                 0.0000                 0.0000
 Atom AN      X      Y      Z        X      Y      Z        X      Y      Z
   1   6    -0.00  -0.00  -0.00    -0.21  -0.00   0.07    -0.00   0.00  -0.20
   2   6    -0.05  -0.01  -0.05     0.34   0.09   0.07    -0.01   0.01   0.21
   3   6     0.04  -0.06  -0.02    -0.27   0.07  -0.08     0.01   0.07  -0.30
   4   1     0.25   0.15   0.03     0.08   0.10   0.02     0.18  -0.08   0.08
   5   1    -0.11  -0.06  -0.02     0.31   0.14   0.09    -0.05   0.02  -0.11
   6   6    -0.00   0.13   0.00     0.02  -0.00  -0.07     0.08  -0.00   0.33
   7   1    -0.17   0.09  -0.05    -0.24   0.11  -0.08    -0.13   0.17   0.11
   8   1     0.42  -0.25   0.07    -0.15   0.10  -0.04     0.15  -0.32  -0.03
   9   6    -0.04  -0.06   0.02    -0.27  -0.07  -0.08     0.01  -0.07  -0.30
  10   6     0.05  -0.01   0.05     0.34  -0.09   0.07    -0.01  -0.01   0.21
  11   1     0.17   0.09   0.05    -0.24  -0.11  -0.08    -0.13  -0.17   0.11
  12   1    -0.42  -0.25  -0.07    -0.15  -0.10  -0.04     0.15   0.32  -0.03
  13   1    -0.25   0.15  -0.03     0.08  -0.10   0.02     0.18   0.08   0.08
  14   1     0.11  -0.06   0.02     0.31  -0.14   0.09    -0.05  -0.02  -0.11
  15   1    -0.00   0.36   0.00     0.01  -0.00   0.03     0.16  -0.00  -0.02
  16   1    -0.00  -0.25  -0.00    -0.07   0.00   0.06    -0.08  -0.00   0.10
  17   8     0.00   0.01   0.00     0.05   0.00  -0.01    -0.18   0.00  -0.00
                     19                     20                     21
                        a                      a                      a 
 Frequencies --  1121.6593              1136.3702              1195.7932
 Red. masses --     3.4703                 8.5195                 4.4614
 Frc consts  --     0.0000                 0.0000                 0.0000
 IR Inten    --    38.0041                 9.8030                 2.9521
 Raman Activ --     0.0000                 0.0000                 0.0000
 Depolar     --     0.0000                 0.0000                 0.0000
 Atom AN      X      Y      Z        X      Y      Z        X      Y      Z
   1   6    -0.00  -0.13  -0.00     0.00   0.43   0.00     0.00  -0.00   0.29
   2   6     0.03   0.06  -0.06    -0.31  -0.24  -0.05    -0.01   0.02  -0.30
   3   6     0.06  -0.16   0.06     0.24  -0.06   0.15     0.01   0.01   0.09
   4   1    -0.05  -0.01  -0.02    -0.30  -0.15  -0.04    -0.05   0.15  -0.08
   5   1     0.42   0.24   0.07     0.03  -0.01   0.04     0.06  -0.00   0.09
   6   6    -0.00   0.35   0.00     0.00   0.14   0.00     0.03  -0.00   0.10
   7   1    -0.12   0.02  -0.09    -0.01   0.01  -0.00    -0.24   0.14  -0.06
   8   1    -0.01   0.08   0.00     0.08   0.00   0.04     0.39  -0.16   0.09
   9   6    -0.06  -0.16  -0.06    -0.24  -0.06  -0.15     0.01  -0.01   0.09
  10   6    -0.03   0.06   0.06     0.31  -0.24   0.05    -0.01  -0.02  -0.30
  11   1     0.12   0.02   0.09     0.01   0.01   0.00    -0.24  -0.14  -0.06
  12   1     0.01   0.08  -0.00    -0.08   0.00  -0.04     0.39   0.16   0.09
  13   1     0.05  -0.01   0.02     0.30  -0.15   0.04    -0.05  -0.15  -0.08
  14   1    -0.42   0.24  -0.07    -0.03  -0.01  -0.04     0.06   0.00   0.09
  15   1    -0.00  -0.12  -0.00     0.00   0.23   0.00    -0.20   0.00   0.03
  16   1     0.00  -0.48  -0.00    -0.00   0.12   0.00     0.09  -0.00  -0.11
  17   8     0.00  -0.04  -0.00    -0.00   0.01   0.00    -0.10   0.00   0.03
                     22                     23                     24
                        a                      a                      a 
 Frequencies --  1217.8556              1232.8959              1237.0452
 Red. masses --     6.1166                 3.9591                 4.4282
 Frc consts  --     0.0000                 0.0000                 0.0000
 IR Inten    --    74.1931                 1.8064                30.2182
 Raman Activ --     0.0000                 0.0000                 0.0000
 Depolar     --     0.0000                 0.0000                 0.0000
 Atom AN      X      Y      Z        X      Y      Z        X      Y      Z
   1   6     0.00   0.12  -0.00     0.21   0.00  -0.27     0.00   0.07  -0.00
   2   6    -0.01  -0.08   0.16    -0.17  -0.00   0.05    -0.07  -0.07   0.22
   3   6     0.07   0.18  -0.05     0.16  -0.02   0.10     0.02  -0.10  -0.12
   4   1     0.03  -0.04   0.04    -0.31  -0.24  -0.03     0.20  -0.02   0.09
   5   1     0.08   0.05  -0.00     0.31   0.22  -0.02    -0.06  -0.02  -0.04
   6   6    -0.00  -0.55  -0.00    -0.03  -0.00  -0.05    -0.00   0.37   0.00
   7   1    -0.21   0.22   0.06    -0.19   0.13  -0.03     0.28  -0.18   0.04
   8   1    -0.19   0.05  -0.04    -0.01   0.03   0.02    -0.24   0.06  -0.07
   9   6    -0.07   0.18   0.05     0.16   0.02   0.10    -0.02  -0.10   0.12
  10   6     0.01  -0.08  -0.16    -0.17   0.00   0.05     0.07  -0.07  -0.22
  11   1     0.21   0.22  -0.06    -0.19  -0.13  -0.03    -0.28  -0.18  -0.04
  12   1     0.19   0.05   0.04    -0.01  -0.03   0.02     0.24   0.06   0.07
  13   1    -0.03  -0.04  -0.04    -0.31   0.24  -0.03    -0.20  -0.02  -0.09
  14   1    -0.08   0.05   0.00     0.31  -0.22  -0.02     0.06  -0.02   0.04
  15   1     0.00   0.31   0.00     0.14  -0.00  -0.05     0.00   0.42   0.00
  16   1    -0.00  -0.38  -0.00     0.01   0.00   0.00    -0.00  -0.22  -0.00
  17   8     0.00   0.08   0.00    -0.06  -0.00   0.04    -0.00  -0.05  -0.00
                     25                     26                     27
                        a                      a                      a 
 Frequencies --  1292.8716              1306.4502              1329.0289
 Red. masses --     5.0053                 4.8242                 4.2349
 Frc consts  --     0.0000                 0.0000                 0.0000
 IR Inten    --    13.6158                 8.6132                 9.0128
 Raman Activ --     0.0000                 0.0000                 0.0000
 Depolar     --     0.0000                 0.0000                 0.0000
 Atom AN      X      Y      Z        X      Y      Z        X      Y      Z
   1   6     0.00   0.04   0.00    -0.00   0.00  -0.11    -0.00   0.34   0.00
   2   6     0.13  -0.08   0.04     0.09  -0.07   0.02     0.25   0.08   0.03
   3   6    -0.31   0.23  -0.01    -0.33   0.18  -0.01     0.01  -0.10   0.01
   4   1    -0.22  -0.10  -0.03    -0.21  -0.11  -0.03    -0.19  -0.12  -0.03
   5   1     0.16   0.04   0.07     0.15   0.05   0.06    -0.31  -0.21  -0.01
   6   6     0.00  -0.11  -0.00     0.04  -0.00   0.07    -0.00   0.12   0.00
   7   1     0.28  -0.16   0.07     0.31  -0.19   0.08    -0.07  -0.00  -0.06
   8   1     0.24  -0.13   0.06     0.28  -0.12   0.06    -0.02  -0.00  -0.00
   9   6     0.31   0.23   0.01    -0.33  -0.18  -0.01    -0.01  -0.10  -0.01
  10   6    -0.13  -0.08  -0.04     0.09   0.07   0.02    -0.25   0.08  -0.03
  11   1    -0.28  -0.16  -0.07     0.31   0.19   0.08     0.07  -0.00   0.06
  12   1    -0.24  -0.13  -0.06     0.28   0.12   0.06     0.02  -0.00   0.00
  13   1     0.22  -0.10   0.03    -0.21   0.11  -0.03     0.19  -0.12   0.03
  14   1    -0.16   0.04  -0.07     0.15  -0.05   0.06     0.31  -0.21   0.01
  15   1     0.00   0.17   0.00     0.08  -0.00  -0.02    -0.00  -0.24  -0.00
  16   1     0.00  -0.23  -0.00    -0.01  -0.00   0.00     0.00  -0.49  -0.00
  17   8    -0.00  -0.01   0.00     0.11   0.00  -0.06    -0.00  -0.01  -0.00
                     28                     29                     30
                        a                      a                      a 
 Frequencies --  1339.8569              1351.3057              1444.8031
 Red. masses --     4.8092                 5.3183                 2.0849
 Frc consts  --     0.0000                 0.0000                 0.0000
 IR Inten    --    20.2956                 0.3113                 3.9318
 Raman Activ --     0.0000                 0.0000                 0.0000
 Depolar     --     0.0000                 0.0000                 0.0000
 Atom AN      X      Y      Z        X      Y      Z        X      Y      Z
   1   6     0.15  -0.00   0.08     0.00   0.45   0.00     0.00   0.04   0.00
   2   6    -0.33  -0.19  -0.04    -0.16  -0.23  -0.07    -0.00   0.00  -0.01
   3   6     0.01   0.09  -0.03    -0.02   0.11  -0.03    -0.06  -0.16  -0.14
   4   1     0.36   0.18   0.06     0.27   0.19   0.03     0.03  -0.04   0.00
   5   1     0.32   0.17   0.07     0.08  -0.01   0.07    -0.01  -0.03   0.04
   6   6    -0.04  -0.00  -0.01     0.00  -0.07  -0.00    -0.00   0.02   0.00
   7   1     0.13  -0.04   0.06     0.12  -0.05   0.03     0.01   0.15   0.46
   8   1    -0.03   0.00  -0.01    -0.00  -0.04  -0.00     0.23   0.39  -0.00
   9   6     0.01  -0.09  -0.03     0.02   0.11   0.03     0.06  -0.16   0.14
  10   6    -0.33   0.19  -0.04     0.16  -0.23   0.07     0.00   0.00   0.01
  11   1     0.13   0.04   0.06    -0.12  -0.05  -0.03    -0.01   0.15  -0.46
  12   1    -0.03  -0.00  -0.01     0.00  -0.04   0.00    -0.23   0.39   0.00
  13   1     0.36  -0.18   0.06    -0.27   0.19  -0.03    -0.03  -0.04  -0.00
  14   1     0.32  -0.17   0.07    -0.08  -0.01  -0.07     0.01  -0.03  -0.04
  15   1    -0.02   0.00   0.01     0.00  -0.54  -0.00    -0.00  -0.03  -0.00
  16   1     0.09   0.00  -0.07     0.00  -0.18  -0.00    -0.00  -0.02  -0.00
  17   8     0.05   0.00  -0.01    -0.00   0.01   0.00     0.00  -0.00  -0.00
                     31                     32                     33
                        a                      a                      a 
 Frequencies --  1453.2831              1480.2401              1482.5030
 Red. masses --     1.9557                 1.8949                 1.9606
 Frc consts  --     0.0000                 0.0000                 0.0000
 IR Inten    --     5.5639                 0.7069                 0.7152
 Raman Activ --     0.0000                 0.0000                 0.0000
 Depolar     --     0.0000                 0.0000                 0.0000
 Atom AN      X      Y      Z        X      Y      Z        X      Y      Z
   1   6    -0.05   0.00   0.02    -0.23  -0.00   0.12     0.00  -0.01  -0.00
   2   6    -0.00   0.00  -0.01     0.01  -0.05   0.06    -0.07   0.15  -0.12
   3   6    -0.04  -0.16  -0.12     0.02   0.01   0.02     0.00   0.03   0.01
   4   1     0.01  -0.02  -0.00    -0.10   0.18  -0.01     0.24  -0.41   0.02
   5   1    -0.01  -0.01   0.02    -0.02   0.06  -0.20     0.02  -0.12   0.46
   6   6     0.01   0.00  -0.03     0.01  -0.00   0.00     0.00  -0.03  -0.00
   7   1    -0.00   0.16   0.45    -0.01  -0.02  -0.06    -0.01  -0.00  -0.04
   8   1     0.21   0.41  -0.00    -0.03  -0.06   0.00    -0.03  -0.04  -0.00
   9   6    -0.04   0.16  -0.12     0.02  -0.01   0.02    -0.00   0.03  -0.01
  10   6    -0.00  -0.00  -0.01     0.01   0.05   0.06     0.07   0.15   0.12
  11   1    -0.00  -0.16   0.45    -0.01   0.02  -0.06     0.01  -0.00   0.04
  12   1     0.21  -0.41  -0.00    -0.03   0.06   0.00     0.03  -0.04   0.00
  13   1     0.01   0.02  -0.00    -0.10  -0.18  -0.01    -0.24  -0.41  -0.02
  14   1    -0.01   0.01   0.02    -0.02  -0.06  -0.20    -0.02  -0.12  -0.46
  15   1     0.11  -0.00   0.02     0.59  -0.00   0.12    -0.00   0.02  -0.00
  16   1     0.05   0.00  -0.11     0.28   0.00  -0.53    -0.00   0.02   0.00
  17   8    -0.04  -0.00   0.01    -0.00  -0.00   0.00    -0.00   0.00   0.00
                     34                     35                     36
                        a                      a                      a 
 Frequencies --  1495.2123              1717.5489              2960.8199
 Red. masses --     2.0139                13.2852                 1.8053
 Frc consts  --     0.0000                 0.0000                 0.0000
 IR Inten    --     0.1743               598.1032                 4.3451
 Raman Activ --     0.0000                 0.0000                 0.0000
 Depolar     --     0.0000                 0.0000                 0.0000
 Atom AN      X      Y      Z        X      Y      Z        X      Y      Z
   1   6     0.13   0.00  -0.04     0.01  -0.00   0.00    -0.00   0.00  -0.00
   2   6     0.04  -0.15   0.11    -0.02  -0.00  -0.00    -0.03   0.03   0.07
   3   6    -0.01  -0.02  -0.01    -0.04   0.03   0.02     0.04   0.01  -0.17
   4   1    -0.20   0.39  -0.01     0.01  -0.00   0.00     0.03   0.01  -0.25
   5   1     0.01   0.12  -0.41     0.01   0.01   0.01     0.08  -0.12  -0.03
   6   6     0.01   0.00  -0.00     0.74   0.00  -0.29    -0.00  -0.00   0.00
   7   1     0.01   0.01   0.05     0.06  -0.04  -0.02    -0.04  -0.06   0.00
   8   1     0.03   0.04   0.00    -0.03   0.02  -0.00    -0.09   0.03   0.60
   9   6    -0.01   0.02  -0.01    -0.04  -0.03   0.02    -0.04   0.01   0.17
  10   6     0.04   0.15   0.11    -0.02   0.00  -0.00     0.03   0.03  -0.07
  11   1     0.01  -0.01   0.05     0.06   0.04  -0.02     0.04  -0.06  -0.00
  12   1     0.03  -0.04   0.00    -0.03  -0.02  -0.00     0.09   0.03  -0.60
  13   1    -0.20  -0.39  -0.01     0.01   0.00   0.00    -0.03   0.01   0.25
  14   1     0.01  -0.12  -0.41     0.01  -0.01   0.01    -0.08  -0.12   0.03
  15   1    -0.28  -0.00  -0.05    -0.00   0.00  -0.00    -0.00  -0.00   0.00
  16   1    -0.12  -0.00   0.25     0.00   0.00  -0.00     0.00   0.00   0.00
  17   8    -0.01  -0.00   0.00    -0.56  -0.00   0.21     0.00  -0.00  -0.00
                     37                     38                     39
                        a                      a                      a 
 Frequencies --  2964.0864              2968.1776              2971.6894
 Red. masses --     1.8050                 1.8799                 1.9804
 Frc consts  --     0.0000                 0.0000                 0.0000
 IR Inten    --     2.7319                 8.6630                11.3508
 Raman Activ --     0.0000                 0.0000                 0.0000
 Depolar     --     0.0000                 0.0000                 0.0000
 Atom AN      X      Y      Z        X      Y      Z        X      Y      Z
   1   6     0.01  -0.00   0.08    -0.05   0.00  -0.20     0.00  -0.00   0.00
   2   6     0.04  -0.05  -0.11    -0.02   0.02   0.06     0.07  -0.08  -0.16
   3   6    -0.03  -0.01   0.13    -0.02  -0.01   0.11     0.02   0.00  -0.08
   4   1    -0.05  -0.01   0.37     0.03   0.01  -0.21    -0.07  -0.01   0.49
   5   1    -0.10   0.17   0.04     0.05  -0.08  -0.02    -0.18   0.30   0.08
   6   6    -0.01  -0.00   0.01    -0.00  -0.00   0.01     0.00   0.00  -0.00
   7   1     0.03   0.05   0.00     0.02   0.04  -0.00    -0.02  -0.03   0.00
   8   1     0.07  -0.02  -0.48     0.06  -0.02  -0.41    -0.05   0.01   0.29
   9   6    -0.03   0.01   0.13    -0.02   0.01   0.11    -0.02   0.00   0.08
  10   6     0.04   0.05  -0.11    -0.02  -0.02   0.06    -0.07  -0.08   0.16
  11   1     0.03  -0.05   0.00     0.02  -0.04  -0.00     0.02  -0.03  -0.00
  12   1     0.07   0.02  -0.48     0.06   0.02  -0.41     0.05   0.01  -0.29
  13   1    -0.05   0.01   0.37     0.03  -0.01  -0.21     0.07  -0.01  -0.49
  14   1    -0.10  -0.17   0.04     0.05   0.08  -0.02     0.18   0.30  -0.08
  15   1     0.05   0.00  -0.28    -0.11  -0.00   0.60     0.00   0.00  -0.00
  16   1    -0.09   0.00  -0.04     0.28  -0.00   0.13    -0.00   0.00  -0.00
  17   8     0.00   0.00  -0.00     0.00   0.00  -0.00    -0.00  -0.00   0.00
                     40                     41                     42
                        a                      a                      a 
 Frequencies --  2978.7234              2984.4059              2985.0568
 Red. masses --     1.9145                 1.5745                 1.5134
 Frc consts  --     0.0000                 0.0000                 0.0000
 IR Inten    --    79.8785               115.9897                33.6290
 Raman Activ --     0.0000                 0.0000                 0.0000
 Depolar     --     0.0000                 0.0000                 0.0000
 Atom AN      X      Y      Z        X      Y      Z        X      Y      Z
   1   6     0.12  -0.00   0.14    -0.09  -0.00   0.11    -0.00  -0.01   0.00
   2   6    -0.06   0.10   0.08     0.00  -0.04   0.11     0.06  -0.11   0.06
   3   6    -0.02  -0.00   0.05     0.01   0.03   0.03     0.03   0.05  -0.00
   4   1     0.02   0.02  -0.17     0.07  -0.00  -0.44     0.06  -0.01  -0.37
   5   1     0.23  -0.37  -0.12    -0.09   0.15   0.07    -0.27   0.43   0.16
   6   6    -0.00  -0.00   0.00    -0.00  -0.00   0.00    -0.00   0.01   0.00
   7   1     0.02   0.04  -0.01    -0.06  -0.09   0.04    -0.12  -0.18   0.07
   8   1     0.03  -0.01  -0.19     0.02  -0.00  -0.14     0.01   0.00  -0.05
   9   6    -0.02   0.00   0.05     0.01  -0.03   0.03    -0.03   0.05   0.00
  10   6    -0.06  -0.10   0.08     0.00   0.04   0.11    -0.06  -0.11  -0.06
  11   1     0.02  -0.04  -0.01    -0.06   0.09   0.04     0.12  -0.18  -0.07
  12   1     0.03   0.01  -0.19     0.02   0.00  -0.14    -0.01   0.00   0.05
  13   1     0.02  -0.02  -0.17     0.07   0.00  -0.44    -0.06  -0.01   0.37
  14   1     0.23   0.37  -0.12    -0.09  -0.15   0.07     0.27   0.43  -0.16
  15   1     0.06   0.00  -0.22     0.08   0.00  -0.56     0.00  -0.00  -0.00
  16   1    -0.50   0.00  -0.27     0.25  -0.00   0.17     0.00  -0.00   0.00
  17   8     0.00  -0.00  -0.00     0.00   0.00  -0.00     0.00  -0.00  -0.00
                     43                     44                     45
                        a                      a                      a 
 Frequencies --  2991.2175              2995.9758              2996.3612
 Red. masses --     1.5683                 1.6737                 1.6758
 Frc consts  --     0.0000                 0.0000                 0.0000
 IR Inten    --   104.5232               103.7895                15.2641
 Raman Activ --     0.0000                 0.0000                 0.0000
 Depolar     --     0.0000                 0.0000                 0.0000
 Atom AN      X      Y      Z        X      Y      Z        X      Y      Z
   1   6     0.16  -0.00   0.00     0.00   0.00   0.00    -0.05   0.00  -0.02
   2   6     0.05  -0.08   0.02    -0.02   0.04  -0.02    -0.02   0.05  -0.03
   3   6     0.04   0.06  -0.01     0.09   0.14  -0.03     0.08   0.13  -0.04
   4   1     0.03  -0.01  -0.17    -0.02   0.00   0.13    -0.03   0.01   0.17
   5   1    -0.18   0.29   0.10     0.10  -0.15  -0.06     0.11  -0.18  -0.07
   6   6     0.00  -0.00  -0.00    -0.00   0.01   0.00     0.01   0.00  -0.00
   7   1    -0.15  -0.22   0.09    -0.34  -0.50   0.19    -0.32  -0.48   0.18
   8   1     0.01   0.01  -0.04     0.02   0.01  -0.08     0.02   0.02  -0.05
   9   6     0.04  -0.06  -0.01    -0.09   0.14   0.03     0.08  -0.13  -0.04
  10   6     0.05   0.08   0.02     0.02   0.04   0.02    -0.02  -0.05  -0.03
  11   1    -0.15   0.22   0.09     0.34  -0.50  -0.19    -0.32   0.48   0.18
  12   1     0.01  -0.01  -0.04    -0.02   0.01   0.08     0.02  -0.02  -0.05
  13   1     0.03   0.01  -0.17     0.02   0.00  -0.13    -0.03  -0.01   0.17
  14   1    -0.18  -0.29   0.10    -0.10  -0.15   0.06     0.11   0.18  -0.07
  15   1    -0.03  -0.00   0.31     0.00   0.00   0.00    -0.00   0.00  -0.03
  16   1    -0.53   0.00  -0.31    -0.00   0.00  -0.00     0.17  -0.00   0.10
  17   8     0.00   0.00  -0.00     0.00  -0.00  -0.00    -0.00  -0.00   0.00
