
                                 *****************
                                 * O   R   C   A *
                                 *****************

                                            #,                                       
                                            ###                                      
                                            ####                                     
                                            #####                                    
                                            ######                                   
                                           ########,                                 
                                     ,,################,,,,,                         
                               ,,#################################,,                 
                          ,,##########################################,,             
                       ,#########################################, ''#####,          
                    ,#############################################,,   '####,        
                  ,##################################################,,,,####,       
                ,###########''''           ''''###############################       
              ,#####''   ,,,,##########,,,,          '''####'''          '####       
            ,##' ,,,,###########################,,,                        '##       
           ' ,,###''''                  '''############,,,                           
         ,,##''                                '''############,,,,        ,,,,,,###''
      ,#''                                            '''#######################'''  
     '                                                          ''''####''''         
             ,#######,   #######,   ,#######,      ##                                
            ,#'     '#,  ##    ##  ,#'     '#,    #''#        ######   ,####,        
            ##       ##  ##   ,#'  ##            #'  '#       #        #'  '#        
            ##       ##  #######   ##           ,######,      #####,   #    #        
            '#,     ,#'  ##    ##  '#,     ,#' ,#      #,         ##   #,  ,#        
             '#######'   ##     ##  '#######'  #'      '#     #####' # '####'        



                  #######################################################
                  #                        -***-                        #
                  #          Department of theory and spectroscopy      #
                  #    Directorship and core code : Frank Neese         #
                  #        Max Planck Institute fuer Kohlenforschung    #
                  #                Kaiser Wilhelm Platz 1               #
                  #                 D-45470 Muelheim/Ruhr               #
                  #                      Germany                        #
                  #                                                     #
                  #                  All rights reserved                #
                  #                        -***-                        #
                  #######################################################


                         Program Version 5.0.2 -  RELEASE  -


 With contributions from (in alphabetic order):
   Daniel Aravena         : Magnetic Suceptibility
   Michael Atanasov       : Ab Initio Ligand Field Theory (pilot matlab implementation)
   Alexander A. Auer      : GIAO ZORA, VPT2 properties, NMR spectrum
   Ute Becker             : Parallelization
   Giovanni Bistoni       : ED, misc. LED, open-shell LED, HFLD
   Martin Brehm           : Molecular dynamics
   Dmytro Bykov           : SCF Hessian
   Vijay G. Chilkuri      : MRCI spin determinant printing, contributions to CSF-ICE
   Dipayan Datta          : RHF DLPNO-CCSD density
   Achintya Kumar Dutta   : EOM-CC, STEOM-CC
   Dmitry Ganyushin       : Spin-Orbit,Spin-Spin,Magnetic field MRCI
   Miquel Garcia          : C-PCM and meta-GGA Hessian, CC/C-PCM, Gaussian charge scheme
   Yang Guo               : DLPNO-NEVPT2, F12-NEVPT2, CIM, IAO-localization
   Andreas Hansen         : Spin unrestricted coupled pair/coupled cluster methods
   Benjamin Helmich-Paris : MC-RPA, TRAH-SCF, COSX integrals
   Lee Huntington         : MR-EOM, pCC
   Robert Izsak           : Overlap fitted RIJCOSX, COSX-SCS-MP3, EOM
   Marcus Kettner         : VPT2
   Christian Kollmar      : KDIIS, OOCD, Brueckner-CCSD(T), CCSD density, CASPT2, CASPT2-K
   Simone Kossmann        : Meta GGA functionals, TD-DFT gradient, OOMP2, MP2 Hessian
   Martin Krupicka        : Initial AUTO-CI
   Lucas Lang             : DCDCAS
   Marvin Lechner         : AUTO-CI (C++ implementation), FIC-MRCC
   Dagmar Lenk            : GEPOL surface, SMD
   Dimitrios Liakos       : Extrapolation schemes; Compound Job, initial MDCI parallelization
   Dimitrios Manganas     : Further ROCIS development; embedding schemes
   Dimitrios Pantazis     : SARC Basis sets
   Anastasios Papadopoulos: AUTO-CI, single reference methods and gradients
   Taras Petrenko         : DFT Hessian,TD-DFT gradient, ASA, ECA, R-Raman, ABS, FL, XAS/XES, NRVS
   Peter Pinski           : DLPNO-MP2, DLPNO-MP2 Gradient
   Christoph Reimann      : Effective Core Potentials
   Marius Retegan         : Local ZFS, SOC
   Christoph Riplinger    : Optimizer, TS searches, QM/MM, DLPNO-CCSD(T), (RO)-DLPNO pert. Triples
   Tobias Risthaus        : Range-separated hybrids, TD-DFT gradient, RPA, STAB
   Michael Roemelt        : Original ROCIS implementation
   Masaaki Saitow         : Open-shell DLPNO-CCSD energy and density
   Barbara Sandhoefer     : DKH picture change effects
   Avijit Sen             : IP-ROCIS
   Kantharuban Sivalingam : CASSCF convergence, NEVPT2, FIC-MRCI
   Bernardo de Souza      : ESD, SOC TD-DFT
   Georgi Stoychev        : AutoAux, RI-MP2 NMR, DLPNO-MP2 response
   Willem Van den Heuvel  : Paramagnetic NMR
   Boris Wezisla          : Elementary symmetry handling
   Frank Wennmohs         : Technical directorship


 We gratefully acknowledge several colleagues who have allowed us to
 interface, adapt or use parts of their codes:
   Stefan Grimme, W. Hujo, H. Kruse, P. Pracht,  : VdW corrections, initial TS optimization,
                  C. Bannwarth, S. Ehlert          DFT functionals, gCP, sTDA/sTD-DF
   Ed Valeev, F. Pavosevic, A. Kumar             : LibInt (2-el integral package), F12 methods
   Garnet Chan, S. Sharma, J. Yang, R. Olivares  : DMRG
   Ulf Ekstrom                                   : XCFun DFT Library
   Mihaly Kallay                                 : mrcc  (arbitrary order and MRCC methods)
   Jiri Pittner, Ondrej Demel                    : Mk-CCSD
   Frank Weinhold                                : gennbo (NPA and NBO analysis)
   Christopher J. Cramer and Donald G. Truhlar   : smd solvation model
   Lars Goerigk                                  : TD-DFT with DH, B97 family of functionals
   V. Asgeirsson, H. Jonsson                     : NEB implementation
   FAccTs GmbH                                   : IRC, NEB, NEB-TS, DLPNO-Multilevel, CI-OPT
                                                   MM, QMMM, 2- and 3-layer-ONIOM, Crystal-QMMM,
                                                   LR-CPCM, SF, NACMEs, symmetry and pop. for TD-DFT,
                                                   nearIR, NL-DFT gradient (VV10), updates on ESD,
                                                   ML-optimized integration grids
   S Lehtola, MJT Oliveira, MAL Marques          : LibXC Library
   Liviu Ungur et al                             : ANISO software


 Your calculation uses the libint2 library for the computation of 2-el integrals
 For citations please refer to: http://libint.valeyev.net

 Your ORCA version has been built with support for libXC version: 5.1.0
 For citations please refer to: https://tddft.org/programs/libxc/

 This ORCA versions uses:
   CBLAS   interface :  Fast vector & matrix operations
   LAPACKE interface :  Fast linear algebra routines
   SCALAPACK package :  Parallel linear algebra routines
   Shared memory     :  Shared parallel matrices
   BLAS/LAPACK       :  OpenBLAS 0.3.15  USE64BITINT DYNAMIC_ARCH NO_AFFINITY Zen SINGLE_THREADED
        Core in use  :  Zen
   Copyright (c) 2011-2014, The OpenBLAS Project


Your calculation utilizes the atom-pairwise dispersion correction
based on tight binding partial charges (D4)
Cite in your paper:
E.Caldeweyher, C.Bannwarth, S.Grimme, J.Chem.Phys., (2017), 147, 034112.
E.Caldeweyher, S.Ehlert, A.Hansen, H.Neugebauer, S.Grimme, J.Chem.Phys., (2018), in progress.
   

================================================================================

----- Orbital basis set information -----
Your calculation utilizes the basis: pcJ-0
   F. Jensen, Theor. Chem. Acc. 126, 371 (2010).

----- AuxJ basis set information -----
Your calculation utilizes the auxiliary basis: def2/J
   F. Weigend, Phys. Chem. Chem. Phys. 8, 1057 (2006).

================================================================================
                                        WARNINGS
                       Please study these warnings very carefully!
================================================================================


INFO   : the flag for use of the SHARK integral package has been found!

================================================================================
                                       INPUT FILE
================================================================================
NAME = inpJ
|  1> ! pbe0
|  2> ! D4
|  3> ! pcJ-0
|  4> ! def2/J RIJCOSX
|  5> ! DEFGRID2
|  6> ! scfconv7
|  7> ! smallprint printgap noloewdin
|  8> ! NOSOSCF
|  9> %MaxCore 4000
| 10> %output
| 11>        print[P_BondOrder_M] 1
| 12>        print[P_Mayer] 1
| 13>        print[P_basis] 2
| 14> end
| 15> %pal
| 16>     nprocs 4
| 17> end
| 18> ! CPCM(chloroform)
| 19> *xyz 0 1
| 20> C   -5.1413635800   0.1267026700  -0.6092433500
| 21> C   -6.5746565300  -0.3278903200  -0.7497738700
| 22> C   -7.5139040700   0.6248034900   0.0013161500
| 23> H   -6.6974478600  -1.3499093900  -0.3736413800
| 24> H   -6.8662010700  -0.3196507400  -1.8105127300
| 25> C   -4.9164140900   1.5314789500  -1.0173173800
| 26> C   -5.8772927400   2.5223610600  -0.3984434200
| 27> C   -7.3352733300   2.0548410500  -0.5110530800
| 28> H   -5.7525717200   3.5086031300  -0.8580368300
| 29> H   -5.6238325300   2.6303234500   0.6672032600
| 30> H   -7.6510961700   2.0861099100  -1.5627150700
| 31> H   -7.9914220700   2.7297481100   0.0507392200
| 32> O   -7.2970030900   0.5366061400   1.4196068200
| 33> H   -8.5534919700   0.3092560600  -0.1509633200
| 34> C   -4.1935924800  -0.6860286200  -0.0844040000
| 35> C   -3.9726627900   1.8970964600  -1.8915754500
| 36> H   -3.3032323800   1.1673191400  -2.3392127000
| 37> H   -3.8559243800   2.9374787900  -2.1860248000
| 38> C   -2.8224727100  -0.3239101300   0.1916324700
| 39> H   -4.5130375100  -1.6937680000   0.1786613400
| 40> C   -1.8455767200  -1.1461968400   0.6301442000
| 41> H   -2.5699512000   0.7226571900   0.0366854800
| 42> C   -1.9872512700  -2.6253754600   0.8850695700
| 43> C   -0.9247032100  -3.4400418400   0.1217509400
| 44> H   -2.9853003600  -2.9954083300   0.6349286400
| 45> H   -1.8407056500  -2.7976450200   1.9633572300
| 46> C    0.4989376100  -2.9123212700   0.3460530400
| 47> H   -1.1618904500  -3.4229982400  -0.9495327500
| 48> H   -0.9817647300  -4.4891184800   0.4369000400
| 49> C    0.6097704900  -1.4150043200   0.0266619300
| 50> H    1.1963399400  -3.5017664400  -0.2582161000
| 51> H    0.7800655900  -3.0636934400   1.3992266500
| 52> C   -0.4508486400  -0.6715851900   0.8989315000
| 53> H   -0.2138247700  -0.9695048300   1.9373445000
| 54> C   -0.0777616500   0.7992868400   0.7535101600
| 55> H   -6.3413378900   0.4982888200   1.5679998600
| 56> C    1.4696577200   0.7739518100   0.7342500200
| 57> H   -0.4811011200   1.4124122000   1.5663595400
| 58> H   -0.4693206300   1.2083517500  -0.1846865600
| 59> C    1.9059582100  -0.7102466800   0.5216658800
| 60> H    1.8798224500   1.1706060400   1.6670177400
| 61> H    1.8683137400   1.4034153100  -0.0703235100
| 62> H    2.1361572400  -1.1569001900   1.5017042800
| 63> C    3.1627219400  -0.8166603300  -0.3533612700
| 64> C    0.3667504600  -1.1496277800  -1.4658601200
| 65> H    0.5725693000  -0.1077663800  -1.7315301200
| 66> H   -0.6714157600  -1.3566395900  -1.7439360000
| 67> H    1.0123275700  -1.7824779600  -2.0840946700
| 68> H    2.9357840900  -0.3286999900  -1.3145572400
| 69> C    3.5965612600  -2.2612604600  -0.6629865500
| 70> C    4.3611857400  -0.0979608300   0.2261145300
| 71> C    4.5772792200   0.2325736700   1.4982548700
| 72> H    5.1569081700   0.1063210600  -0.4959477500
| 73> H    3.8138286000   0.0307750600   2.2534127900
| 74> C    5.8348538500   0.8661124000   2.0255065200
| 75> C    6.5179772000  -0.1086679700   2.9986600600
| 76> C    5.5279499200   2.2334892500   2.6841102900
| 77> H    6.5138721400   1.0492389200   1.1773064500
| 78> H    4.7995710600   2.0489209700   3.4907774800
| 79> C    4.8978694700   3.1973993500   1.6753348200
| 80> C    6.7758476500   2.8704816200   3.3023586500
| 81> H    5.9079421100  -0.2414703900   3.9011319200
| 82> H    7.5061726400   0.2467205000   3.3048597800
| 83> H    6.6430619000  -1.0897008200   2.5289229900
| 84> H    3.9760734800   2.7903261200   1.2486017900
| 85> H    5.5937146800   3.3884020800   0.8478752400
| 86> H    4.6642243800   4.1578531700   2.1477178000
| 87> H    7.1741926900   2.2828817500   4.1342660900
| 88> H    6.5446584200   3.8711341400   3.6839994700
| 89> H    7.5675545800   2.9750701900   2.5489443900
| 90> H    2.8811546800  -2.7766550200  -1.3088537100
| 91> H    3.7038118400  -2.8343736600   0.2655901500
| 92> H    4.5668774800  -2.2654603700  -1.1722113200
| 93> *
| 94> %eprnmr
| 95>  Nuclei = all H { ssfc }
| 96>  SpinSpinRThresh 8.0
| 97> end
| 98> 
| 99>                          ****END OF INPUT****
================================================================================

                       ****************************
                       * Single Point Calculation *
                       ****************************

---------------------------------
CARTESIAN COORDINATES (ANGSTROEM)
---------------------------------
  C     -5.141364    0.126703   -0.609243
  C     -6.574657   -0.327890   -0.749774
  C     -7.513904    0.624803    0.001316
  H     -6.697448   -1.349909   -0.373641
  H     -6.866201   -0.319651   -1.810513
  C     -4.916414    1.531479   -1.017317
  C     -5.877293    2.522361   -0.398443
  C     -7.335273    2.054841   -0.511053
  H     -5.752572    3.508603   -0.858037
  H     -5.623833    2.630323    0.667203
  H     -7.651096    2.086110   -1.562715
  H     -7.991422    2.729748    0.050739
  O     -7.297003    0.536606    1.419607
  H     -8.553492    0.309256   -0.150963
  C     -4.193592   -0.686029   -0.084404
  C     -3.972663    1.897096   -1.891575
  H     -3.303232    1.167319   -2.339213
  H     -3.855924    2.937479   -2.186025
  C     -2.822473   -0.323910    0.191632
  H     -4.513038   -1.693768    0.178661
  C     -1.845577   -1.146197    0.630144
  H     -2.569951    0.722657    0.036685
  C     -1.987251   -2.625375    0.885070
  C     -0.924703   -3.440042    0.121751
  H     -2.985300   -2.995408    0.634929
  H     -1.840706   -2.797645    1.963357
  C      0.498938   -2.912321    0.346053
  H     -1.161890   -3.422998   -0.949533
  H     -0.981765   -4.489118    0.436900
  C      0.609770   -1.415004    0.026662
  H      1.196340   -3.501766   -0.258216
  H      0.780066   -3.063693    1.399227
  C     -0.450849   -0.671585    0.898931
  H     -0.213825   -0.969505    1.937344
  C     -0.077762    0.799287    0.753510
  H     -6.341338    0.498289    1.568000
  C      1.469658    0.773952    0.734250
  H     -0.481101    1.412412    1.566360
  H     -0.469321    1.208352   -0.184687
  C      1.905958   -0.710247    0.521666
  H      1.879822    1.170606    1.667018
  H      1.868314    1.403415   -0.070324
  H      2.136157   -1.156900    1.501704
  C      3.162722   -0.816660   -0.353361
  C      0.366750   -1.149628   -1.465860
  H      0.572569   -0.107766   -1.731530
  H     -0.671416   -1.356640   -1.743936
  H      1.012328   -1.782478   -2.084095
  H      2.935784   -0.328700   -1.314557
  C      3.596561   -2.261260   -0.662987
  C      4.361186   -0.097961    0.226115
  C      4.577279    0.232574    1.498255
  H      5.156908    0.106321   -0.495948
  H      3.813829    0.030775    2.253413
  C      5.834854    0.866112    2.025507
  C      6.517977   -0.108668    2.998660
  C      5.527950    2.233489    2.684110
  H      6.513872    1.049239    1.177306
  H      4.799571    2.048921    3.490777
  C      4.897869    3.197399    1.675335
  C      6.775848    2.870482    3.302359
  H      5.907942   -0.241470    3.901132
  H      7.506173    0.246721    3.304860
  H      6.643062   -1.089701    2.528923
  H      3.976073    2.790326    1.248602
  H      5.593715    3.388402    0.847875
  H      4.664224    4.157853    2.147718
  H      7.174193    2.282882    4.134266
  H      6.544658    3.871134    3.683999
  H      7.567555    2.975070    2.548944
  H      2.881155   -2.776655   -1.308854
  H      3.703812   -2.834374    0.265590
  H      4.566877   -2.265460   -1.172211

----------------------------
CARTESIAN COORDINATES (A.U.)
----------------------------
  NO LB      ZA    FRAG     MASS         X           Y           Z
   0 C     6.0000    0    12.011   -9.715769    0.239433   -1.151303
   1 C     6.0000    0    12.011  -12.424300   -0.619623   -1.416867
   2 C     6.0000    0    12.011  -14.199221    1.180707    0.002487
   3 H     1.0000    0     1.008  -12.656342   -2.550959   -0.706080
   4 H     1.0000    0     1.008  -12.975240   -0.604052   -3.421373
   5 C     6.0000    0    12.011   -9.290676    2.894076   -1.922451
   6 C     6.0000    0    12.011  -11.106474    4.766572   -0.752949
   7 C     6.0000    0    12.011  -13.861658    3.883087   -0.965750
   8 H     1.0000    0     1.008  -10.870785    6.630299   -1.621455
   9 H     1.0000    0     1.008  -10.627503    4.970591    1.260831
  10 H     1.0000    0     1.008  -14.458476    3.942176   -2.953104
  11 H     1.0000    0     1.008  -15.101599    5.158476    0.095883
  12 O     8.0000    0    15.999  -13.789337    1.014039    2.682668
  13 H     1.0000    0     1.008  -16.163757    0.584409   -0.285279
  14 C     6.0000    0    12.011   -7.924741   -1.296406   -0.159500
  15 C     6.0000    0    12.011   -7.507245    3.584993   -3.574560
  16 H     1.0000    0     1.008   -6.242205    2.205913   -4.420471
  17 H     1.0000    0     1.008   -7.286641    5.551030   -4.130988
  18 C     6.0000    0    12.011   -5.333700   -0.612101    0.362133
  19 H     1.0000    0     1.008   -8.528405   -3.200758    0.337621
  20 C     6.0000    0    12.011   -3.487635   -2.165998    1.190800
  21 H     1.0000    0     1.008   -4.856504    1.365624    0.069326
  22 C     6.0000    0    12.011   -3.755361   -4.961241    1.672539
  23 C     6.0000    0    12.011   -1.747436   -6.500737    0.230076
  24 H     1.0000    0     1.008   -5.641400   -5.660501    1.199841
  25 H     1.0000    0     1.008   -3.478430   -5.286783    3.710207
  26 C     6.0000    0    12.011    0.942855   -5.503490    0.653945
  27 H     1.0000    0     1.008   -2.195655   -6.468529   -1.794357
  28 H     1.0000    0     1.008   -1.855266   -8.483205    0.825621
  29 C     6.0000    0    12.011    1.152299   -2.673971    0.050384
  30 H     1.0000    0     1.008    2.260755   -6.617380   -0.487958
  31 H     1.0000    0     1.008    1.474110   -5.789542    2.644155
  32 C     6.0000    0    12.011   -0.851980   -1.269112    1.698734
  33 H     1.0000    0     1.008   -0.404070   -1.832099    3.661051
  34 C     6.0000    0    12.011   -0.146948    1.510433    1.423928
  35 H     1.0000    0     1.008  -11.983392    0.941629    2.963090
  36 C     6.0000    0    12.011    2.777251    1.462557    1.387531
  37 H     1.0000    0     1.008   -0.909149    2.669072    2.959991
  38 H     1.0000    0     1.008   -0.886887    2.283454   -0.349007
  39 C     6.0000    0    12.011    3.601739   -1.342172    0.985806
  40 H     1.0000    0     1.008    3.552350    2.212125    3.150207
  41 H     1.0000    0     1.008    3.530601    2.652071   -0.132892
  42 H     1.0000    0     1.008    4.036752   -2.186225    2.837810
  43 C     6.0000    0    12.011    5.976678   -1.543264   -0.667756
  44 C     6.0000    0    12.011    0.693058   -2.172482   -2.770074
  45 H     1.0000    0     1.008    1.081999   -0.203649   -3.272118
  46 H     1.0000    0     1.008   -1.268792   -2.563677   -3.295561
  47 H     1.0000    0     1.008    1.913022   -3.368395   -3.938368
  48 H     1.0000    0     1.008    5.547828   -0.621153   -2.484153
  49 C     6.0000    0    12.011    6.796516   -4.273163   -1.252863
  50 C     6.0000    0    12.011    8.241447   -0.185119    0.427295
  51 C     6.0000    0    12.011    8.649804    0.439501    2.831291
  52 H     1.0000    0     1.008    9.745144    0.200918   -0.937205
  53 H     1.0000    0     1.008    7.207092    0.058156    4.258333
  54 C     6.0000    0    12.011   11.026276    1.636715    3.827653
  55 C     6.0000    0    12.011   12.317192   -0.205353    5.666646
  56 C     6.0000    0    12.011   10.446311    4.220683    5.072233
  57 H     1.0000    0     1.008   12.309434    1.982774    2.224787
  58 H     1.0000    0     1.008    9.069875    3.871900    6.596613
  59 C     6.0000    0    12.011    9.255632    6.042209    3.165924
  60 C     6.0000    0    12.011   12.804496    5.424424    6.240553
  61 H     1.0000    0     1.008   11.164393   -0.456313    7.372071
  62 H     1.0000    0     1.008   14.184611    0.466234    6.245280
  63 H     1.0000    0     1.008   12.553568   -2.059236    4.778972
  64 H     1.0000    0     1.008    7.513690    5.272952    2.359515
  65 H     1.0000    0     1.008   10.570589    6.403152    1.602252
  66 H     1.0000    0     1.008    8.814107    7.857204    4.058598
  67 H     1.0000    0     1.008   13.557259    4.314021    7.812631
  68 H     1.0000    0     1.008   12.367612    7.315383    6.961750
  69 H     1.0000    0     1.008   14.300606    5.622068    4.816807
  70 H     1.0000    0     1.008    5.444593   -5.247118   -2.473375
  71 H     1.0000    0     1.008    6.999190   -5.356190    0.501893
  72 H     1.0000    0     1.008    8.630148   -4.281100   -2.215158

--------------------------------
INTERNAL COORDINATES (ANGSTROEM)
--------------------------------
 C      0   0   0     0.000000000000     0.00000000     0.00000000
 C      1   0   0     1.510209354404     0.00000000     0.00000000
 C      2   1   0     1.534258014531   110.39785605     0.00000000
 H      2   1   3     1.095936284736   110.80020104   237.85250720
 H      2   1   3     1.100105921535   109.81515268   118.68726524
 C      1   2   3     1.480041581802   113.84706755   305.86518814
 C      6   1   2     1.512659946687   114.35544036    50.11124605
 C      3   2   1     1.529522341169   110.18618611    56.82571579
 H      7   6   1     1.095196263682   110.23449395   188.63122436
 H      7   6   1     1.100681971463   108.30545047    71.92335051
 H      8   3   2     1.098505689144   108.28464791    64.52939946
 H      8   3   2     1.096194005175   109.51488855   181.49512704
 O      3   2   1     1.437488515530   110.64263727   292.76611201
 H      3   2   1     1.097042487504   109.48515668   177.25967270
 C      1   2   3     1.354348016962   121.30425274   122.49435288
 C      6   1   2     1.337411624307   123.15880878   232.12926172
 H     16   6   1     1.086780160937   121.35538817   358.95306170
 H     16   6   1     1.087530996644   120.94798721   178.36378311
 C     15   1   2     1.444747506402   125.99867531   185.08136378
 H     15   1   2     1.089397612584   116.32642468     3.06934917
 C     19  15   1     1.350101383626   126.59091336   184.75579081
 H     19  15   1     1.087694275987   115.73953126     5.50671230
 C     21  19  15     1.507656463606   125.76601069     1.74180092
 C     23  21  19     1.541215436406   111.72015930   126.05158207
 H     23  21  19     1.093433489423   112.27872999     2.31754021
 H     23  21  19     1.101751649761   107.84200685   244.68422924
 C     24  23  21     1.534781292705   112.66648612    50.74762772
 H     24  23  21     1.097359109672   109.04301879   288.64443724
 H     24  23  21     1.096875913168   109.11035135   172.68910898
 C     27  24  23     1.535009008831   111.83679138   306.21947190
 H     27  24  23     1.094968863430   108.96826026   182.66618387
 H     27  24  23     1.100509485552   109.23961530    66.16019154
 C     21  19  15     1.497587809812   122.62575769   180.50635860
 H     33  21  19     1.106000897566   106.42337989   125.72002616
 C     33  21  19     1.524403423268   121.10445827     3.07074197
 H     13   3   2     0.967876379412   107.61892667    42.20279476
 C     35  33  21     1.547746595341   103.30202588   195.00677522
 H     35  33  21     1.095139054961   112.28759895    73.25339722
 H     35  33  21     1.095840143831   110.75683483   313.50824021
 C     30  27  24     1.556218123250   115.82989512   166.59041597
 H     37  35  33     1.093446525161   111.00682797   252.18384942
 H     37  35  33     1.096580815668   111.29696241   133.94827896
 H     40  30  27     1.101347455113   105.87124772   322.27665209
 C     40  30  27     1.535073760829   117.98204249    83.18443620
 C     30  27  24     1.535286785164   111.06663542   294.78839999
 H     45  30  27     1.094722394312   111.75679640   187.54996385
 H     45  30  27     1.094517786455   111.37272031    67.60250709
 H     45  30  27     1.095209164541   110.82911702   307.54136721
 H     44  40  30     1.101591473242   107.33803160    62.56800738
 C     44  40  30     1.539790214669   114.22545134   303.68704406
 C     44  40  30     1.512824065778   113.40952159   180.13432202
 C     51  44  40     1.332024959392   127.75067631    22.15674852
 H     51  44  40     1.093745497081   114.34310042   197.99071203
 H     52  51  44     1.092631233452   120.05832609   356.66995177
 C     52  51  44     1.503615501003   125.10863584   175.63050128
 C     55  52  51     1.537492144197   109.05156199   244.61319402
 C     55  52  51     1.548440634323   110.82107213   120.55844219
 H     55  52  51     1.101836884130   108.39165227     2.66441278
 H     57  55  52     1.102412431488   107.11788317    58.16563380
 C     57  55  52     1.530931743491   110.93496913   300.03787428
 C     57  55  52     1.531417336529   112.17983942   176.77361713
 H     56  55  52     1.097376303681   110.50345012   292.71582946
 H     56  55  52     1.093887316305   111.87452323   172.16638217
 H     56  55  52     1.094862799571   110.32184388    51.99377334
 H     60  57  55     1.094311445913   111.68007844    58.04127427
 H     60  57  55     1.097894328103   110.20051833   298.32831974
 H     60  57  55     1.095539706367   110.83266667   178.94009021
 H     61  57  55     1.093628075190   112.35951047   295.35524528
 H     61  57  55     1.095629335743   110.39997134   175.21755369
 H     61  57  55     1.097894202169   110.49922212    56.17029997
 H     50  44  40     1.092969585831   112.13601531    67.66845980
 H     50  44  40     1.096456161781   110.34351086   306.53946603
 H     50  44  40     1.095828943048   110.27453778   187.61473580

---------------------------
INTERNAL COORDINATES (A.U.)
---------------------------
 C      0   0   0     0.000000000000     0.00000000     0.00000000
 C      1   0   0     2.853882084709     0.00000000     0.00000000
 C      2   1   0     2.899327466237   110.39785605     0.00000000
 H      2   1   3     2.071019438378   110.80020104   237.85250720
 H      2   1   3     2.078898910006   109.81515268   118.68726524
 C      1   2   3     2.796873256421   113.84706755   305.86518814
 C      6   1   2     2.858513032990   114.35544036    50.11124605
 C      3   2   1     2.890378340523   110.18618611    56.82571579
 H      7   6   1     2.069621001253   110.23449395   188.63122436
 H      7   6   1     2.079987486609   108.30545047    71.92335051
 H      8   3   2     2.075874909037   108.28464791    64.52939946
 H      8   3   2     2.071506459426   109.51488855   181.49512704
 O      3   2   1     2.716459615009   110.64263727   292.76611201
 H      3   2   1     2.073109858659   109.48515668   177.25967270
 C      1   2   3     2.559346842077   121.30425274   122.49435288
 C      6   1   2     2.527341698262   123.15880878   232.12926172
 H     16   6   1     2.053716871950   121.35538817   358.95306170
 H     16   6   1     2.055135745807   120.94798721   178.36378311
 C     15   1   2     2.730177119765   125.99867531   185.08136378
 H     15   1   2     2.058663138731   116.32642468     3.06934917
 C     19  15   1     2.551321868081   126.59091336   184.75579081
 H     19  15   1     2.055444299049   115.73953126     5.50671230
 C     21  19  15     2.849057820251   125.76601069     1.74180092
 C     23  21  19     2.912475088180   111.72015930   126.05158207
 H     23  21  19     2.066289840667   112.27872999     2.31754021
 H     23  21  19     2.082008885645   107.84200685   244.68422924
 C     24  23  21     2.900316318677   112.66648612    50.74762772
 H     24  23  21     2.073708187843   109.04301879   288.64443724
 H     24  23  21     2.072795078783   109.11035135   172.68910898
 C     27  24  23     2.900746639793   111.83679138   306.21947190
 H     27  24  23     2.069191277055   108.96826026   182.66618387
 H     27  24  23     2.079661535476   109.23961530    66.16019154
 C     21  19  15     2.830030822044   122.62575769   180.50635860
 H     33  21  19     2.090038800271   106.42337989   125.72002616
 C     33  21  19     2.880704987588   121.10445827     3.07074197
 H     13   3   2     1.829021288580   107.61892667    42.20279476
 C     35  33  21     2.924817189903   103.30202588   195.00677522
 H     35  33  21     2.069512892438   112.28759895    73.25339722
 H     35  33  21     2.070837758397   110.75683483   313.50824021
 C     30  27  24     2.940826057588   115.82989512   166.59041597
 H     37  35  33     2.066314474642   111.00682797   252.18384942
 H     37  35  33     2.072237425325   111.29696241   133.94827896
 H     40  30  27     2.081245068454   105.87124772   322.27665209
 C     40  30  27     2.900869003336   117.98204249    83.18443620
 C     30  27  24     2.901271560989   111.06663542   294.78839999
 H     45  30  27     2.068725517921   111.75679640   187.54996385
 H     45  30  27     2.068338865106   111.37272031    67.60250709
 H     45  30  27     2.069645380344   110.82911702   307.54136721
 H     44  40  30     2.081706195890   107.33803160    62.56800738
 C     44  40  30     2.909781809415   114.22545134   303.68704406
 C     44  40  30     2.858823173125   113.40952159   180.13432202
 C     51  44  40     2.517162376799   127.75067631    22.15674852
 H     51  44  40     2.066879449693   114.34310042   197.99071203
 H     52  51  44     2.064773796593   120.05832609   356.66995177
 C     52  51  44     2.841421507615   125.10863584   175.63050128
 C     55  52  51     2.905439085587   109.05156199   244.61319402
 C     55  52  51     2.926128733506   110.82107213   120.55844219
 H     55  52  51     2.082169955259   108.39165227     2.66441278
 H     57  55  52     2.083257582143   107.11788317    58.16563380
 C     57  55  52     2.893041724924   110.93496913   300.03787428
 C     57  55  52     2.893959362778   112.17983942   176.77361713
 H     56  55  52     2.073740679812   110.50345012   292.71582946
 H     56  55  52     2.067147449187   111.87452323   172.16638217
 H     56  55  52     2.068990845408   110.32184388    51.99377334
 H     60  57  55     2.067948937991   111.68007844    58.04127427
 H     60  57  55     2.074719604101   110.20051833   298.32831974
 H     60  57  55     2.070270013871   110.83266667   178.94009021
 H     61  57  55     2.066657554477   112.35951047   295.35524528
 H     61  57  55     2.070439388844   110.39997134   175.21755369
 H     61  57  55     2.074719366119   110.49922212    56.17029997
 H     50  44  40     2.065413189926   112.13601531    67.66845980
 H     50  44  40     2.072001863616   110.34351086   306.53946603
 H     50  44  40     2.070816591984   110.27453778   187.61473580

---------------------
BASIS SET INFORMATION
---------------------
There are 3 groups of distinct atoms

 Group   1 Type C   : 7s4p contracted to 4s3p pattern {4111/211}
 Group   2 Type H   : 5s contracted to 3s pattern {311}
 Group   3 Type O   : 7s4p contracted to 4s3p pattern {4111/211}

Atom   0C    basis set group =>   1
Atom   1C    basis set group =>   1
Atom   2C    basis set group =>   1
Atom   3H    basis set group =>   2
Atom   4H    basis set group =>   2
Atom   5C    basis set group =>   1
Atom   6C    basis set group =>   1
Atom   7C    basis set group =>   1
Atom   8H    basis set group =>   2
Atom   9H    basis set group =>   2
Atom  10H    basis set group =>   2
Atom  11H    basis set group =>   2
Atom  12O    basis set group =>   3
Atom  13H    basis set group =>   2
Atom  14C    basis set group =>   1
Atom  15C    basis set group =>   1
Atom  16H    basis set group =>   2
Atom  17H    basis set group =>   2
Atom  18C    basis set group =>   1
Atom  19H    basis set group =>   2
Atom  20C    basis set group =>   1
Atom  21H    basis set group =>   2
Atom  22C    basis set group =>   1
Atom  23C    basis set group =>   1
Atom  24H    basis set group =>   2
Atom  25H    basis set group =>   2
Atom  26C    basis set group =>   1
Atom  27H    basis set group =>   2
Atom  28H    basis set group =>   2
Atom  29C    basis set group =>   1
Atom  30H    basis set group =>   2
Atom  31H    basis set group =>   2
Atom  32C    basis set group =>   1
Atom  33H    basis set group =>   2
Atom  34C    basis set group =>   1
Atom  35H    basis set group =>   2
Atom  36C    basis set group =>   1
Atom  37H    basis set group =>   2
Atom  38H    basis set group =>   2
Atom  39C    basis set group =>   1
Atom  40H    basis set group =>   2
Atom  41H    basis set group =>   2
Atom  42H    basis set group =>   2
Atom  43C    basis set group =>   1
Atom  44C    basis set group =>   1
Atom  45H    basis set group =>   2
Atom  46H    basis set group =>   2
Atom  47H    basis set group =>   2
Atom  48H    basis set group =>   2
Atom  49C    basis set group =>   1
Atom  50C    basis set group =>   1
Atom  51C    basis set group =>   1
Atom  52H    basis set group =>   2
Atom  53H    basis set group =>   2
Atom  54C    basis set group =>   1
Atom  55C    basis set group =>   1
Atom  56C    basis set group =>   1
Atom  57H    basis set group =>   2
Atom  58H    basis set group =>   2
Atom  59C    basis set group =>   1
Atom  60C    basis set group =>   1
Atom  61H    basis set group =>   2
Atom  62H    basis set group =>   2
Atom  63H    basis set group =>   2
Atom  64H    basis set group =>   2
Atom  65H    basis set group =>   2
Atom  66H    basis set group =>   2
Atom  67H    basis set group =>   2
Atom  68H    basis set group =>   2
Atom  69H    basis set group =>   2
Atom  70H    basis set group =>   2
Atom  71H    basis set group =>   2
Atom  72H    basis set group =>   2

-------------------------
BASIS SET IN INPUT FORMAT
-------------------------

 # Basis set for element : H 
 NewGTO H 
 S 3 
   1    1357.7500000000      0.0012928364
   2      54.3100000000      0.0588280685
   3       4.3448000000      0.9761499708
 S 1 
   1       0.6604910000      1.0000000000
 S 1 
   1       0.1366870000      1.0000000000
  end;

 # Basis set for element : C 
 NewGTO C 
 S 4 
   1  139534.0000000000      0.0001655246
   2    5581.3600000000      0.0074486101
   3     446.5090000000      0.1285821065
   4      67.4620000000      0.9218029311
 S 1 
   1      15.0674000000      1.0000000000
 S 1 
   1       3.9387600000      1.0000000000
 S 1 
   1       0.2999150000      1.0000000000
 P 2 
   1      28.3900000000      0.0816325586
   2       4.3676900000      0.9660360576
 P 1 
   1       0.8698170000      1.0000000000
 P 1 
   1       0.1889340000      1.0000000000
  end;

 # Basis set for element : O 
 NewGTO O 
 S 4 
   1  253789.0000000000      0.0001641076
   2   10151.6000000000      0.0074010921
   3     812.1250000000      0.1277711901
   4     122.6930000000      0.9223372164
 S 1 
   1      27.5608000000      1.0000000000
 S 1 
   1       7.3172600000      1.0000000000
 S 1 
   1       0.5792400000      1.0000000000
 P 2 
   1      53.4157000000      0.0793786106
   2       8.2177900000      0.9670506337
 P 1 
   1       1.6754400000      1.0000000000
 P 1 
   1       0.3506720000      1.0000000000
  end;

---------------------------------
AUXILIARY/J BASIS SET INFORMATION
---------------------------------
There are 3 groups of distinct atoms

 Group   1 Type C   : 12s5p4d2f1g contracted to 6s4p3d1f1g pattern {711111/2111/211/2/1}
 Group   2 Type H   : 5s2p1d contracted to 3s1p1d pattern {311/2/1}
 Group   3 Type O   : 12s5p4d2f1g contracted to 6s4p3d1f1g pattern {711111/2111/211/2/1}

Atom   0C    basis set group =>   1
Atom   1C    basis set group =>   1
Atom   2C    basis set group =>   1
Atom   3H    basis set group =>   2
Atom   4H    basis set group =>   2
Atom   5C    basis set group =>   1
Atom   6C    basis set group =>   1
Atom   7C    basis set group =>   1
Atom   8H    basis set group =>   2
Atom   9H    basis set group =>   2
Atom  10H    basis set group =>   2
Atom  11H    basis set group =>   2
Atom  12O    basis set group =>   3
Atom  13H    basis set group =>   2
Atom  14C    basis set group =>   1
Atom  15C    basis set group =>   1
Atom  16H    basis set group =>   2
Atom  17H    basis set group =>   2
Atom  18C    basis set group =>   1
Atom  19H    basis set group =>   2
Atom  20C    basis set group =>   1
Atom  21H    basis set group =>   2
Atom  22C    basis set group =>   1
Atom  23C    basis set group =>   1
Atom  24H    basis set group =>   2
Atom  25H    basis set group =>   2
Atom  26C    basis set group =>   1
Atom  27H    basis set group =>   2
Atom  28H    basis set group =>   2
Atom  29C    basis set group =>   1
Atom  30H    basis set group =>   2
Atom  31H    basis set group =>   2
Atom  32C    basis set group =>   1
Atom  33H    basis set group =>   2
Atom  34C    basis set group =>   1
Atom  35H    basis set group =>   2
Atom  36C    basis set group =>   1
Atom  37H    basis set group =>   2
Atom  38H    basis set group =>   2
Atom  39C    basis set group =>   1
Atom  40H    basis set group =>   2
Atom  41H    basis set group =>   2
Atom  42H    basis set group =>   2
Atom  43C    basis set group =>   1
Atom  44C    basis set group =>   1
Atom  45H    basis set group =>   2
Atom  46H    basis set group =>   2
Atom  47H    basis set group =>   2
Atom  48H    basis set group =>   2
Atom  49C    basis set group =>   1
Atom  50C    basis set group =>   1
Atom  51C    basis set group =>   1
Atom  52H    basis set group =>   2
Atom  53H    basis set group =>   2
Atom  54C    basis set group =>   1
Atom  55C    basis set group =>   1
Atom  56C    basis set group =>   1
Atom  57H    basis set group =>   2
Atom  58H    basis set group =>   2
Atom  59C    basis set group =>   1
Atom  60C    basis set group =>   1
Atom  61H    basis set group =>   2
Atom  62H    basis set group =>   2
Atom  63H    basis set group =>   2
Atom  64H    basis set group =>   2
Atom  65H    basis set group =>   2
Atom  66H    basis set group =>   2
Atom  67H    basis set group =>   2
Atom  68H    basis set group =>   2
Atom  69H    basis set group =>   2
Atom  70H    basis set group =>   2
Atom  71H    basis set group =>   2
Atom  72H    basis set group =>   2

-------------------------------------
AUXILIARY/J BASIS SET IN INPUT FORMAT
-------------------------------------

 # Auxiliary/J basis set for element : H 
 NewAuxJGTO H 
 S 3 
   1      15.6752927000      0.1007184237
   2       3.6063578000      0.3404257499
   3       1.2080016000      0.6491996172
 S 1 
   1       0.4726794000      1.0000000000
 S 1 
   1       0.2018100000      1.0000000000
 P 2 
   1       2.0281365000      0.5596620919
   2       0.5358730000      0.5596620919
 D 1 
   1       2.2165124000      1.0000000000
  end;

 # Auxiliary/J basis set for element : C 
 NewAuxJGTO C 
 S 7 
   1    1861.0916331000      0.0134602335
   2     642.9939764000      0.0299160374
   3     235.1105725000      0.1008649584
   4      90.7028894000      0.2370970548
   5      36.7794552000      0.3924037254
   6      15.6046273000      0.3195862154
   7       6.8907294000      0.0530104441
 S 1 
   1       3.1478850000     -1.0000000000
 S 1 
   1       1.4777287000      1.0000000000
 S 1 
   1       0.7076466000      1.0000000000
 S 1 
   1       0.3430122000      1.0000000000
 S 1 
   1       0.1669453000      1.0000000000
 P 2 
   1      13.5472892000     -0.6769313712
   2       5.4669419000     -0.3779500978
 P 1 
   1       2.1751721000      1.0000000000
 P 1 
   1       0.8582194000      1.0000000000
 P 1 
   1       0.3376720000      1.0000000000
 D 2 
   1       5.9287253000     -0.3533329857
   2       1.9809209000     -0.7456525731
 D 1 
   1       0.8055417000     -1.0000000000
 D 1 
   1       0.3531244000     -1.0000000000
 F 2 
   1       1.6755626000      0.6311076882
   2       0.5997536000      0.4968166032
 G 1 
   1       1.0024600000     -1.0000000000
  end;

 # Auxiliary/J basis set for element : O 
 NewAuxJGTO O 
 S 7 
   1    2876.8216605000      0.0168151159
   2    1004.7443032000      0.0340137548
   3     369.7579954000      0.1194951309
   4     142.9442404000      0.2664627624
   5      57.8366425000      0.4202764046
   6      24.3864983000      0.2765077335
   7      10.6622662000      0.0057008815
 S 1 
   1       4.8070437000     -1.0000000000
 S 1 
   1       2.2210770000      1.0000000000
 S 1 
   1       1.0447795000      1.0000000000
 S 1 
   1       0.4968425000      1.0000000000
 S 1 
   1       0.2371384000      1.0000000000
 P 2 
   1      64.2613382000     -0.2731534179
   2      16.3006076000     -0.8168011598
 P 1 
   1       4.3550542000      1.0000000000
 P 1 
   1       1.2019554000      1.0000000000
 P 1 
   1       0.3354196000      1.0000000000
 D 2 
   1       9.2146611000     -0.4661230638
   2       2.8435251000     -0.6600908911
 D 1 
   1       0.9955759000     -1.0000000000
 D 1 
   1       0.3649441000     -1.0000000000
 F 2 
   1       2.6420115000      0.5931563945
   2       0.7345613000      0.5931563945
 G 1 
   1       1.3931000000     -1.0000000000
  end;



           ************************************************************
           *        Program running with 4 parallel MPI-processes     *
           *              working on a common directory               *
           ************************************************************
------------------------------------------------------------------------------
                           ORCA GTO INTEGRAL CALCULATION
                           -- RI-GTO INTEGRALS CHOSEN --
------------------------------------------------------------------------------
------------------------------------------------------------------------------
                   ___                                                        
                  /   \      - P O W E R E D   B Y -                         
                 /     \                                                     
                 |  |  |   _    _      __       _____    __    __             
                 |  |  |  | |  | |    /  \     |  _  \  |  |  /  |          
                  \  \/   | |  | |   /    \    | | | |  |  | /  /          
                 / \  \   | |__| |  /  /\  \   | |_| |  |  |/  /          
                |  |  |   |  __  | /  /__\  \  |    /   |      \           
                |  |  |   | |  | | |   __   |  |    \   |  |\   \          
                \     /   | |  | | |  |  |  |  | |\  \  |  | \   \       
                 \___/    |_|  |_| |__|  |__|  |_| \__\ |__|  \__/        
                                                                              
                      - O R C A' S   B I G   F R I E N D -                    
                                      &                                       
                       - I N T E G R A L  F E E D E R -                       
                                                                              
 v1 FN, 2020, v2 2021                                                         
------------------------------------------------------------------------------


Reading SHARK input file inpJ.SHARKINP.tmp ... ok
----------------------
SHARK INTEGRAL PACKAGE
----------------------

Number of atoms                             ...     73
Number of basis functions                   ...    509
Number of shells                            ...    335
Maximum angular momentum                    ...      1
Integral batch strategy                     ... SHARK/LIBINT Hybrid
RI-J (if used) integral strategy            ... SPLIT-RIJ (Revised 2003 algorithm where possible)
Printlevel                                  ...      1
Contraction scheme used                     ... SEGMENTED contraction
Coulomb Range Separation                    ... NOT USED
Exchange Range Separation                   ... NOT USED
Finite Nucleus Model                        ... NOT USED
Auxiliary Coulomb fitting basis             ... AVAILABLE
   # of basis functions in Aux-J            ...   1905
   # of shells in Aux-J                     ...    655
   Maximum angular momentum in Aux-J        ...      4
Auxiliary J/K fitting basis                 ... NOT available
Auxiliary Correlation fitting basis         ... NOT available
Auxiliary 'external' fitting basis          ... NOT available
Integral threshold                          ...     3.000000e-11
Primitive cut-off                           ...     1.000000e-12
Primitive pair pre-selection threshold      ...     1.000000e-12

Calculating pre-screening integrals         ... done (  0.0 sec) Dimension = 335
Organizing shell pair data                  ... done (  0.1 sec)
Shell pair information
Total number of shell pairs                 ...     56280
Shell pairs after pre-screening             ...     22092
Total number of primitive shell pairs       ...    145865
Primitive shell pairs kept                  ...     37953
          la=0 lb=0:  11113 shell pairs
          la=1 lb=0:   9087 shell pairs
          la=1 lb=1:   1892 shell pairs

Calculating one electron integrals          ... done (  0.0 sec)
Calculating RI/J V-Matrix + Cholesky decomp.... done (  0.1 sec)
Calculating Nuclear repulsion               ... done (  0.0 sec) ENN=   2802.064555472283 Eh

SHARK setup successfully completed in   0.4 seconds

Maximum memory used throughout the entire GTOINT-calculation: 46.5 MB


           ************************************************************
           *        Program running with 4 parallel MPI-processes     *
           *              working on a common directory               *
           ************************************************************
-------------------------------------------------------------------------------
                                 ORCA SCF
-------------------------------------------------------------------------------

------------
SCF SETTINGS
------------
Hamiltonian:
 Density Functional     Method          .... DFT(GTOs)
 Exchange Functional    Exchange        .... PBE
   PBE kappa parameter   XKappa         ....  0.804000
   PBE mue parameter    XMuePBE         ....  0.219520
 Correlation Functional Correlation     .... PBE
   PBE beta parameter  CBetaPBE         ....  0.066725
 LDA part of GGA corr.  LDAOpt          .... PW91-LDA
 Gradients option       PostSCFGGA      .... off
 Hybrid DFT is turned on
   Fraction HF Exchange ScalHFX         ....  0.250000
   Scaling of DF-GGA-X  ScalDFX         ....  0.750000
   Scaling of DF-GGA-C  ScalDFC         ....  1.000000
   Scaling of DF-LDA-C  ScalLDAC        ....  1.000000
   Perturbative correction              ....  0.000000
   Density functional embedding theory  .... OFF
   NL short-range parameter             ....  6.900000
 RI-approximation to the Coulomb term is turned on
   Number of AuxJ basis functions       .... 1905
   RIJ-COSX (HFX calculated with COS-X)).... on


General Settings:
 Integral files         IntName         .... inpJ
 Hartree-Fock type      HFTyp           .... RHF
 Total Charge           Charge          ....    0
 Multiplicity           Mult            ....    1
 Number of Electrons    NEL             ....  220
 Basis Dimension        Dim             ....  509
 Nuclear Repulsion      ENuc            ....   2802.0645554723 Eh

Convergence Acceleration:
 DIIS                   CNVDIIS         .... on
   Start iteration      DIISMaxIt       ....    12
   Startup error        DIISStart       ....  0.200000
   # of expansion vecs  DIISMaxEq       ....     5
   Bias factor          DIISBfac        ....   1.050
   Max. coefficient     DIISMaxC        ....  10.000
 Trust-Rad. Augm. Hess. CNVTRAH         .... auto
   Auto Start mean grad. ratio tolernc. ....  1.125000
   Auto Start start iteration           ....    20
   Auto Start num. interpolation iter.  ....    10
   Max. Number of Micro iterations      ....    16
   Max. Number of Macro iterations      .... Maxiter - #DIIS iter
   Number of Davidson start vectors     ....     2
   Converg. threshold I  (grad. norm)   ....   1.000e-04
   Converg. threshold II (energy diff.) ....   1.000e-07
   Grad. Scal. Fac. for Micro threshold ....   0.100
   Minimum threshold for Micro iter.    ....   0.010
   NR start threshold (gradient norm)   ....   0.001
   Initial trust radius                 ....   0.400
   Minimum AH scaling param. (alpha)    ....   1.000
   Maximum AH scaling param. (alpha)    .... 1000.000
   Orbital update algorithm             .... Taylor
   White noise on init. David. guess    .... on
   Maximum white noise                  ....   0.010
   Quad. conv. algorithm                .... NR
 SOSCF                  CNVSOSCF        .... off
 Level Shifting         CNVShift        .... on
   Level shift para.    LevelShift      ....    0.2500
   Turn off err/grad.   ShiftErr        ....    0.0010
 Zerner damping         CNVZerner       .... off
 Static damping         CNVDamp         .... on
   Fraction old density DampFac         ....    0.7000
   Max. Damping (<1)    DampMax         ....    0.9800
   Min. Damping (>=0)   DampMin         ....    0.0000
   Turn off err/grad.   DampErr         ....    0.1000
 Fernandez-Rico         CNVRico         .... off

SCF Procedure:
 Maximum # iterations   MaxIter         ....   125
 SCF integral mode      SCFMode         .... Direct
   Integral package                     .... SHARK and LIBINT hybrid scheme
 Reset frequency        DirectResetFreq ....    20
 Integral Threshold     Thresh          ....  3.000e-11 Eh
 Primitive CutOff       TCut            ....  1.000e-12 Eh

Convergence Tolerance:
 Convergence Check Mode ConvCheckMode   .... Total+1el-Energy
 Convergence forced     ConvForced      .... 0
 Energy Change          TolE            ....  1.000e-07 Eh
 1-El. energy change                    ....  1.000e-04 Eh
 DIIS Error             TolErr          ....  1.000e-07


Diagonalization of the overlap matrix:
Smallest eigenvalue                        ... 7.564e-03
Time for diagonalization                   ...    0.030 sec
Threshold for overlap eigenvalues          ... 1.000e-08
Number of eigenvalues below threshold      ... 0
Time for construction of square roots      ...    0.022 sec
Total time needed                          ...    0.053 sec

Time for model grid setup =    0.754 sec

------------------------------
INITIAL GUESS: MODEL POTENTIAL
------------------------------
Loading Hartree-Fock densities                     ... done
Calculating cut-offs                               ... done
Initializing the effective Hamiltonian             ... done
Setting up the integral package (SHARK)            ... done
Starting the Coulomb interaction                   ... done (   0.4 sec)
Reading the grid                                   ... done
Mapping shells                                     ... done
Starting the XC term evaluation                    ... done (   0.2 sec)
  promolecular density results
     # of electrons  =    219.976600520
     EX              =   -164.429569528
     EC              =     -7.327611089
     EX+EC           =   -171.757180617
Transforming the Hamiltonian                       ... done (   0.0 sec)
Diagonalizing the Hamiltonian                      ... done (   0.0 sec)
Back transforming the eigenvectors                 ... done (   0.0 sec)
Now organizing SCF variables                       ... done
                      ------------------
                      INITIAL GUESS DONE (   1.4 sec)
                      ------------------
-------------------
DFT GRID GENERATION
-------------------

General Integration Accuracy     IntAcc      ... 4.388
Radial Grid Type                 RadialGrid  ... OptM3 with GC (2021)
Angular Grid (max. ang.)         AngularGrid ... 4 (Lebedev-302)
Angular grid pruning method      GridPruning ... 4 (adaptive)
Weight generation scheme         WeightScheme... Becke
Basis function cutoff            BFCut       ... 1.0000e-11
Integration weight cutoff        WCut        ... 1.0000e-14
Angular grids for H and He will be reduced by one unit
Partially contracted basis set               ... off
Rotationally invariant grid construction     ... off

Total number of grid points                  ...   309804
Total number of batches                      ...     4877
Average number of points per batch           ...       63
Average number of grid points per atom       ...     4244
Time for grid setup =    2.890 sec

--------------------
COSX GRID GENERATION
--------------------

GRIDX 1
-------
General Integration Accuracy     IntAcc      ... 3.816
Radial Grid Type                 RadialGrid  ... OptM3 with GC (2021)
Angular Grid (max. ang.)         AngularGrid ... 1 (Lebedev-50)
Angular grid pruning method      GridPruning ... 4 (adaptive)
Weight generation scheme         WeightScheme... Becke
Basis function cutoff            BFCut       ... 1.0000e-11
Integration weight cutoff        WCut        ... 1.0000e-14
Angular grids for H and He will be reduced by one unit
Partially contracted basis set               ... on
Rotationally invariant grid construction     ... off

Total number of grid points                  ...    39390
Total number of batches                      ...      655
Average number of points per batch           ...       60
Average number of grid points per atom       ...      540
UseSFitting                                  ... on

GRIDX 2
-------
General Integration Accuracy     IntAcc      ... 4.020
Radial Grid Type                 RadialGrid  ... OptM3 with GC (2021)
Angular Grid (max. ang.)         AngularGrid ... 2 (Lebedev-110)
Angular grid pruning method      GridPruning ... 4 (adaptive)
Weight generation scheme         WeightScheme... Becke
Basis function cutoff            BFCut       ... 1.0000e-11
Integration weight cutoff        WCut        ... 1.0000e-14
Angular grids for H and He will be reduced by one unit
Partially contracted basis set               ... on
Rotationally invariant grid construction     ... off

Total number of grid points                  ...    81385
Total number of batches                      ...     1308
Average number of points per batch           ...       62
Average number of grid points per atom       ...     1115
UseSFitting                                  ... on

GRIDX 3
-------
General Integration Accuracy     IntAcc      ... 4.338
Radial Grid Type                 RadialGrid  ... OptM3 with GC (2021)
Angular Grid (max. ang.)         AngularGrid ... 3 (Lebedev-194)
Angular grid pruning method      GridPruning ... 4 (adaptive)
Weight generation scheme         WeightScheme... Becke
Basis function cutoff            BFCut       ... 1.0000e-11
Integration weight cutoff        WCut        ... 1.0000e-14
Angular grids for H and He will be reduced by one unit
Partially contracted basis set               ... on
Rotationally invariant grid construction     ... off

Total number of grid points                  ...   176166
Total number of batches                      ...     2792
Average number of points per batch           ...       63
Average number of grid points per atom       ...     2413
UseSFitting                                  ... on

Time for X-Grid setup             =    2.915 sec


--------------------
CPCM SOLVATION MODEL
--------------------
CPCM parameters:
  Epsilon                                         ...       4.9000
  Refrac                                          ...       1.4500
  Rsolv                                           ...       1.3000
  Surface type                                    ... GAUSSIAN VDW
  Epsilon function type                           ...         CPCM
Radii:
 Radius for C  used is    3.8550 Bohr (=   2.0400 Ang.)
 Radius for H  used is    2.4944 Bohr (=   1.3200 Ang.)
 Radius for O  used is    3.4469 Bohr (=   1.8240 Ang.)
Calculating surface                               ...        done! (  0.0s)
GEPOL surface points                              ...         3610
GEPOL Volume                                      ...    3604.1771
GEPOL Surface-area                                ...    1783.8924
Calculating surface distance matrix               ...        done! (  0.1s)
Performing Cholesky decomposition & store         ...        done! (  0.6s)
Overall time for CPCM initialization              ...                 0.8s
--------------
SCF ITERATIONS
--------------
ITER       Energy         Delta-E        Max-DP      RMS-DP      [F,P]     Damp
               ***  Starting incremental Fock matrix formation  ***

  HOMO= 109 E= -3.997 eV LUMO=  7.699 eV gap=  11.696 eV
  0  -1165.0108015700   0.000000000000 0.09746921  0.00106215  0.1965936 0.7000

  HOMO= 109 E= -4.855 eV LUMO=  7.018 eV gap=  11.873 eV
  1  -1165.2293816429  -0.218580072921 0.06539467  0.00078229  0.0951924 0.7000
                               ***Turning on DIIS***

  HOMO= 109 E= -5.450 eV LUMO=  6.472 eV gap=  11.922 eV
  2  -1165.3302096983  -0.100828055443 0.10306328  0.00138637  0.0375611 0.0000

  HOMO= 109 E= -6.006 eV LUMO=  5.943 eV gap=  11.949 eV
  3  -1165.4745346099  -0.144324911577 0.05140090  0.00057077  0.0462941 0.0000

  HOMO= 109 E= -6.075 eV LUMO=  5.873 eV gap=  11.948 eV
  4  -1165.5099874108  -0.035452800917 0.01165437  0.00013485  0.0058291 0.0000

  HOMO= 109 E= -6.025 eV LUMO=  5.930 eV gap=  11.955 eV
  5  -1165.5108466361  -0.000859225314 0.00249804  0.00003817  0.0051972 0.0000

  HOMO= 109 E= -6.011 eV LUMO=  5.945 eV gap=  11.956 eV
  6  -1165.5109288128  -0.000082176656 0.00116309  0.00001176  0.0010284 0.0000

  HOMO= 109 E= -6.013 eV LUMO= -0.860 eV gap=   5.153 eV
  7  -1165.5109342255  -0.000005412683 0.00051579  0.00000599  0.0002392 0.0000
               *** Restarting incremental Fock matrix formation ***
                                   *** Resetting DIIS ***

  HOMO= 109 E= -6.012 eV LUMO= -0.858 eV gap=   5.154 eV
  8  -1165.5108969784   0.000037247043 0.00032307  0.00000276  0.0001237 0.0000

  HOMO= 109 E= -6.012 eV LUMO= -0.859 eV gap=   5.154 eV
  9  -1165.5108970108  -0.000000032387 0.00014262  0.00000127  0.0001665 0.0000

  HOMO= 109 E= -6.013 eV LUMO= -0.859 eV gap=   5.154 eV
 10  -1165.5108971506  -0.000000139792 0.00006060  0.00000038  0.0000297 0.0000

  HOMO= 109 E= -6.012 eV LUMO= -0.859 eV gap=   5.154 eV
 11  -1165.5108971894  -0.000000038737 0.00002389  0.00000017  0.0000171 0.0000

  HOMO= 109 E= -6.012 eV LUMO= -0.859 eV gap=   5.154 eV
 12  -1165.5108971770   0.000000012329 0.00000711  0.00000004  0.0000033 0.0000
                 **** Energy Check signals convergence ****

               *****************************************************
               *                     SUCCESS                       *
               *           SCF CONVERGED AFTER  13 CYCLES          *
               *****************************************************

Old exchange energy                            =    -42.067145487 Eh
New exchange energy                            =    -42.067189927 Eh
Exchange energy change after final integration =     -0.000044440 Eh
Total energy after final integration           =  -1165.510941621 Eh
Final COS-X integration done in                =    13.211 sec

----------------
TOTAL SCF ENERGY
----------------

Total Energy       :        -1165.51094162 Eh          -31715.16509 eV

Components:
Nuclear Repulsion  :         2802.06455547 Eh           76248.05293 eV
Electronic Energy  :        -3967.57549709 Eh         -107963.21802 eV
One Electron Energy:        -7145.86445177 Eh         -194448.85732 eV
Two Electron Energy:         3178.28895467 Eh           86485.63930 eV
Max COSX asymmetry :            0.00000199 Eh               0.00005 eV
CPCM Dielectric    :           -0.01345746 Eh              -0.36620 eV

Virial components:
Potential Energy   :        -2322.40425303 Eh          -63195.83254 eV
Kinetic Energy     :         1156.89331141 Eh           31480.66745 eV
Virial Ratio       :            2.00744894


DFT components:
N(Alpha)           :      110.000261459833 electrons
N(Beta)            :      110.000261459833 electrons
N(Total)           :      220.000522919667 electrons
E(X)               :     -125.744049149692 Eh       
E(C)               :       -7.328445391390 Eh       
E(XC)              :     -133.072494541081 Eh       
DFET-embed. en.    :        0.000000000000 Eh       
CPCM Solvation Model Properties:
Surface-charge          :           -0.03443902
Charge-correction       :           -0.00008347 Eh              -0.00227 eV
Free-energy (cav+disp)  :  This term is not implemented in the current solvation scheme

---------------
SCF CONVERGENCE
---------------

  Last Energy change         ...   -4.0870e-09  Tolerance :   1.0000e-07
  Last MAX-Density change    ...    0.0000e+00  Tolerance :   1.0000e-05
  Last RMS-Density change    ...    0.0000e+00  Tolerance :   1.0000e-06
  Last DIIS Error            ...    2.0027e-06  Tolerance :   1.0000e-07

             **** THE GBW FILE WAS UPDATED (inpJ.gbw) ****
             **** DENSITY inpJ.scfp WAS UPDATED ****
             **** ENERGY FILE WAS UPDATED (inpJ.en.tmp) ****
             **** THE GBW FILE WAS UPDATED (inpJ.gbw) ****
             **** DENSITY inpJ.scfp WAS UPDATED ****
----------------
ORBITAL ENERGIES
----------------

  NO   OCC          E(Eh)            E(eV) 
   0   2.0000     -19.212421      -522.7965 
   1   2.0000     -10.300509      -280.2911 
   2   2.0000     -10.270405      -279.4719 
   3   2.0000     -10.268338      -279.4157 
   4   2.0000     -10.263676      -279.2888 
   5   2.0000     -10.257457      -279.1196 
   6   2.0000     -10.257062      -279.1088 
   7   2.0000     -10.251954      -278.9699 
   8   2.0000     -10.249678      -278.9079 
   9   2.0000     -10.248396      -278.8730 
  10   2.0000     -10.248092      -278.8648 
  11   2.0000     -10.247690      -278.8538 
  12   2.0000     -10.246003      -278.8079 
  13   2.0000     -10.244741      -278.7736 
  14   2.0000     -10.244642      -278.7709 
  15   2.0000     -10.244444      -278.7655 
  16   2.0000     -10.242969      -278.7254 
  17   2.0000     -10.242460      -278.7115 
  18   2.0000     -10.241783      -278.6931 
  19   2.0000     -10.241384      -278.6822 
  20   2.0000     -10.240071      -278.6465 
  21   2.0000     -10.234137      -278.4850 
  22   2.0000     -10.233982      -278.4808 
  23   2.0000     -10.232998      -278.4540 
  24   2.0000     -10.227131      -278.2944 
  25   2.0000     -10.226466      -278.2763 
  26   2.0000     -10.224388      -278.2197 
  27   2.0000     -10.221606      -278.1440 
  28   2.0000     -10.220725      -278.1201 
  29   2.0000      -1.043135       -28.3851 
  30   2.0000      -0.901566       -24.5329 
  31   2.0000      -0.882210       -24.0062 
  32   2.0000      -0.860332       -23.4108 
  33   2.0000      -0.845911       -23.0184 
  34   2.0000      -0.822445       -22.3799 
  35   2.0000      -0.814333       -22.1591 
  36   2.0000      -0.795890       -21.6573 
  37   2.0000      -0.795029       -21.6339 
  38   2.0000      -0.777209       -21.1489 
  39   2.0000      -0.758374       -20.6364 
  40   2.0000      -0.740707       -20.1557 
  41   2.0000      -0.736129       -20.0311 
  42   2.0000      -0.715229       -19.4624 
  43   2.0000      -0.702962       -19.1286 
  44   2.0000      -0.700618       -19.0648 
  45   2.0000      -0.695997       -18.9390 
  46   2.0000      -0.670569       -18.2471 
  47   2.0000      -0.657741       -17.8980 
  48   2.0000      -0.630827       -17.1657 
  49   2.0000      -0.622241       -16.9320 
  50   2.0000      -0.612531       -16.6678 
  51   2.0000      -0.607132       -16.5209 
  52   2.0000      -0.596694       -16.2369 
  53   2.0000      -0.577873       -15.7247 
  54   2.0000      -0.574326       -15.6282 
  55   2.0000      -0.543372       -14.7859 
  56   2.0000      -0.540365       -14.7041 
  57   2.0000      -0.529335       -14.4039 
  58   2.0000      -0.515318       -14.0225 
  59   2.0000      -0.510427       -13.8894 
  60   2.0000      -0.499673       -13.5968 
  61   2.0000      -0.488342       -13.2885 
  62   2.0000      -0.483289       -13.1509 
  63   2.0000      -0.480797       -13.0832 
  64   2.0000      -0.474410       -12.9094 
  65   2.0000      -0.465302       -12.6615 
  66   2.0000      -0.464611       -12.6427 
  67   2.0000      -0.459316       -12.4986 
  68   2.0000      -0.458929       -12.4881 
  69   2.0000      -0.451074       -12.2744 
  70   2.0000      -0.446097       -12.1389 
  71   2.0000      -0.443405       -12.0657 
  72   2.0000      -0.436162       -11.8686 
  73   2.0000      -0.433376       -11.7928 
  74   2.0000      -0.432726       -11.7751 
  75   2.0000      -0.422140       -11.4870 
  76   2.0000      -0.421562       -11.4713 
  77   2.0000      -0.415001       -11.2928 
  78   2.0000      -0.409997       -11.1566 
  79   2.0000      -0.402652       -10.9567 
  80   2.0000      -0.400417       -10.8959 
  81   2.0000      -0.396564       -10.7910 
  82   2.0000      -0.393784       -10.7154 
  83   2.0000      -0.391208       -10.6453 
  84   2.0000      -0.389300       -10.5934 
  85   2.0000      -0.381326       -10.3764 
  86   2.0000      -0.375323       -10.2131 
  87   2.0000      -0.373640       -10.1672 
  88   2.0000      -0.369515       -10.0550 
  89   2.0000      -0.362644        -9.8680 
  90   2.0000      -0.360809        -9.8181 
  91   2.0000      -0.357356        -9.7242 
  92   2.0000      -0.352950        -9.6043 
  93   2.0000      -0.345281        -9.3956 
  94   2.0000      -0.341046        -9.2803 
  95   2.0000      -0.339699        -9.2437 
  96   2.0000      -0.338746        -9.2178 
  97   2.0000      -0.332976        -9.0607 
  98   2.0000      -0.330815        -9.0019 
  99   2.0000      -0.328745        -8.9456 
 100   2.0000      -0.328274        -8.9328 
 101   2.0000      -0.323667        -8.8074 
 102   2.0000      -0.319255        -8.6874 
 103   2.0000      -0.316449        -8.6110 
 104   2.0000      -0.310503        -8.4492 
 105   2.0000      -0.300734        -8.1834 
 106   2.0000      -0.276548        -7.5253 
 107   2.0000      -0.274919        -7.4809 
 108   2.0000      -0.256413        -6.9773 
 109   2.0000      -0.220954        -6.0125 
 110   0.0000      -0.031552        -0.8586 
 111   0.0000       0.019371         0.5271 
 112   0.0000       0.028167         0.7665 
 113   0.0000       0.079795         2.1713 
 114   0.0000       0.087560         2.3826 
 115   0.0000       0.100808         2.7431 
 116   0.0000       0.103396         2.8135 
 117   0.0000       0.107053         2.9131 
 118   0.0000       0.109995         2.9931 
 119   0.0000       0.117206         3.1893 
 120   0.0000       0.118264         3.2181 
 121   0.0000       0.123457         3.3594 
 122   0.0000       0.129810         3.5323 
 123   0.0000       0.131947         3.5905 
 124   0.0000       0.135349         3.6830 
 125   0.0000       0.137730         3.7478 
 126   0.0000       0.138655         3.7730 
 127   0.0000       0.141687         3.8555 
 128   0.0000       0.142683         3.8826 
 129   0.0000       0.152715         4.1556 
 130   0.0000       0.155618         4.2346 
 131   0.0000       0.157836         4.2949 
 132   0.0000       0.161817         4.4033 
 133   0.0000       0.166052         4.5185 
 134   0.0000       0.167060         4.5459 
 135   0.0000       0.169691         4.6175 
 136   0.0000       0.173148         4.7116 
 137   0.0000       0.174586         4.7507 
 138   0.0000       0.177256         4.8234 
 139   0.0000       0.179060         4.8725 
 140   0.0000       0.181881         4.9492 
 141   0.0000       0.185325         5.0430 
 142   0.0000       0.188869         5.1394 
 143   0.0000       0.189042         5.1441 
 144   0.0000       0.191162         5.2018 
 145   0.0000       0.196134         5.3371 
 146   0.0000       0.200191         5.4475 
 147   0.0000       0.200226         5.4484 
 148   0.0000       0.203560         5.5392 
 149   0.0000       0.205290         5.5862 
 150   0.0000       0.207808         5.6547 
 151   0.0000       0.218416         5.9434 
 152   0.0000       0.220623         6.0034 
 153   0.0000       0.225986         6.1494 
 154   0.0000       0.231808         6.3078 
 155   0.0000       0.234389         6.3780 
 156   0.0000       0.244343         6.6489 
 157   0.0000       0.247697         6.7402 
 158   0.0000       0.249356         6.7853 
 159   0.0000       0.251391         6.8407 
 160   0.0000       0.256329         6.9751 
 161   0.0000       0.260474         7.0879 
 162   0.0000       0.261109         7.1052 
 163   0.0000       0.263667         7.1747 
 164   0.0000       0.267935         7.2909 
 165   0.0000       0.274688         7.4746 
 166   0.0000       0.275903         7.5077 
 167   0.0000       0.278439         7.5767 
 168   0.0000       0.284607         7.7446 
 169   0.0000       0.292785         7.9671 
 170   0.0000       0.297593         8.0979 
 171   0.0000       0.298750         8.1294 
 172   0.0000       0.301902         8.2152 
 173   0.0000       0.306237         8.3331 
 174   0.0000       0.310784         8.4569 
 175   0.0000       0.318539         8.6679 
 176   0.0000       0.327964         8.9244 
 177   0.0000       0.333332         9.0704 
 178   0.0000       0.343605         9.3500 
 179   0.0000       0.355318         9.6687 
 180   0.0000       0.361805         9.8452 
 181   0.0000       0.380885        10.3644 
 182   0.0000       0.382109        10.3977 
 183   0.0000       0.410176        11.1614 
 184   0.0000       0.420443        11.4408 
 185   0.0000       0.464275        12.6336 
 186   0.0000       0.478029        13.0078 
 187   0.0000       0.492620        13.4049 
 188   0.0000       0.504120        13.7178 
 189   0.0000       0.516627        14.0581 
 190   0.0000       0.522659        14.2223 
 191   0.0000       0.536483        14.5984 
 192   0.0000       0.548161        14.9162 
 193   0.0000       0.558434        15.1957 
 194   0.0000       0.564268        15.3545 
 195   0.0000       0.570868        15.5341 
 196   0.0000       0.574021        15.6199 
 197   0.0000       0.578230        15.7344 
 198   0.0000       0.588367        16.0103 
 199   0.0000       0.594547        16.1784 
 200   0.0000       0.611418        16.6375 
 201   0.0000       0.616982        16.7889 
 202   0.0000       0.627036        17.0625 
 203   0.0000       0.631639        17.1878 
 204   0.0000       0.641486        17.4557 
 205   0.0000       0.647279        17.6133 
 206   0.0000       0.656316        17.8593 
 207   0.0000       0.662169        18.0185 
 208   0.0000       0.668235        18.1836 
 209   0.0000       0.669198        18.2098 
 210   0.0000       0.673484        18.3264 
 211   0.0000       0.681853        18.5542 
 212   0.0000       0.684912        18.6374 
 213   0.0000       0.689456        18.7611 
 214   0.0000       0.701557        19.0903 
 215   0.0000       0.705949        19.2099 
 216   0.0000       0.707766        19.2593 
 217   0.0000       0.712608        19.3910 
 218   0.0000       0.720257        19.5992 
 219   0.0000       0.725376        19.7385 
 220   0.0000       0.728521        19.8241 
 221   0.0000       0.732876        19.9426 
 222   0.0000       0.735732        20.0203 
 223   0.0000       0.739729        20.1290 
 224   0.0000       0.746745        20.3200 
 225   0.0000       0.750102        20.4113 
 226   0.0000       0.755550        20.5596 
 227   0.0000       0.756377        20.5821 
 228   0.0000       0.760003        20.6807 
 229   0.0000       0.763446        20.7744 
 230   0.0000       0.767419        20.8825 
 231   0.0000       0.774707        21.0809 
 232   0.0000       0.777769        21.1642 
 233   0.0000       0.779908        21.2224 
 234   0.0000       0.790295        21.5050 
 235   0.0000       0.791955        21.5502 
 236   0.0000       0.796175        21.6650 
 237   0.0000       0.803293        21.8587 
 238   0.0000       0.808470        21.9996 
 239   0.0000       0.817881        22.2557 
 240   0.0000       0.824481        22.4353 
 241   0.0000       0.832815        22.6621 
 242   0.0000       0.842148        22.9160 
 243   0.0000       0.849062        23.1041 
 244   0.0000       0.854262        23.2457 
 245   0.0000       0.854719        23.2581 
 246   0.0000       0.858522        23.3616 
 247   0.0000       0.866823        23.5874 
 248   0.0000       0.868565        23.6349 
 249   0.0000       0.871598        23.7174 
 250   0.0000       0.872495        23.7418 
 251   0.0000       0.875949        23.8358 
 252   0.0000       0.876303        23.8454 
 253   0.0000       0.878996        23.9187 
 254   0.0000       0.883353        24.0373 
 255   0.0000       0.885256        24.0890 
 256   0.0000       0.889504        24.2046 
 257   0.0000       0.891473        24.2582 
 258   0.0000       0.897301        24.4168 
 259   0.0000       0.901537        24.5321 
 260   0.0000       0.902670        24.5629 
 261   0.0000       0.906868        24.6771 
 262   0.0000       0.907631        24.6979 
 263   0.0000       0.910178        24.7672 
 264   0.0000       0.915933        24.9238 
 265   0.0000       0.922767        25.1098 
 266   0.0000       0.929070        25.2813 
 267   0.0000       0.929542        25.2941 
 268   0.0000       0.933134        25.3919 
 269   0.0000       0.935809        25.4647 
 270   0.0000       0.941634        25.6232 
 271   0.0000       0.944859        25.7109 
 272   0.0000       0.951220        25.8840 
 273   0.0000       0.955495        26.0003 
 274   0.0000       0.959819        26.1180 
 275   0.0000       0.963657        26.2224 
 276   0.0000       0.969249        26.3746 
 277   0.0000       0.972627        26.4665 
 278   0.0000       0.977515        26.5995 
 279   0.0000       0.981598        26.7106 
 280   0.0000       0.988210        26.8906 
 281   0.0000       0.997202        27.1353 
 282   0.0000       1.006116        27.3778 
 283   0.0000       1.009165        27.4608 
 284   0.0000       1.021291        27.7907 
 285   0.0000       1.026470        27.9317 
 286   0.0000       1.036277        28.1985 
 287   0.0000       1.039106        28.2755 
 288   0.0000       1.060470        28.8569 
 289   0.0000       1.066407        29.0184 
 290   0.0000       1.075263        29.2594 
 291   0.0000       1.076097        29.2821 
 292   0.0000       1.090798        29.6821 
 293   0.0000       1.100685        29.9512 
 294   0.0000       1.113158        30.2906 
 295   0.0000       1.115943        30.3663 
 296   0.0000       1.131840        30.7989 
 297   0.0000       1.138070        30.9684 
 298   0.0000       1.149263        31.2730 
 299   0.0000       1.152537        31.3621 
 300   0.0000       1.167019        31.7562 
 301   0.0000       1.172857        31.9151 
 302   0.0000       1.195850        32.5407 
 303   0.0000       1.208118        32.8746 
 304   0.0000       1.233642        33.5691 
 305   0.0000       1.236662        33.6513 
 306   0.0000       1.247466        33.9453 
 307   0.0000       1.266520        34.4638 
 308   0.0000       1.282281        34.8926 
 309   0.0000       1.306133        35.5417 
 310   0.0000       1.320290        35.9269 
 311   0.0000       1.334524        36.3143 
 312   0.0000       1.364861        37.1398 
 313   0.0000       1.369350        37.2619 
 314   0.0000       1.410322        38.3768 
 315   0.0000       1.490358        40.5547 
 316   0.0000       1.526978        41.5512 
 317   0.0000       1.560688        42.4685 
 318   0.0000       1.591367        43.3033 
 319   0.0000       1.675321        45.5878 
 320   0.0000       6.202133       168.7686 
 321   0.0000       6.232053       169.5828 
 322   0.0000       6.265139       170.4831 
 323   0.0000       6.267836       170.5565 
 324   0.0000       6.284252       171.0032 
 325   0.0000       6.296797       171.3446 
 326   0.0000       6.301081       171.4611 
 327   0.0000       6.315164       171.8443 
 328   0.0000       6.317582       171.9101 
 329   0.0000       6.335656       172.4020 
 330   0.0000       6.344224       172.6351 
 331   0.0000       6.349948       172.7909 
 332   0.0000       6.358814       173.0321 
 333   0.0000       6.364146       173.1772 
 334   0.0000       6.385842       173.7676 
 335   0.0000       6.390862       173.9042 
 336   0.0000       6.406471       174.3289 
 337   0.0000       6.408305       174.3789 
 338   0.0000       6.415841       174.5839 
 339   0.0000       6.422999       174.7787 
 340   0.0000       6.430759       174.9898 
 341   0.0000       6.443981       175.3496 
 342   0.0000       6.454773       175.6433 
 343   0.0000       6.459810       175.7804 
 344   0.0000       6.474080       176.1687 
 345   0.0000       6.481575       176.3726 
 346   0.0000       6.485718       176.4854 
 347   0.0000       6.495204       176.7435 
 348   0.0000       6.511779       177.1945 
 349   0.0000       6.516054       177.3108 
 350   0.0000       6.526370       177.5916 
 351   0.0000       6.530482       177.7035 
 352   0.0000       6.542196       178.0222 
 353   0.0000       6.544891       178.0955 
 354   0.0000       6.548911       178.2049 
 355   0.0000       6.554975       178.3699 
 356   0.0000       6.559968       178.5058 
 357   0.0000       6.566020       178.6705 
 358   0.0000       6.571475       178.8189 
 359   0.0000       6.573631       178.8776 
 360   0.0000       6.579035       179.0246 
 361   0.0000       6.583519       179.1467 
 362   0.0000       6.586928       179.2394 
 363   0.0000       6.593761       179.4253 
 364   0.0000       6.597309       179.5219 
 365   0.0000       6.608086       179.8152 
 366   0.0000       6.610619       179.8841 
 367   0.0000       6.612292       179.9296 
 368   0.0000       6.619102       180.1149 
 369   0.0000       6.623596       180.2372 
 370   0.0000       6.624949       180.2740 
 371   0.0000       6.629018       180.3848 
 372   0.0000       6.633358       180.5029 
 373   0.0000       6.634688       180.5391 
 374   0.0000       6.635316       180.5561 
[...]
     69 H        0.000      0.000      0.000      0.000      0.000      0.000
     70 H        0.000      0.000      0.000     -0.000      0.001      0.019
     71 H        0.000      0.000      0.000      0.000      0.001      0.014
     72 H        0.000      0.000      0.000      0.000      0.003      0.035
                 25 H       27 H       28 H       30 H       31 H       33 H  
      3 H        0.075     -0.003      0.002      0.000      0.000      0.088
      4 H        2.364     -0.106      0.060      0.000      0.000      2.616
      8 H        0.125      0.000      0.000      0.000      0.000      0.116
      9 H       -0.262      0.014      0.000      0.000      0.000     -0.308
     10 H        0.000      0.000      0.000      0.000      0.000      0.000
     11 H        0.000      0.000      0.000      0.000      0.000      0.000
     13 H       -0.038      0.000      0.000      0.000      0.000      0.000
     16 H       -0.263      0.013     -0.004     -0.030     -0.002     -0.303
     17 H       -0.241      0.012      0.000      0.000      0.000     -0.296
     19 H        0.923     -0.043      0.068      0.062      0.005      0.984
     21 H       -2.901      0.184      0.681     -0.223     -0.028     -2.443
     24 H      -13.541      4.380      2.303      0.668     -0.502     -0.173
     25 H        0.000     12.951      5.299     -0.646     -0.362     -2.262
     27 H       12.951      0.000    -13.640      3.997     13.018      0.065
     28 H        5.299    -13.640      0.000      2.636      4.121      0.284
     30 H       -0.646      3.997      2.636      0.000    -13.021      0.034
     31 H       -0.362     13.018      4.121    -13.021      0.000     -0.314
     33 H       -2.262      0.065      0.284      0.034     -0.314      0.000
     35 H       -0.026      0.001     -0.001      0.000     -0.000     -0.034
     37 H        0.274      0.006     -0.035      0.539     -0.041      6.139
     38 H        0.185      0.002     -0.029     -0.021      0.121     12.294
     40 H       -0.014      0.023      0.136     -0.000     -0.038     -0.247
     41 H        0.009      0.018     -0.030      0.012      0.091     -0.385
     42 H       -0.019      0.007     -0.005     -0.263     -0.391     -0.206
     45 H       -0.060     -0.118     -0.147     -0.153      1.821     -0.478
     46 H       -0.011     -0.205      0.027     -0.198     -0.473     -0.177
     47 H        0.015      0.036      0.060     -0.311      0.052      0.870
     48 H       -0.014      0.031      0.022      0.036      0.017     -0.001
     52 H       -0.002     -0.001      0.010     -0.009      0.003      0.017
     53 H       -0.000      0.000     -0.001      0.000     -0.001     -0.003
     57 H        0.000      0.000      0.000      0.001      0.001     -0.000
     58 H        0.000      0.000      0.000      0.000      0.000      0.000
     61 H        0.000      0.000      0.000      0.000      0.000      0.000
     62 H        0.000      0.000      0.000      0.000     -0.000     -0.000
     63 H        0.000      0.000      0.000     -0.000      0.000     -0.000
     64 H        0.000      0.000      0.000     -0.000     -0.000      0.000
     65 H        0.000      0.000      0.000      0.000      0.000      0.000
     66 H        0.000      0.000      0.000      0.000      0.000      0.000
     67 H        0.000      0.000      0.000      0.000      0.000      0.000
     68 H        0.000      0.000      0.000      0.000      0.000      0.000
     69 H        0.000      0.000      0.000      0.000      0.000      0.000
     70 H        0.003     -0.003     -0.007     -0.456     -0.101      0.005
     71 H       -0.000     -0.004     -0.005      0.038     -0.002      0.002
     72 H        0.000     -0.008     -0.010      0.049     -0.062      0.007
                 35 H       37 H       38 H       40 H       41 H       42 H  
      3 H       -0.267     -0.001     -0.001      0.000      0.000      0.000
      4 H       -0.644     -0.044     -0.019      0.000      0.000      0.000
      8 H       -0.029     -0.002     -0.002      0.000     -0.000      0.000
      9 H       -0.147      0.005      0.002      0.000      0.001      0.000
     10 H       -0.393     -0.000     -0.000      0.000      0.000      0.000
     11 H       -0.144     -0.002     -0.000      0.000      0.000      0.000
     13 H       12.432      0.000      0.000      0.000      0.000      0.000
     16 H       -0.003      0.004      0.004      0.000      0.001     -0.001
     17 H       -0.001      0.005      0.004     -0.001      0.000      0.000
     19 H        0.043     -0.009      0.086      0.013     -0.006      0.004
     21 H       -0.015      0.047     -0.537     -0.009      0.061     -0.026
     24 H       -0.001     -0.050     -0.080     -0.023      0.073     -0.024
     25 H       -0.026      0.274      0.185     -0.014      0.009     -0.019
     27 H        0.001      0.006      0.002      0.023      0.018      0.007
     28 H       -0.001     -0.035     -0.029      0.136     -0.030     -0.005
     30 H        0.000      0.539     -0.021     -0.000      0.012     -0.263
     31 H       -0.000     -0.041      0.121     -0.038      0.091     -0.391
     33 H       -0.034      6.139     12.294     -0.247     -0.385     -0.206
     35 H        0.000      0.000     -0.000      0.000      0.000      0.000
     37 H        0.000      0.000    -12.110      9.411      2.177     -0.247
     38 H       -0.000    -12.110      0.000      7.385     11.176     -0.459
     40 H        0.000      9.411      7.385      0.000    -13.707      9.759
     41 H        0.000      2.177     11.176    -13.707      0.000      8.001
     42 H        0.000     -0.247     -0.459      9.759      8.001      0.000
     45 H       -0.000      0.090     -0.086     -0.109     -0.030     -0.102
     46 H        0.000      0.052      0.034     -0.072      0.018      0.970
     47 H        0.000     -0.158      0.007      0.040      0.032     -0.398
     48 H        0.000      0.135      0.005     -0.154     -0.449     10.648
     52 H        0.000     -0.007      0.000     -0.025      0.073     -0.562
     53 H        0.000      0.009      0.016     -0.193     -0.029     -0.406
     57 H        0.000      0.002      0.008     -0.015     -0.006      0.038
     58 H        0.000      0.000      0.001     -0.005      0.002     -0.002
     61 H        0.000      0.000      0.000     -0.001     -0.001      0.000
     62 H        0.000      0.000      0.000      0.004      0.006     -0.004
     63 H        0.000      0.000     -0.000      0.000      0.000      0.000
     64 H        0.000      0.001      0.002     -0.085     -0.052      0.001
     65 H        0.000      0.001      0.002     -0.013     -0.010      0.002
     66 H        0.000     -0.000     -0.000     -0.009     -0.009      0.001
     67 H        0.000      0.000      0.000      0.001      0.000     -0.000
     68 H        0.000     -0.000      0.000     -0.001     -0.001     -0.003
     69 H        0.000      0.000      0.000      0.001     -0.001     -0.000
     70 H        0.000     -0.016     -0.002      0.036     -0.004     -0.164
     71 H        0.000     -0.024      0.030     -0.003     -0.071     -0.348
     72 H        0.000      0.064      0.008     -0.039     -0.013     -0.444
                 45 H       46 H       47 H       48 H       52 H       53 H  
      3 H        0.001     -0.000     -0.001      0.000      0.000      0.000
      4 H        0.026     -0.020      0.000      0.000      0.000      0.000
      8 H        0.001     -0.001      0.000      0.000      0.000      0.000
      9 H       -0.003      0.003      0.000      0.000      0.000      0.000
     10 H        0.000     -0.000      0.000      0.000      0.000      0.000
     11 H        0.000      0.000      0.000      0.000      0.000      0.000
     13 H        0.000      0.000      0.000      0.000      0.000      0.000
     16 H       -0.003      0.001      0.002     -0.002      0.000      0.000
     17 H       -0.003      0.001      0.001     -0.002      0.000      0.000
     19 H        0.010     -0.011     -0.008      0.005      0.000      0.000
     21 H       -0.018      0.046      0.015     -0.015      0.001     -0.000
     24 H       -0.022     -0.022     -0.015      0.003      0.000     -0.000
     25 H       -0.060     -0.011      0.015     -0.014     -0.002     -0.000
     27 H       -0.118     -0.205      0.036      0.031     -0.001      0.000
     28 H       -0.147      0.027      0.060      0.022      0.010     -0.001
     30 H       -0.153     -0.198     -0.311      0.036     -0.009      0.000
     31 H        1.821     -0.473      0.052      0.017      0.003     -0.001
     33 H       -0.478     -0.177      0.870     -0.001      0.017     -0.003
     35 H       -0.000      0.000      0.000      0.000      0.000      0.000
     37 H        0.090      0.052     -0.158      0.135     -0.007      0.009
     38 H       -0.086      0.034      0.007      0.005      0.000      0.016
     40 H       -0.109     -0.072      0.040     -0.154     -0.025     -0.193
     41 H       -0.030      0.018      0.032     -0.449      0.073     -0.029
     42 H       -0.102      0.970     -0.398     10.648     -0.562     -0.406
     45 H        0.000    -13.657    -13.101     -0.239      0.017     -0.001
     46 H      -13.657      0.000    -13.059     -0.143      0.016      0.003
     47 H      -13.101    -13.059      0.000     -0.052      0.009     -0.004
     48 H       -0.239     -0.143     -0.052      0.000      5.866     -2.003
     52 H        0.017      0.016      0.009      5.866      0.000     16.812
     53 H       -0.001      0.003     -0.004     -2.003     16.812      0.000
     57 H       -0.000      0.000     -0.001      0.089     -0.678      9.850
     58 H        0.000      0.000     -0.000     -0.058      0.072     -0.335
     61 H       -0.000      0.000     -0.000     -0.062      0.089     -0.290
     62 H        0.000      0.000      0.000      0.182     -0.431     -0.049
     63 H       -0.000      0.000     -0.000     -0.049      0.095     -0.145
     64 H       -0.000      0.000     -0.000      0.001     -0.005      0.039
     65 H       -0.000      0.000     -0.000      0.008      0.012      0.003
     66 H       -0.000      0.000      0.000     -0.024      0.039     -0.034
     67 H        0.000      0.000      0.000      0.001     -0.009      0.037
     68 H        0.000      0.000      0.000      0.180     -0.074      0.030
     69 H        0.000      0.000      0.000     -0.006      0.044      0.115
     70 H       -0.026     -0.076     -0.319      5.507     -0.030     -0.418
     71 H        0.022     -0.038     -0.060     12.428     -0.237      0.141
     72 H       -0.011     -0.030     -0.018      1.935     -0.212     -0.047
                 57 H       58 H       61 H       62 H       63 H       64 H  
      3 H        0.000      0.000      0.000      0.000      0.000      0.000
      4 H        0.000      0.000      0.000      0.000      0.000      0.000
      8 H        0.000      0.000      0.000      0.000      0.000      0.000
      9 H        0.000      0.000      0.000      0.000      0.000      0.000
     10 H        0.000      0.000      0.000      0.000      0.000      0.000
     11 H        0.000      0.000      0.000      0.000      0.000      0.000
     13 H        0.000      0.000      0.000      0.000      0.000      0.000
     16 H        0.000      0.000      0.000      0.000      0.000      0.000
     17 H        0.000      0.000      0.000      0.000      0.000      0.000
     19 H        0.000      0.000      0.000      0.000      0.000      0.000
     21 H        0.000      0.000      0.000      0.000      0.000     -0.000
     24 H        0.000      0.000      0.000      0.000      0.000      0.000
     25 H        0.000      0.000      0.000      0.000      0.000      0.000
     27 H        0.000      0.000      0.000      0.000      0.000      0.000
     28 H        0.000      0.000      0.000      0.000      0.000      0.000
     30 H        0.001      0.000      0.000      0.000     -0.000     -0.000
     31 H        0.001      0.000      0.000     -0.000      0.000     -0.000
     33 H       -0.000      0.000      0.000     -0.000     -0.000      0.000
     35 H        0.000      0.000      0.000      0.000      0.000      0.000
     37 H        0.002      0.000      0.000      0.000      0.000      0.001
     38 H        0.008      0.001      0.000      0.000     -0.000      0.002
     40 H       -0.015     -0.005     -0.001      0.004      0.000     -0.085
     41 H       -0.006      0.002     -0.001      0.006      0.000     -0.052
     42 H        0.038     -0.002      0.000     -0.004      0.000      0.001
     45 H       -0.000      0.000     -0.000      0.000     -0.000     -0.000
     46 H        0.000      0.000      0.000      0.000      0.000      0.000
     47 H       -0.001     -0.000     -0.000      0.000     -0.000     -0.000
     48 H        0.089     -0.058     -0.062      0.182     -0.049      0.001
     52 H       -0.678      0.072      0.089     -0.431      0.095     -0.005
     53 H        9.850     -0.335     -0.290     -0.049     -0.145      0.039
     57 H        0.000      9.939     12.731      4.158      2.597     -0.210
     58 H        9.939      0.000     -0.331     -0.192     -0.483      3.490
     61 H       12.731     -0.331      0.000    -12.276    -12.634      0.034
     62 H        4.158     -0.192    -12.276      0.000    -13.000      0.017
     63 H        2.597     -0.483    -12.634    -13.000      0.000      0.028
     64 H       -0.210      3.490      0.034      0.017      0.028      0.000
     65 H       -0.364     12.854      0.072      0.061     -0.049    -12.785
     66 H       -0.296      3.129     -0.083      0.018      0.683    -12.437
     67 H       -0.187      4.224     -0.028     -0.255      0.012      2.886
     68 H       -0.464      2.472      0.012     -0.063     -0.078      0.194
     69 H       -0.323     12.661      0.096     -0.018      0.010     -0.387
     70 H        0.044     -0.013     -0.029      0.199     -0.001      0.015
     71 H       -0.006      0.003      0.004     -0.032     -0.002     -0.001
     72 H        0.010     -0.001     -0.003      0.018     -0.001      0.002
                 65 H       66 H       67 H       68 H       69 H       70 H  
      3 H        0.000      0.000      0.000      0.000      0.000      0.000
      4 H        0.000      0.000      0.000      0.000      0.000      0.000
      8 H        0.000      0.000      0.000      0.000      0.000      0.000
      9 H        0.000      0.000      0.000      0.000      0.000      0.000
     10 H        0.000      0.000      0.000      0.000      0.000      0.000
     11 H        0.000      0.000      0.000      0.000      0.000      0.000
     13 H        0.000      0.000      0.000      0.000      0.000      0.000
     16 H        0.000      0.000      0.000      0.000      0.000      0.000
     17 H        0.000      0.000      0.000      0.000      0.000      0.000
     19 H        0.000      0.000      0.000      0.000      0.000     -0.000
     21 H        0.000      0.000      0.000      0.000      0.000      0.001
     24 H        0.000      0.000      0.000      0.000      0.000      0.019
     25 H        0.000      0.000      0.000      0.000      0.000      0.003
     27 H        0.000      0.000      0.000      0.000      0.000     -0.003
     28 H        0.000      0.000      0.000      0.000      0.000     -0.007
     30 H        0.000      0.000      0.000      0.000      0.000     -0.456
     31 H        0.000      0.000      0.000      0.000      0.000     -0.101
     33 H        0.000      0.000      0.000      0.000      0.000      0.005
     35 H        0.000      0.000      0.000      0.000      0.000      0.000
     37 H        0.001     -0.000      0.000     -0.000      0.000     -0.016
     38 H        0.002     -0.000      0.000      0.000      0.000     -0.002
     40 H       -0.013     -0.009      0.001     -0.001      0.001      0.036
     41 H       -0.010     -0.009      0.000     -0.001     -0.001     -0.004
     42 H        0.002      0.001     -0.000     -0.003     -0.000     -0.164
     45 H       -0.000     -0.000      0.000      0.000      0.000     -0.026
     46 H        0.000      0.000      0.000      0.000      0.000     -0.076
     47 H       -0.000      0.000      0.000      0.000      0.000     -0.319
     48 H        0.008     -0.024      0.001      0.180     -0.006      5.507
     52 H        0.012      0.039     -0.009     -0.074      0.044     -0.030
     53 H        0.003     -0.034      0.037      0.030      0.115     -0.418
     57 H       -0.364     -0.296     -0.187     -0.464     -0.323      0.044
     58 H       12.854      3.129      4.224      2.472     12.661     -0.013
     61 H        0.072     -0.083     -0.028      0.012      0.096     -0.029
     62 H        0.061      0.018     -0.255     -0.063     -0.018      0.199
     63 H       -0.049      0.683      0.012     -0.078      0.010     -0.001
     64 H      -12.785    -12.437      2.886      0.194     -0.387      0.015
     65 H        0.000    -12.350     -0.281     -0.216     -0.288     -0.001
     66 H      -12.350      0.000      0.028     -0.250     -0.215     -0.004
     67 H       -0.281      0.028      0.000    -12.974    -12.044      0.000
     68 H       -0.216     -0.250    -12.974      0.000    -12.817      0.000
     69 H       -0.288     -0.215    -12.044    -12.817      0.000      0.000
     70 H       -0.001     -0.004      0.000      0.000      0.000      0.000
     71 H       -0.000      0.001     -0.000      0.000      0.000    -11.547
     72 H        0.000     -0.001      0.000      0.000      0.000    -13.450
                 71 H       72 H  
      3 H        0.000      0.000
      4 H        0.000      0.000
      8 H        0.000      0.000
      9 H        0.000      0.000
     10 H        0.000      0.000
     11 H        0.000      0.000
     13 H        0.000      0.000
     16 H        0.000      0.000
     17 H        0.000      0.000
     19 H        0.000      0.000
     21 H        0.001      0.003
     24 H        0.014      0.035
     25 H       -0.000      0.000
     27 H       -0.004     -0.008
     28 H       -0.005     -0.010
     30 H        0.038      0.049
     31 H       -0.002     -0.062
     33 H        0.002      0.007
     35 H        0.000      0.000
     37 H       -0.024      0.064
     38 H        0.030      0.008
     40 H       -0.003     -0.039
     41 H       -0.071     -0.013
     42 H       -0.348     -0.444
     45 H        0.022     -0.011
     46 H       -0.038     -0.030
     47 H       -0.060     -0.018
     48 H       12.428      1.935
     52 H       -0.237     -0.212
     53 H        0.141     -0.047
     57 H       -0.006      0.010
     58 H        0.003     -0.001
     61 H        0.004     -0.003
     62 H       -0.032      0.018
     63 H       -0.002     -0.001
     64 H       -0.001      0.002
     65 H       -0.000      0.000
     66 H        0.001     -0.001
     67 H       -0.000      0.000
     68 H        0.000      0.000
     69 H        0.000      0.000
     70 H      -11.547    -13.450
     71 H        0.000    -13.066
     72 H      -13.066      0.000

Maximum memory used throughout the entire EPRNMR-calculation: 987.7 MB

Timings for individual modules:

Sum of individual times         ...      387.951 sec (=   6.466 min)
GTO integral calculation        ...        0.606 sec (=   0.010 min)   0.2 %
SCF iterations                  ...      103.466 sec (=   1.724 min)  26.7 %
EPR/NMR calculation             ...      283.879 sec (=   4.731 min)  73.2 %
                             ****ORCA TERMINATED NORMALLY****
TOTAL RUN TIME: 0 days 0 hours 6 minutes 28 seconds 391 msec
