
                                 *****************
                                 * O   R   C   A *
                                 *****************

                                            #,                                       
                                            ###                                      
                                            ####                                     
                                            #####                                    
                                            ######                                   
                                           ########,                                 
                                     ,,################,,,,,                         
                               ,,#################################,,                 
                          ,,##########################################,,             
                       ,#########################################, ''#####,          
                    ,#############################################,,   '####,        
                  ,##################################################,,,,####,       
                ,###########''''           ''''###############################       
              ,#####''   ,,,,##########,,,,          '''####'''          '####       
            ,##' ,,,,###########################,,,                        '##       
           ' ,,###''''                  '''############,,,                           
         ,,##''                                '''############,,,,        ,,,,,,###''
      ,#''                                            '''#######################'''  
     '                                                          ''''####''''         
             ,#######,   #######,   ,#######,      ##                                
            ,#'     '#,  ##    ##  ,#'     '#,    #''#        ######   ,####,        
            ##       ##  ##   ,#'  ##            #'  '#       #        #'  '#        
            ##       ##  #######   ##           ,######,      #####,   #    #        
            '#,     ,#'  ##    ##  '#,     ,#' ,#      #,         ##   #,  ,#        
             '#######'   ##     ##  '#######'  #'      '#     #####' # '####'        



                  #######################################################
                  #                        -***-                        #
                  #          Department of theory and spectroscopy      #
                  #    Directorship and core code : Frank Neese         #
                  #        Max Planck Institute fuer Kohlenforschung    #
                  #                Kaiser Wilhelm Platz 1               #
                  #                 D-45470 Muelheim/Ruhr               #
                  #                      Germany                        #
                  #                                                     #
                  #                  All rights reserved                #
                  #                        -***-                        #
                  #######################################################


                         Program Version 5.0.2 -  RELEASE  -


 With contributions from (in alphabetic order):
   Daniel Aravena         : Magnetic Suceptibility
   Michael Atanasov       : Ab Initio Ligand Field Theory (pilot matlab implementation)
   Alexander A. Auer      : GIAO ZORA, VPT2 properties, NMR spectrum
   Ute Becker             : Parallelization
   Giovanni Bistoni       : ED, misc. LED, open-shell LED, HFLD
   Martin Brehm           : Molecular dynamics
   Dmytro Bykov           : SCF Hessian
   Vijay G. Chilkuri      : MRCI spin determinant printing, contributions to CSF-ICE
   Dipayan Datta          : RHF DLPNO-CCSD density
   Achintya Kumar Dutta   : EOM-CC, STEOM-CC
   Dmitry Ganyushin       : Spin-Orbit,Spin-Spin,Magnetic field MRCI
   Miquel Garcia          : C-PCM and meta-GGA Hessian, CC/C-PCM, Gaussian charge scheme
   Yang Guo               : DLPNO-NEVPT2, F12-NEVPT2, CIM, IAO-localization
   Andreas Hansen         : Spin unrestricted coupled pair/coupled cluster methods
   Benjamin Helmich-Paris : MC-RPA, TRAH-SCF, COSX integrals
   Lee Huntington         : MR-EOM, pCC
   Robert Izsak           : Overlap fitted RIJCOSX, COSX-SCS-MP3, EOM
   Marcus Kettner         : VPT2
   Christian Kollmar      : KDIIS, OOCD, Brueckner-CCSD(T), CCSD density, CASPT2, CASPT2-K
   Simone Kossmann        : Meta GGA functionals, TD-DFT gradient, OOMP2, MP2 Hessian
   Martin Krupicka        : Initial AUTO-CI
   Lucas Lang             : DCDCAS
   Marvin Lechner         : AUTO-CI (C++ implementation), FIC-MRCC
   Dagmar Lenk            : GEPOL surface, SMD
   Dimitrios Liakos       : Extrapolation schemes; Compound Job, initial MDCI parallelization
   Dimitrios Manganas     : Further ROCIS development; embedding schemes
   Dimitrios Pantazis     : SARC Basis sets
   Anastasios Papadopoulos: AUTO-CI, single reference methods and gradients
   Taras Petrenko         : DFT Hessian,TD-DFT gradient, ASA, ECA, R-Raman, ABS, FL, XAS/XES, NRVS
   Peter Pinski           : DLPNO-MP2, DLPNO-MP2 Gradient
   Christoph Reimann      : Effective Core Potentials
   Marius Retegan         : Local ZFS, SOC
   Christoph Riplinger    : Optimizer, TS searches, QM/MM, DLPNO-CCSD(T), (RO)-DLPNO pert. Triples
   Tobias Risthaus        : Range-separated hybrids, TD-DFT gradient, RPA, STAB
   Michael Roemelt        : Original ROCIS implementation
   Masaaki Saitow         : Open-shell DLPNO-CCSD energy and density
   Barbara Sandhoefer     : DKH picture change effects
   Avijit Sen             : IP-ROCIS
   Kantharuban Sivalingam : CASSCF convergence, NEVPT2, FIC-MRCI
   Bernardo de Souza      : ESD, SOC TD-DFT
   Georgi Stoychev        : AutoAux, RI-MP2 NMR, DLPNO-MP2 response
   Willem Van den Heuvel  : Paramagnetic NMR
   Boris Wezisla          : Elementary symmetry handling
   Frank Wennmohs         : Technical directorship


 We gratefully acknowledge several colleagues who have allowed us to
 interface, adapt or use parts of their codes:
   Stefan Grimme, W. Hujo, H. Kruse, P. Pracht,  : VdW corrections, initial TS optimization,
                  C. Bannwarth, S. Ehlert          DFT functionals, gCP, sTDA/sTD-DF
   Ed Valeev, F. Pavosevic, A. Kumar             : LibInt (2-el integral package), F12 methods
   Garnet Chan, S. Sharma, J. Yang, R. Olivares  : DMRG
   Ulf Ekstrom                                   : XCFun DFT Library
   Mihaly Kallay                                 : mrcc  (arbitrary order and MRCC methods)
   Jiri Pittner, Ondrej Demel                    : Mk-CCSD
   Frank Weinhold                                : gennbo (NPA and NBO analysis)
   Christopher J. Cramer and Donald G. Truhlar   : smd solvation model
   Lars Goerigk                                  : TD-DFT with DH, B97 family of functionals
   V. Asgeirsson, H. Jonsson                     : NEB implementation
   FAccTs GmbH                                   : IRC, NEB, NEB-TS, DLPNO-Multilevel, CI-OPT
                                                   MM, QMMM, 2- and 3-layer-ONIOM, Crystal-QMMM,
                                                   LR-CPCM, SF, NACMEs, symmetry and pop. for TD-DFT,
                                                   nearIR, NL-DFT gradient (VV10), updates on ESD,
                                                   ML-optimized integration grids
   S Lehtola, MJT Oliveira, MAL Marques          : LibXC Library
   Liviu Ungur et al                             : ANISO software


 Your calculation uses the libint2 library for the computation of 2-el integrals
 For citations please refer to: http://libint.valeyev.net

 Your ORCA version has been built with support for libXC version: 5.1.0
 For citations please refer to: https://tddft.org/programs/libxc/

 This ORCA versions uses:
   CBLAS   interface :  Fast vector & matrix operations
   LAPACKE interface :  Fast linear algebra routines
   SCALAPACK package :  Parallel linear algebra routines
   Shared memory     :  Shared parallel matrices
   BLAS/LAPACK       :  OpenBLAS 0.3.15  USE64BITINT DYNAMIC_ARCH NO_AFFINITY Zen SINGLE_THREADED
        Core in use  :  Zen
   Copyright (c) 2011-2014, The OpenBLAS Project


Your calculation utilizes the atom-pairwise dispersion correction
based on tight binding partial charges (D4)
Cite in your paper:
E.Caldeweyher, C.Bannwarth, S.Grimme, J.Chem.Phys., (2017), 147, 034112.
E.Caldeweyher, S.Ehlert, A.Hansen, H.Neugebauer, S.Grimme, J.Chem.Phys., (2018), in progress.
   

================================================================================

----- Orbital basis set information -----
Your calculation utilizes the basis: pcSseg-1
   F. Jensen, J. Chem. Theory Comput. 11, 132 (2015).

----- AuxJ basis set information -----
Your calculation utilizes the auxiliary basis: def2/J
   F. Weigend, Phys. Chem. Chem. Phys. 8, 1057 (2006).

================================================================================
                                        WARNINGS
                       Please study these warnings very carefully!
================================================================================



WARNING: Found flag for RIJCOSX approximation but no HF exchange needed!
  ===> : RIJCOSX  will be disabled and Split-RI-J is turned on

INFO   : the flag for use of the SHARK integral package has been found!

================================================================================
                                       INPUT FILE
================================================================================
NAME = inpS
|  1> ! revTPSS
|  2> ! D4
|  3> ! pcSseg-1
|  4> ! def2/J RIJCOSX
|  5> ! DEFGRID2
|  6> ! scfconv7
|  7> ! smallprint printgap noloewdin
|  8> ! NOSOSCF
|  9> %MaxCore 4000
| 10> %output
| 11>        print[P_BondOrder_M] 1
| 12>        print[P_Mayer] 1
| 13>        print[P_basis] 2
| 14> end
| 15> %pal
| 16>     nprocs 4
| 17> end
| 18> ! CPCM(chloroform)
| 19> *xyz 0 1
| 20> C   -5.0316843800   0.3031452700   0.3138049700
| 21> C   -6.4392359100  -0.1192093400  -0.0356727800
| 22> C   -6.9772031200   0.6468486000  -1.2504447400
| 23> H   -7.1090024200   0.1023474400   0.8126242500
| 24> H   -6.4843337500  -1.1974686400  -0.2242421800
| 25> C   -4.8499865900   1.7655388800   0.4329247900
| 26> C   -5.4329079300   2.5634722600  -0.7115687300
| 27> C   -6.8795228800   2.1498627600  -1.0142080100
| 28> H   -4.8239009900   2.3782316300  -1.6094502900
| 29> H   -5.3754478400   3.6350916300  -0.4934270000
| 30> H   -7.2517626400   2.6871692700  -1.8944329500
| 31> H   -7.5252325200   2.4152446400  -0.1634876400
| 32> O   -8.3157131000   0.2428323900  -1.5674457400
| 33> H   -6.3839076000   0.3772400300  -2.1354009100
| 34> C   -4.0442670700  -0.6134552300   0.4500989800
| 35> C   -4.2616129800   2.3512949000   1.4821176900
| 36> H   -3.8710352200   1.7673788700   2.3108555200
| 37> H   -4.1680572900   3.4332336000   1.5385067900
| 38> C   -2.6459943700  -0.3389959200   0.6867179700
| 39> H   -4.3358466700  -1.6557208800   0.3276873700
| 40> C   -1.6730424200  -1.2516877100   0.8961521100
| 41> H   -2.3604383800   0.7104279300   0.6822902600
| 42> C   -1.8688167900  -2.7441736200   0.9827539900
| 43> C   -0.9217951900  -3.5023290300   0.0333584200
| 44> H   -2.9039314700  -3.0392896400   0.7899861500
| 45> H   -1.6384838700  -3.0532698400   2.0150074000
| 46> C    0.5426494900  -3.0684695500   0.1868516100
| 47> H   -1.2489974800  -3.3422194100  -1.0017231800
| 48> H   -1.0076376100  -4.5791452100   0.2240207500
| 49> C    0.7057720800  -1.5494136700   0.0394577500
| 50> H    1.1517709400  -3.6079879900  -0.5458746000
| 51> H    0.9045901300  -3.3620476700   1.1838275300
| 52> C   -0.2357694200  -0.8745046400   1.0867855700
| 53> H    0.0730715900  -1.3094567000   2.0554918500
| 54> C    0.2000676400   0.5875793700   1.0933383900
| 55> H   -8.8750000300   0.4695205400  -0.8123934000
| 56> C    1.7325911600   0.5092521600   0.8880677100
| 57> H   -0.0807005000   1.0976286400   2.0208823700
| 58> H   -0.2692789100   1.1357339600   0.2687338300
| 59> C    2.0697377300  -0.9604755700   0.4960373400
| 60> H    2.2815244700   0.8024521900   1.7885926400
| 61> H    2.0576789600   1.1924504600   0.0944531200
| 62> H    2.3553227900  -1.5098567900   1.4081425700
| 63> C    3.2711245000  -1.0265953600  -0.4687904700
| 64> C    0.3616835800  -1.0929946000  -1.3846635700
| 65> H   -0.7010544700  -1.2341792600  -1.6044368500
| 66> H    0.9377119100  -1.6618754200  -2.1229639300
| 67> H    0.5875644900  -0.0323334900  -1.5333334000
| 68> H    3.0133707700  -0.4668957200  -1.3801482500
| 69> C    3.6566214400  -2.4600397000  -0.8640360900
| 70> C    4.4601385600  -0.3521904600   0.1654190500
| 71> C    5.0896020900   0.7081762000  -0.3410834900
| 72> H    4.8074551400  -0.8046229400   1.0970551400
| 73> H    4.7082159200   1.1193684000  -1.2782894800
| 74> C    6.2876826400   1.4159800000   0.2342981800
| 75> C    6.8793024400   0.7261756400   1.4632577400
| 76> C    5.9984648400   2.9213397000   0.5029747200
| 77> H    7.0630319800   1.4077996800  -0.5506934400
| 78> H    6.9344304400   3.3375918200   0.9058437100
| 79> C    4.8959198000   3.1356785800   1.5413420600
| 80> C    5.6704580500   3.6833677400  -0.7839956400
| 81> H    7.2114460600  -0.2890316300   1.2212712300
| 82> H    6.1550753600   0.6509479700   2.2810346300
| 83> H    7.7441882400   1.2885695500   1.8312705500
| 84> H    4.7524635100   4.2053020200   1.7314188700
| 85> H    5.1300214600   2.6565497400   2.4974128200
| 86> H    3.9446205300   2.7257586400   1.1823752500
| 87> H    4.6899926800   3.3949461600  -1.1796834900
| 88> H    6.4199678300   3.4975345300  -1.5621330000
| 89> H    5.6410373700   4.7617606400  -0.5926593900
| 90> H    4.5884355700  -2.4565919000  -1.4395910700
| 91> H    2.8852992800  -2.9322396200  -1.4777320300
| 92> H    3.8105181900  -3.0808197700   0.0271805600
| 93> *
| 94> %eprnmr
| 95>  Nuclei = all H { shift }
| 96>  origin giao
| 97>  giao_2el giao_2el_same_as_scf
| 98>  giao_1el giao_1el_analytic
| 99> end
|100> 
|101>                          ****END OF INPUT****
================================================================================

                       ****************************
                       * Single Point Calculation *
                       ****************************

---------------------------------
CARTESIAN COORDINATES (ANGSTROEM)
---------------------------------
  C     -5.031684    0.303145    0.313805
  C     -6.439236   -0.119209   -0.035673
  C     -6.977203    0.646849   -1.250445
  H     -7.109002    0.102347    0.812624
  H     -6.484334   -1.197469   -0.224242
  C     -4.849987    1.765539    0.432925
  C     -5.432908    2.563472   -0.711569
  C     -6.879523    2.149863   -1.014208
  H     -4.823901    2.378232   -1.609450
  H     -5.375448    3.635092   -0.493427
  H     -7.251763    2.687169   -1.894433
  H     -7.525233    2.415245   -0.163488
  O     -8.315713    0.242832   -1.567446
  H     -6.383908    0.377240   -2.135401
  C     -4.044267   -0.613455    0.450099
  C     -4.261613    2.351295    1.482118
  H     -3.871035    1.767379    2.310856
  H     -4.168057    3.433234    1.538507
  C     -2.645994   -0.338996    0.686718
  H     -4.335847   -1.655721    0.327687
  C     -1.673042   -1.251688    0.896152
  H     -2.360438    0.710428    0.682290
  C     -1.868817   -2.744174    0.982754
  C     -0.921795   -3.502329    0.033358
  H     -2.903931   -3.039290    0.789986
  H     -1.638484   -3.053270    2.015007
  C      0.542649   -3.068470    0.186852
  H     -1.248997   -3.342219   -1.001723
  H     -1.007638   -4.579145    0.224021
  C      0.705772   -1.549414    0.039458
  H      1.151771   -3.607988   -0.545875
  H      0.904590   -3.362048    1.183828
  C     -0.235769   -0.874505    1.086786
  H      0.073072   -1.309457    2.055492
  C      0.200068    0.587579    1.093338
  H     -8.875000    0.469521   -0.812393
  C      1.732591    0.509252    0.888068
  H     -0.080700    1.097629    2.020882
  H     -0.269279    1.135734    0.268734
  C      2.069738   -0.960476    0.496037
  H      2.281524    0.802452    1.788593
  H      2.057679    1.192450    0.094453
  H      2.355323   -1.509857    1.408143
  C      3.271124   -1.026595   -0.468790
  C      0.361684   -1.092995   -1.384664
  H     -0.701054   -1.234179   -1.604437
  H      0.937712   -1.661875   -2.122964
  H      0.587564   -0.032333   -1.533333
  H      3.013371   -0.466896   -1.380148
  C      3.656621   -2.460040   -0.864036
  C      4.460139   -0.352190    0.165419
  C      5.089602    0.708176   -0.341083
  H      4.807455   -0.804623    1.097055
  H      4.708216    1.119368   -1.278289
  C      6.287683    1.415980    0.234298
  C      6.879302    0.726176    1.463258
  C      5.998465    2.921340    0.502975
  H      7.063032    1.407800   -0.550693
  H      6.934430    3.337592    0.905844
  C      4.895920    3.135679    1.541342
  C      5.670458    3.683368   -0.783996
  H      7.211446   -0.289032    1.221271
  H      6.155075    0.650948    2.281035
  H      7.744188    1.288570    1.831271
  H      4.752464    4.205302    1.731419
  H      5.130021    2.656550    2.497413
  H      3.944621    2.725759    1.182375
  H      4.689993    3.394946   -1.179683
  H      6.419968    3.497535   -1.562133
  H      5.641037    4.761761   -0.592659
  H      4.588436   -2.456592   -1.439591
  H      2.885299   -2.932240   -1.477732
  H      3.810518   -3.080820    0.027181

----------------------------
CARTESIAN COORDINATES (A.U.)
----------------------------
  NO LB      ZA    FRAG     MASS         X           Y           Z
   0 C     6.0000    0    12.011   -9.508505    0.572862    0.593005
   1 C     6.0000    0    12.011  -12.168392   -0.225273   -0.067412
   2 C     6.0000    0    12.011  -13.185003    1.222367   -2.362998
   3 H     1.0000    0     1.008  -13.434068    0.193409    1.535637
   4 H     1.0000    0     1.008  -12.253615   -2.262888   -0.423756
   5 C     6.0000    0    12.011   -9.165146    3.336385    0.818109
   6 C     6.0000    0    12.011  -10.266708    4.844261   -1.344670
   7 C     6.0000    0    12.011  -13.000414    4.062652   -1.916575
   8 H     1.0000    0     1.008   -9.115852    4.494206   -3.041420
   9 H     1.0000    0     1.008  -10.158124    6.869328   -0.932442
  10 H     1.0000    0     1.008  -13.703845    5.078014   -3.579959
  11 H     1.0000    0     1.008  -14.220629    4.564151   -0.308947
  12 O     8.0000    0    15.999  -15.714420    0.458887   -2.962043
  13 H     1.0000    0     1.008  -12.063837    0.712880   -4.035323
  14 C     6.0000    0    12.011   -7.642557   -1.159262    0.850564
  15 C     6.0000    0    12.011   -8.053281    4.443303    2.800797
  16 H     1.0000    0     1.008   -7.315196    3.339862    4.366884
  17 H     1.0000    0     1.008   -7.876487    6.487871    2.907356
  18 C     6.0000    0    12.011   -5.000205   -0.640609    1.297709
  19 H     1.0000    0     1.008   -8.193563   -3.128859    0.619239
  20 C     6.0000    0    12.011   -3.161592   -2.365347    1.693482
  21 H     1.0000    0     1.008   -4.460582    1.342514    1.289342
  22 C     6.0000    0    12.011   -3.531552   -5.185737    1.857136
  23 C     6.0000    0    12.011   -1.741940   -6.618443    0.063038
  24 H     1.0000    0     1.008   -5.487635   -5.743425    1.492857
  25 H     1.0000    0     1.008   -3.096286   -5.769844    3.807812
  26 C     6.0000    0    12.011    1.025459   -5.798567    0.353098
  27 H     1.0000    0     1.008   -2.360263   -6.315879   -1.892982
  28 H     1.0000    0     1.008   -1.904159   -8.653330    0.423338
  29 C     6.0000    0    12.011    1.333716   -2.927968    0.074564
  30 H     1.0000    0     1.008    2.176532   -6.818109   -1.031553
  31 H     1.0000    0     1.008    1.709428   -6.353349    2.237110
  32 C     6.0000    0    12.011   -0.445540   -1.652574    2.053727
  33 H     1.0000    0     1.008    0.138085   -2.474515    3.884317
  34 C     6.0000    0    12.011    0.378073    1.110364    2.066110
  35 H     1.0000    0     1.008  -16.771319    0.887265   -1.535201
  36 C     6.0000    0    12.011    3.274123    0.962347    1.678205
  37 H     1.0000    0     1.008   -0.152502    2.074218    3.818914
  38 H     1.0000    0     1.008   -0.508863    2.146226    0.507833
  39 C     6.0000    0    12.011    3.911237   -1.815036    0.937375
  40 H     1.0000    0     1.008    4.311456    1.516415    3.379950
  41 H     1.0000    0     1.008    3.888450    2.253405    0.178491
  42 H     1.0000    0     1.008    4.450915   -2.853216    2.661004
  43 C     6.0000    0    12.011    6.181529   -1.939984   -0.885886
  44 C     6.0000    0    12.011    0.683483   -2.065460   -2.616635
  45 H     1.0000    0     1.008   -1.324801   -2.332261   -3.031946
  46 H     1.0000    0     1.008    1.772019   -3.140489   -4.011820
  47 H     1.0000    0     1.008    1.110336   -0.061101   -2.897580
  48 H     1.0000    0     1.008    5.694445   -0.882305   -2.608102
  49 C     6.0000    0    12.011    6.910013   -4.648801   -1.632792
  50 C     6.0000    0    12.011    8.428440   -0.665544    0.312597
  51 C     6.0000    0    12.011    9.617954    1.338259   -0.644554
  52 H     1.0000    0     1.008    9.084774   -1.520517    2.073134
  53 H     1.0000    0     1.008    8.897239    2.115300   -2.415617
  54 C     6.0000    0    12.011   11.881998    2.675814    0.442759
  55 C     6.0000    0    12.011   12.999998    1.372273    2.765156
  56 C     6.0000    0    12.011   11.335456    5.520532    0.950484
  57 H     1.0000    0     1.008   13.347196    2.660356   -1.040660
  58 H     1.0000    0     1.008   13.104174    6.307134    1.711797
  59 C     6.0000    0    12.011    9.251948    5.925574    2.912714
  60 C     6.0000    0    12.011   10.715613    6.960556   -1.481537
  61 H     1.0000    0     1.008   13.627658   -0.546191    2.307868
  62 H     1.0000    0     1.008   11.631407    1.230113    4.310531
  63 H     1.0000    0     1.008   14.634395    2.435044    3.460600
  64 H     1.0000    0     1.008    8.980854    7.946869    3.271907
  65 H     1.0000    0     1.008    9.694336    5.020151    4.719426
  66 H     1.0000    0     1.008    7.454253    5.150937    2.234365
  67 H     1.0000    0     1.008    8.862802    6.415518   -2.229279
  68 H     1.0000    0     1.008   12.131981    6.609382   -2.952004
  69 H     1.0000    0     1.008   10.660016    8.998424   -1.119964
  70 H     1.0000    0     1.008    8.670887   -4.642286   -2.720433
  71 H     1.0000    0     1.008    5.452425   -5.541130   -2.792509
  72 H     1.0000    0     1.008    7.200836   -5.821906    0.051364

--------------------------------
INTERNAL COORDINATES (ANGSTROEM)
--------------------------------
 C      0   0   0     0.000000000000     0.00000000     0.00000000
 C      1   0   0     1.510536137912     0.00000000     0.00000000
 C      2   1   0     1.533598513717   111.74433327     0.00000000
 H      2   1   3     1.103305232376   109.36794680   241.46258624
 H      2   1   3     1.095552532664   110.69373095   122.88350355
 C      1   2   3     1.478444685802   114.18788328    50.49968197
 C      6   1   2     1.512071554149   114.43221417   312.05018820
 C      3   2   1     1.524598565868   110.31817293   305.01772786
 H      7   6   1     1.100633835460   108.38156804   289.93857612
 H      7   6   1     1.095105269127   110.20563479   172.73861653
 H      8   3   2     1.096383450081   109.69299492   179.11109978
 H      8   3   2     1.100496991979   108.65823507   296.54961574
 O      3   2   1     1.433641412105   111.21620792   180.32674243
 H      3   2   1     1.099015822402   109.02092925    65.16018575
 C      1   2   3     1.354151201990   120.89661503   232.66399496
 C      6   1   2     1.337945948580   123.38602860   129.85839327
 H     16   6   1     1.086423171499   121.39779899     0.65627052
 H     16   6   1     1.087439077966   120.93634866   181.33627755
 C     15   1   2     1.444466338424   126.42242850   175.31862466
 H     15   1   2     1.089183616554   116.18099498   357.96501108
 C     19  15   1     1.350371970806   126.47332485   176.07222337
 H     19  15   1     1.087590108906   115.90208993   355.35556924
 C     21  19  15     1.507760485328   125.75983927   357.20113888
 C     23  21  19     1.540454960365   111.83617880   127.89283607
 H     23  21  19     1.093487679926   112.32987736     3.76013588
 H     23  21  19     1.101880587773   107.71851905   246.54661830
 C     24  23  21     1.535054536016   112.69098800    50.79022769
 H     24  23  21     1.097310506491   109.04014582   288.69384350
 H     24  23  21     1.096929410064   109.14171226   172.73993707
 C     27  24  23     1.534882632613   111.80855130   306.19895556
 H     27  24  23     1.094987117171   108.93673844   182.68966713
 H     27  24  23     1.100522659688   109.20447103    66.18952021
 C     21  19  15     1.498119441465   122.73887000   177.81966679
 H     33  21  19     1.105874278961   106.28236936   123.98132782
 C     33  21  19     1.525675763266   121.05690997     1.79502594
 H     13   3   2     0.966588549259   107.54217176    62.69780876
 C     35  33  21     1.548192346980   103.51639774   196.28993952
 H     35  33  21     1.095134165799   112.13112463    74.25899809
 H     35  33  21     1.095779320350   110.71998000   314.66644301
 C     30  27  24     1.554257154404   116.10819919   166.35938742
 H     37  35  33     1.094641121999   111.94840922   249.48051765
 H     37  35  33     1.096478961172   110.97275289   130.95121460
 H     40  30  27     1.102413036016   106.35301947   320.93781726
 C     40  30  27     1.542269334685   118.91968911    81.77991948
 C     30  27  24     1.534547750111   111.07876356   294.28272119
 H     45  30  27     1.094369940075   111.45350406    66.72626616
 H     45  30  27     1.095683095563   110.67274196   306.57772194
 H     45  30  27     1.094589829169   111.59148391   186.72759111
 H     44  40  30     1.100124390927   108.29597801    60.59765579
 C     44  40  30     1.536095591673   113.35735664   299.90867414
 C     44  40  30     1.506916759241   109.40013188   177.85185713
 C     51  44  40     1.333096625255   124.65569853   240.46084164
 H     51  44  40     1.092368875377   115.11597597    61.37898573
 H     52  51  44     1.092194810325   117.42622440     0.52867550
 C     52  51  44     1.505804532386   127.18514261   180.72094087
 C     55  52  51     1.528458583980   113.77005208     5.84344868
 C     55  52  51     1.556258926197   111.88727217   238.09128605
 H     55  52  51     1.103379064576   106.48515489   123.77600075
 H     57  55  52     1.100727420796   105.72117974   180.66886769
 C     57  55  52     1.529625265706   112.74882502    62.70701007
 C     57  55  52     1.531198189507   112.09202801   297.56507826
 H     56  55  52     1.095227216786   110.98145682    60.31525479
 H     56  55  52     1.094953472782   112.05546260   300.03287347
 H     56  55  52     1.095329989259   110.12445875   179.98050416
 H     60  57  55     1.095811664584   110.41927713   177.65906900
 H     60  57  55     1.094732538414   112.17203294    57.54853471
 H     60  57  55     1.096294590424   110.53572898   297.03956334
 H     61  57  55     1.095932581967   111.35440301    70.53353588
 H     61  57  55     1.096264860005   111.45513274   309.72434867
 H     61  57  55     1.095630587263   110.41449036   189.67697850
 H     50  44  40     1.095241067161   110.23000935   187.39065202
 H     50  44  40     1.092947091916   111.74898549    67.46069634
 H     50  44  40     1.096959079550   110.74776305   306.87410286

---------------------------
INTERNAL COORDINATES (A.U.)
---------------------------
 C      0   0   0     0.000000000000     0.00000000     0.00000000
 C      1   0   0     2.854499616045     0.00000000     0.00000000
 C      2   1   0     2.898081190313   111.74433327     0.00000000
 H      2   1   3     2.084944731313   109.36794680   241.46258624
 H      2   1   3     2.070294252058   110.69373095   122.88350355
 C      1   2   3     2.793855560317   114.18788328    50.49968197
 C      6   1   2     2.857401132235   114.43221417   312.05018820
 C      3   2   1     2.881073753660   110.31817293   305.01772786
 H      7   6   1     2.079896522746   108.38156804   289.93857612
 H      7   6   1     2.069449046464   110.20563479   172.73861653
 H      8   3   2     2.071864458417   109.69299492   179.11109978
 H      8   3   2     2.079637926044   108.65823507   296.54961574
 O      3   2   1     2.709189643127   111.21620792   180.32674243
 H      3   2   1     2.076838921187   109.02092925    65.16018575
 C      1   2   3     2.558974915681   120.89661503   232.66399496
 C      6   1   2     2.528351424805   123.38602860   129.85839327
 H     16   6   1     2.053042259680   121.39779899     0.65627052
 H     16   6   1     2.054962044680   120.93634866   181.33627755
 C     15   1   2     2.729645789289   126.42242850   175.31862466
 H     15   1   2     2.058258744840   116.18099498   357.96501108
 C     19  15   1     2.551833203748   126.47332485   176.07222337
 H     19  15   1     2.055247451793   115.90208993   355.35556924
 C     21  19  15     2.849254392818   125.75983927   357.20113888
 C     23  21  19     2.911037996731   111.83617880   127.89283607
 H     23  21  19     2.066392245877   112.32987736     3.76013588
 H     23  21  19     2.082252543175   107.71851905   246.54661830
 C     24  23  21     2.900832673703   112.69098800    50.79022769
 H     24  23  21     2.073616341143   109.04014582   288.69384350
 H     24  23  21     2.072896173264   109.14171226   172.73993707
 C     27  24  23     2.900507823350   111.80855130   306.19895556
 H     27  24  23     2.069225771626   108.93673844   182.68966713
 H     27  24  23     2.079686430984   109.20447103    66.18952021
 C     21  19  15     2.831035460272   122.73887000   177.81966679
 H     33  21  19     2.089799525784   106.28236936   123.98132782
 C     33  21  19     2.883109361734   121.05690997     1.79502594
 H     13   3   2     1.826587642284   107.54217176    62.69780876
 C     35  33  21     2.925659538425   103.51639774   196.28993952
 H     35  33  21     2.069503653261   112.13112463    74.25899809
 H     35  33  21     2.070722818677   110.71998000   314.66644301
 C     30  27  24     2.937120363511   116.10819919   166.35938742
 H     37  35  33     2.068571935506   111.94840922   249.48051765
 H     37  35  33     2.072044948221   110.97275289   130.95121460
 H     40  30  27     2.083258724534   106.35301947   320.93781726
 C     40  30  27     2.914466667300   118.91968911    81.77991948
 C     30  27  24     2.899874987135   111.07876356   294.28272119
 H     45  30  27     2.068059475937   111.45350406    66.72626616
 H     45  30  27     2.070540980181   110.67274196   306.57772194
 H     45  30  27     2.068475006106   111.59148391   186.72759111
 H     44  40  30     2.078933812098   108.29597801    60.59765579
 C     44  40  30     2.902799983785   113.35735664   299.90867414
 C     44  40  30     2.847659981581   109.40013188   177.85185713
 C     51  44  40     2.519187531786   124.65569853   240.46084164
 H     51  44  40     2.064278011682   115.11597597    61.37898573
 H     52  51  44     2.063949076404   117.42622440     0.52867550
 C     52  51  44     2.845558177427   127.18514261   180.72094087
 C     55  52  51     2.888368130763   113.77005208     5.84344868
 C     55  52  51     2.940903163982   111.88727217   238.09128605
 H     55  52  51     2.085084253950   106.48515489   123.77600075
 H     57  55  52     2.080073373401   105.72117974   180.66886769
 C     57  55  52     2.890572839711   112.74882502    62.70701007
 C     57  55  52     2.893545234925   112.09202801   297.56507826
 H     56  55  52     2.069679494143   110.98145682    60.31525479
 H     56  55  52     2.069162192944   112.05546260   300.03287347
 H     56  55  52     2.069873705971   110.12445875   179.98050416
 H     60  57  55     2.070783940420   110.41927713   177.65906900
 H     60  57  55     2.068744687494   112.17203294    57.54853471
 H     60  57  55     2.071696538001   110.53572898   297.03956334
 H     61  57  55     2.071012441159   111.35440301    70.53353588
 H     61  57  55     2.071640355651   111.45513274   309.72434867
 H     61  57  55     2.070441753874   110.41449036   189.67697850
 H     50  44  40     2.069705667557   110.23000935   187.39065202
 H     50  44  40     2.065370682587   111.74898549    67.46069634
 H     50  44  40     2.072952240468   110.74776305   306.87410286

---------------------
BASIS SET INFORMATION
---------------------
There are 3 groups of distinct atoms

 Group   1 Type C   : 8s5p1d contracted to 3s3p1d pattern {521/311/1}
 Group   2 Type H   : 4s2p contracted to 2s1p pattern {31/2}
 Group   3 Type O   : 8s5p1d contracted to 3s3p1d pattern {521/311/1}

Atom   0C    basis set group =>   1
Atom   1C    basis set group =>   1
Atom   2C    basis set group =>   1
Atom   3H    basis set group =>   2
Atom   4H    basis set group =>   2
Atom   5C    basis set group =>   1
Atom   6C    basis set group =>   1
Atom   7C    basis set group =>   1
Atom   8H    basis set group =>   2
Atom   9H    basis set group =>   2
Atom  10H    basis set group =>   2
Atom  11H    basis set group =>   2
Atom  12O    basis set group =>   3
Atom  13H    basis set group =>   2
Atom  14C    basis set group =>   1
Atom  15C    basis set group =>   1
Atom  16H    basis set group =>   2
Atom  17H    basis set group =>   2
Atom  18C    basis set group =>   1
Atom  19H    basis set group =>   2
Atom  20C    basis set group =>   1
Atom  21H    basis set group =>   2
Atom  22C    basis set group =>   1
Atom  23C    basis set group =>   1
Atom  24H    basis set group =>   2
Atom  25H    basis set group =>   2
Atom  26C    basis set group =>   1
Atom  27H    basis set group =>   2
Atom  28H    basis set group =>   2
Atom  29C    basis set group =>   1
Atom  30H    basis set group =>   2
Atom  31H    basis set group =>   2
Atom  32C    basis set group =>   1
Atom  33H    basis set group =>   2
Atom  34C    basis set group =>   1
Atom  35H    basis set group =>   2
Atom  36C    basis set group =>   1
Atom  37H    basis set group =>   2
Atom  38H    basis set group =>   2
Atom  39C    basis set group =>   1
Atom  40H    basis set group =>   2
Atom  41H    basis set group =>   2
Atom  42H    basis set group =>   2
Atom  43C    basis set group =>   1
Atom  44C    basis set group =>   1
Atom  45H    basis set group =>   2
Atom  46H    basis set group =>   2
Atom  47H    basis set group =>   2
Atom  48H    basis set group =>   2
Atom  49C    basis set group =>   1
Atom  50C    basis set group =>   1
Atom  51C    basis set group =>   1
Atom  52H    basis set group =>   2
Atom  53H    basis set group =>   2
Atom  54C    basis set group =>   1
Atom  55C    basis set group =>   1
Atom  56C    basis set group =>   1
Atom  57H    basis set group =>   2
Atom  58H    basis set group =>   2
Atom  59C    basis set group =>   1
Atom  60C    basis set group =>   1
Atom  61H    basis set group =>   2
Atom  62H    basis set group =>   2
Atom  63H    basis set group =>   2
Atom  64H    basis set group =>   2
Atom  65H    basis set group =>   2
Atom  66H    basis set group =>   2
Atom  67H    basis set group =>   2
Atom  68H    basis set group =>   2
Atom  69H    basis set group =>   2
Atom  70H    basis set group =>   2
Atom  71H    basis set group =>   2
Atom  72H    basis set group =>   2

-------------------------
BASIS SET IN INPUT FORMAT
-------------------------

 # Basis set for element : H 
 NewGTO H 
 S 3 
   1      12.2518000000      0.0372173893
   2       1.8687100000      0.2538082070
   3       0.4182080000      0.7973867639
 S 1 
   1       0.1061000000      1.0000000000
 P 2 
   1       9.0000000000      0.0402678705
   2       1.0000000000      0.9880231245
  end;

 # Basis set for element : C 
 NewGTO C 
 S 5 
   1    1243.2000000000      0.0056300977
   2     187.1450000000      0.0419506039
   3      42.5126000000      0.1846643605
   4      11.7393000000      0.4665574214
   5       3.5054800000      0.4482347783
 S 2 
   1       5.3908900000     -0.1481148174
   2       0.4933410000      1.0519817143
 S 1 
   1       0.1497410000      1.0000000000
 P 3 
   1      59.6736000000      0.0113906672
   2       9.1805600000      0.1672414929
   3       1.9365800000      0.9041087436
 P 1 
   1       0.5262960000      1.0000000000
 P 1 
   1       0.1363190000      1.0000000000
 D 1 
   1       0.8000000000      1.0000000000
  end;

 # Basis set for element : O 
 NewGTO O 
 S 5 
   1    2288.6400000000      0.0054511382
   2     344.4160000000      0.0407189228
   3      78.2538000000      0.1813694209
   4      21.7195000000      0.4655368202
   5       6.5590700000      0.4512113212
 S 2 
   1      10.4656000000     -0.1502112012
   2       0.9643510000      1.0528679834
 S 1 
   1       0.2851270000      1.0000000000
 P 3 
   1     110.8840000000      0.0113058003
   2      17.0590000000      0.1699226452
   3       3.6899900000      0.9008060328
 P 1 
   1       0.9929960000      1.0000000000
 P 1 
   1       0.2449240000      1.0000000000
 D 1 
   1       1.0000000000      1.0000000000
  end;

---------------------------------
AUXILIARY/J BASIS SET INFORMATION
---------------------------------
There are 3 groups of distinct atoms

 Group   1 Type C   : 12s5p4d2f1g contracted to 6s4p3d1f1g pattern {711111/2111/211/2/1}
 Group   2 Type H   : 5s2p1d contracted to 3s1p1d pattern {311/2/1}
 Group   3 Type O   : 12s5p4d2f1g contracted to 6s4p3d1f1g pattern {711111/2111/211/2/1}

Atom   0C    basis set group =>   1
Atom   1C    basis set group =>   1
Atom   2C    basis set group =>   1
Atom   3H    basis set group =>   2
Atom   4H    basis set group =>   2
Atom   5C    basis set group =>   1
Atom   6C    basis set group =>   1
Atom   7C    basis set group =>   1
Atom   8H    basis set group =>   2
Atom   9H    basis set group =>   2
Atom  10H    basis set group =>   2
Atom  11H    basis set group =>   2
Atom  12O    basis set group =>   3
Atom  13H    basis set group =>   2
Atom  14C    basis set group =>   1
Atom  15C    basis set group =>   1
Atom  16H    basis set group =>   2
Atom  17H    basis set group =>   2
Atom  18C    basis set group =>   1
Atom  19H    basis set group =>   2
Atom  20C    basis set group =>   1
Atom  21H    basis set group =>   2
Atom  22C    basis set group =>   1
Atom  23C    basis set group =>   1
Atom  24H    basis set group =>   2
Atom  25H    basis set group =>   2
Atom  26C    basis set group =>   1
Atom  27H    basis set group =>   2
Atom  28H    basis set group =>   2
Atom  29C    basis set group =>   1
Atom  30H    basis set group =>   2
Atom  31H    basis set group =>   2
Atom  32C    basis set group =>   1
Atom  33H    basis set group =>   2
Atom  34C    basis set group =>   1
Atom  35H    basis set group =>   2
Atom  36C    basis set group =>   1
Atom  37H    basis set group =>   2
Atom  38H    basis set group =>   2
Atom  39C    basis set group =>   1
Atom  40H    basis set group =>   2
Atom  41H    basis set group =>   2
Atom  42H    basis set group =>   2
Atom  43C    basis set group =>   1
Atom  44C    basis set group =>   1
Atom  45H    basis set group =>   2
Atom  46H    basis set group =>   2
Atom  47H    basis set group =>   2
Atom  48H    basis set group =>   2
Atom  49C    basis set group =>   1
Atom  50C    basis set group =>   1
Atom  51C    basis set group =>   1
Atom  52H    basis set group =>   2
Atom  53H    basis set group =>   2
Atom  54C    basis set group =>   1
Atom  55C    basis set group =>   1
Atom  56C    basis set group =>   1
Atom  57H    basis set group =>   2
Atom  58H    basis set group =>   2
Atom  59C    basis set group =>   1
Atom  60C    basis set group =>   1
Atom  61H    basis set group =>   2
Atom  62H    basis set group =>   2
Atom  63H    basis set group =>   2
Atom  64H    basis set group =>   2
Atom  65H    basis set group =>   2
Atom  66H    basis set group =>   2
Atom  67H    basis set group =>   2
Atom  68H    basis set group =>   2
Atom  69H    basis set group =>   2
Atom  70H    basis set group =>   2
Atom  71H    basis set group =>   2
Atom  72H    basis set group =>   2

-------------------------------------
AUXILIARY/J BASIS SET IN INPUT FORMAT
-------------------------------------

 # Auxiliary/J basis set for element : H 
 NewAuxJGTO H 
 S 3 
   1      15.6752927000      0.1007184237
   2       3.6063578000      0.3404257499
   3       1.2080016000      0.6491996172
 S 1 
   1       0.4726794000      1.0000000000
 S 1 
   1       0.2018100000      1.0000000000
 P 2 
   1       2.0281365000      0.5596620919
   2       0.5358730000      0.5596620919
 D 1 
   1       2.2165124000      1.0000000000
  end;

 # Auxiliary/J basis set for element : C 
 NewAuxJGTO C 
 S 7 
   1    1861.0916331000      0.0134602335
   2     642.9939764000      0.0299160374
   3     235.1105725000      0.1008649584
   4      90.7028894000      0.2370970548
   5      36.7794552000      0.3924037254
   6      15.6046273000      0.3195862154
   7       6.8907294000      0.0530104441
 S 1 
   1       3.1478850000     -1.0000000000
 S 1 
   1       1.4777287000      1.0000000000
 S 1 
   1       0.7076466000      1.0000000000
 S 1 
   1       0.3430122000      1.0000000000
 S 1 
   1       0.1669453000      1.0000000000
 P 2 
   1      13.5472892000     -0.6769313712
   2       5.4669419000     -0.3779500978
 P 1 
   1       2.1751721000      1.0000000000
 P 1 
   1       0.8582194000      1.0000000000
 P 1 
   1       0.3376720000      1.0000000000
 D 2 
   1       5.9287253000     -0.3533329857
   2       1.9809209000     -0.7456525731
 D 1 
   1       0.8055417000     -1.0000000000
 D 1 
   1       0.3531244000     -1.0000000000
 F 2 
   1       1.6755626000      0.6311076882
   2       0.5997536000      0.4968166032
 G 1 
   1       1.0024600000     -1.0000000000
  end;

 # Auxiliary/J basis set for element : O 
 NewAuxJGTO O 
 S 7 
   1    2876.8216605000      0.0168151159
   2    1004.7443032000      0.0340137548
   3     369.7579954000      0.1194951309
   4     142.9442404000      0.2664627624
   5      57.8366425000      0.4202764046
   6      24.3864983000      0.2765077335
   7      10.6622662000      0.0057008815
 S 1 
   1       4.8070437000     -1.0000000000
 S 1 
   1       2.2210770000      1.0000000000
 S 1 
   1       1.0447795000      1.0000000000
 S 1 
   1       0.4968425000      1.0000000000
 S 1 
   1       0.2371384000      1.0000000000
 P 2 
   1      64.2613382000     -0.2731534179
   2      16.3006076000     -0.8168011598
 P 1 
   1       4.3550542000      1.0000000000
 P 1 
   1       1.2019554000      1.0000000000
 P 1 
   1       0.3354196000      1.0000000000
 D 2 
   1       9.2146611000     -0.4661230638
   2       2.8435251000     -0.6600908911
 D 1 
   1       0.9955759000     -1.0000000000
 D 1 
   1       0.3649441000     -1.0000000000
 F 2 
   1       2.6420115000      0.5931563945
   2       0.7345613000      0.5931563945
 G 1 
   1       1.3931000000     -1.0000000000
  end;



           ************************************************************
           *        Program running with 4 parallel MPI-processes     *
           *              working on a common directory               *
           ************************************************************
------------------------------------------------------------------------------
                           ORCA GTO INTEGRAL CALCULATION
                           -- RI-GTO INTEGRALS CHOSEN --
------------------------------------------------------------------------------
------------------------------------------------------------------------------
                   ___                                                        
                  /   \      - P O W E R E D   B Y -                         
                 /     \                                                     
                 |  |  |   _    _      __       _____    __    __             
                 |  |  |  | |  | |    /  \     |  _  \  |  |  /  |          
                  \  \/   | |  | |   /    \    | | | |  |  | /  /          
                 / \  \   | |__| |  /  /\  \   | |_| |  |  |/  /          
                |  |  |   |  __  | /  /__\  \  |    /   |      \           
                |  |  |   | |  | | |   __   |  |    \   |  |\   \          
                \     /   | |  | | |  |  |  |  | |\  \  |  | \   \       
                 \___/    |_|  |_| |__|  |__|  |_| \__\ |__|  \__/        
                                                                              
                      - O R C A' S   B I G   F R I E N D -                    
                                      &                                       
                       - I N T E G R A L  F E E D E R -                       
                                                                              
 v1 FN, 2020, v2 2021                                                         
------------------------------------------------------------------------------


Reading SHARK input file inpS.SHARKINP.tmp ... ok
----------------------
SHARK INTEGRAL PACKAGE
----------------------

Number of atoms                             ...     73
Number of basis functions                   ...    713
Number of shells                            ...    335
Maximum angular momentum                    ...      2
Integral batch strategy                     ... SHARK/LIBINT Hybrid
RI-J (if used) integral strategy            ... SPLIT-RIJ (Revised 2003 algorithm where possible)
Printlevel                                  ...      1
Contraction scheme used                     ... SEGMENTED contraction
Coulomb Range Separation                    ... NOT USED
Exchange Range Separation                   ... NOT USED
Finite Nucleus Model                        ... NOT USED
Auxiliary Coulomb fitting basis             ... AVAILABLE
   # of basis functions in Aux-J            ...   1905
   # of shells in Aux-J                     ...    655
   Maximum angular momentum in Aux-J        ...      4
Auxiliary J/K fitting basis                 ... NOT available
Auxiliary Correlation fitting basis         ... NOT available
Auxiliary 'external' fitting basis          ... NOT available
Integral threshold                          ...     3.000000e-11
Primitive cut-off                           ...     1.000000e-12
Primitive pair pre-selection threshold      ...     1.000000e-12

Calculating pre-screening integrals         ... done (  0.0 sec) Dimension = 335
Organizing shell pair data                  ... done (  0.1 sec)
Shell pair information
Total number of shell pairs                 ...     56280
Shell pairs after pre-screening             ...     31944
Total number of primitive shell pairs       ...    225367
Primitive shell pairs kept                  ...     75050
          la=0 lb=0:   9805 shell pairs
          la=1 lb=0:  13136 shell pairs
          la=1 lb=1:   4271 shell pairs
          la=2 lb=0:   2780 shell pairs
          la=2 lb=1:   1758 shell pairs
          la=2 lb=2:    194 shell pairs

Calculating one electron integrals          ... done (  0.1 sec)
Calculating RI/J V-Matrix + Cholesky decomp.... done (  0.1 sec)
Calculating Nuclear repulsion               ... done (  0.0 sec) ENN=   2788.212302160256 Eh

SHARK setup successfully completed in   0.6 seconds

Maximum memory used throughout the entire GTOINT-calculation: 61.4 MB


           ************************************************************
           *        Program running with 4 parallel MPI-processes     *
           *              working on a common directory               *
           ************************************************************
-------------------------------------------------------------------------------
                                 ORCA SCF
-------------------------------------------------------------------------------

------------
SCF SETTINGS
------------
Hamiltonian:
 Density Functional     Method          .... DFT(GTOs)
 Exchange Functional    Exchange        .... revTPSS
 Correlation Functional Correlation     .... revTPSS
 LDA part of GGA corr.  LDAOpt          .... PW91-LDA
 Gradients option       PostSCFGGA      .... off
   Density functional embedding theory  .... OFF
 RI-approximation to the Coulomb term is turned on
   Number of AuxJ basis functions       .... 1905


General Settings:
 Integral files         IntName         .... inpS
 Hartree-Fock type      HFTyp           .... RHF
 Total Charge           Charge          ....    0
 Multiplicity           Mult            ....    1
 Number of Electrons    NEL             ....  220
 Basis Dimension        Dim             ....  713
 Nuclear Repulsion      ENuc            ....   2788.2123021603 Eh

Convergence Acceleration:
 DIIS                   CNVDIIS         .... on
   Start iteration      DIISMaxIt       ....    12
   Startup error        DIISStart       ....  0.200000
   # of expansion vecs  DIISMaxEq       ....     5
   Bias factor          DIISBfac        ....   1.050
   Max. coefficient     DIISMaxC        ....  10.000
 Trust-Rad. Augm. Hess. CNVTRAH         .... auto
   Auto Start mean grad. ratio tolernc. ....  1.125000
   Auto Start start iteration           ....    20
   Auto Start num. interpolation iter.  ....    10
   Max. Number of Micro iterations      ....    16
   Max. Number of Macro iterations      .... Maxiter - #DIIS iter
   Number of Davidson start vectors     ....     2
   Converg. threshold I  (grad. norm)   ....   1.000e-04
   Converg. threshold II (energy diff.) ....   1.000e-07
   Grad. Scal. Fac. for Micro threshold ....   0.100
   Minimum threshold for Micro iter.    ....   0.010
   NR start threshold (gradient norm)   ....   0.001
   Initial trust radius                 ....   0.400
   Minimum AH scaling param. (alpha)    ....   1.000
   Maximum AH scaling param. (alpha)    .... 1000.000
   Orbital update algorithm             .... Taylor
   White noise on init. David. guess    .... on
   Maximum white noise                  ....   0.010
   Quad. conv. algorithm                .... NR
 SOSCF                  CNVSOSCF        .... off
 Level Shifting         CNVShift        .... on
   Level shift para.    LevelShift      ....    0.2500
   Turn off err/grad.   ShiftErr        ....    0.0010
 Zerner damping         CNVZerner       .... off
 Static damping         CNVDamp         .... on
   Fraction old density DampFac         ....    0.7000
   Max. Damping (<1)    DampMax         ....    0.9800
   Min. Damping (>=0)   DampMin         ....    0.0000
   Turn off err/grad.   DampErr         ....    0.1000
 Fernandez-Rico         CNVRico         .... off

SCF Procedure:
 Maximum # iterations   MaxIter         ....   125
 SCF integral mode      SCFMode         .... Direct
   Integral package                     .... SHARK and LIBINT hybrid scheme
 Reset frequency        DirectResetFreq ....    20
 Integral Threshold     Thresh          ....  3.000e-11 Eh
 Primitive CutOff       TCut            ....  1.000e-12 Eh

Convergence Tolerance:
 Convergence Check Mode ConvCheckMode   .... Total+1el-Energy
 Convergence forced     ConvForced      .... 0
 Energy Change          TolE            ....  1.000e-07 Eh
 1-El. energy change                    ....  1.000e-04 Eh
 DIIS Error             TolErr          ....  1.000e-07


Diagonalization of the overlap matrix:
Smallest eigenvalue                        ... 5.017e-04
Time for diagonalization                   ...    0.062 sec
Threshold for overlap eigenvalues          ... 1.000e-08
Number of eigenvalues below threshold      ... 0
Time for construction of square roots      ...    0.074 sec
Total time needed                          ...    0.138 sec

Time for model grid setup =    0.783 sec

------------------------------
INITIAL GUESS: MODEL POTENTIAL
------------------------------
Loading Hartree-Fock densities                     ... done
Calculating cut-offs                               ... done
Initializing the effective Hamiltonian             ... done
Setting up the integral package (SHARK)            ... done
Starting the Coulomb interaction                   ... done (   0.7 sec)
Reading the grid                                   ... done
Mapping shells                                     ... done
Starting the XC term evaluation                    ... done (   0.4 sec)
  promolecular density results
     # of electrons  =    219.983947309
     EX              =   -164.431975376
     EC              =     -7.325106018
     EX+EC           =   -171.757081394
Transforming the Hamiltonian                       ... done (   0.1 sec)
Diagonalizing the Hamiltonian                      ... done (   0.1 sec)
Back transforming the eigenvectors                 ... done (   0.0 sec)
Now organizing SCF variables                       ... done
                      ------------------
                      INITIAL GUESS DONE (   2.0 sec)
                      ------------------
-------------------
DFT GRID GENERATION
-------------------

General Integration Accuracy     IntAcc      ... 4.388
Radial Grid Type                 RadialGrid  ... OptM3 with GC (2021)
Angular Grid (max. ang.)         AngularGrid ... 4 (Lebedev-302)
Angular grid pruning method      GridPruning ... 4 (adaptive)
Weight generation scheme         WeightScheme... Becke
Basis function cutoff            BFCut       ... 1.0000e-11
Integration weight cutoff        WCut        ... 1.0000e-14
Angular grids for H and He will be reduced by one unit
Partially contracted basis set               ... off
Rotationally invariant grid construction     ... off

Total number of grid points                  ...   309829
Total number of batches                      ...     4877
Average number of points per batch           ...       63
Average number of grid points per atom       ...     4244
Time for grid setup =    3.302 sec


--------------------
CPCM SOLVATION MODEL
--------------------
CPCM parameters:
  Epsilon                                         ...       4.9000
  Refrac                                          ...       1.4500
  Rsolv                                           ...       1.3000
  Surface type                                    ... GAUSSIAN VDW
  Epsilon function type                           ...         CPCM
Radii:
 Radius for C  used is    3.8550 Bohr (=   2.0400 Ang.)
 Radius for H  used is    2.4944 Bohr (=   1.3200 Ang.)
 Radius for O  used is    3.4469 Bohr (=   1.8240 Ang.)
Calculating surface                               ...        done! (  0.0s)
GEPOL surface points                              ...         3655
GEPOL Volume                                      ...    3601.3151
GEPOL Surface-area                                ...    1787.9583
Calculating surface distance matrix               ...        done! (  0.1s)
Performing Cholesky decomposition & store         ...        done! (  0.5s)
Overall time for CPCM initialization              ...                 0.6s
--------------
SCF ITERATIONS
--------------
ITER       Energy         Delta-E        Max-DP      RMS-DP      [F,P]     Damp
               ***  Starting incremental Fock matrix formation  ***

  HOMO= 109 E= -1.857 eV LUMO=  7.832 eV gap=   9.688 eV
  0  -1167.5243583808   0.000000000000 0.05315690  0.00083010  0.2612560 0.7000

  HOMO= 109 E= -3.342 eV LUMO=  6.718 eV gap=  10.061 eV
  1  -1167.8978181696  -0.373459788875 0.02894023  0.00061314  0.1017736 0.7000
                               ***Turning on DIIS***

  HOMO= 109 E= -4.320 eV LUMO=  5.827 eV gap=  10.147 eV
  2  -1168.0444289234  -0.146610753756 0.05171952  0.00101161  0.0306682 0.0000

  HOMO= 109 E= -4.948 eV LUMO=  5.235 eV gap=  10.183 eV
  3  -1168.2415974662  -0.197168542795 0.02320987  0.00047245  0.0543077 0.0000

  HOMO= 109 E= -4.986 eV LUMO=  5.198 eV gap=  10.183 eV
  4  -1168.3088629512  -0.067265485028 0.00746973  0.00015166  0.0103895 0.0000

  HOMO= 109 E= -4.936 eV LUMO=  5.255 eV gap=  10.190 eV
  5  -1168.3119338679  -0.003070916655 0.00313058  0.00005683  0.0092948 0.0000

  HOMO= 109 E= -4.917 eV LUMO=  5.271 eV gap=  10.188 eV
  6  -1168.3122006301  -0.000266762245 0.00124567  0.00001920  0.0029315 0.0000

  HOMO= 109 E= -4.919 eV LUMO= -1.534 eV gap=   3.385 eV
  7  -1168.3122211473  -0.000020517192 0.00074114  0.00001169  0.0005338 0.0000

  HOMO= 109 E= -4.917 eV LUMO= -1.532 eV gap=   3.385 eV
  8  -1168.3122240348  -0.000002887492 0.00027954  0.00000298  0.0003784 0.0000

  HOMO= 109 E= -4.915 eV LUMO= -1.530 eV gap=   3.385 eV
  9  -1168.3122246982  -0.000000663382 0.00017475  0.00000158  0.0002774 0.0000

  HOMO= 109 E= -4.915 eV LUMO= -1.530 eV gap=   3.385 eV
 10  -1168.3122249571  -0.000000258882 0.00005985  0.00000070  0.0001082 0.0000

  HOMO= 109 E= -4.915 eV LUMO= -1.531 eV gap=   3.385 eV
 11  -1168.3122249948  -0.000000037761 0.00002521  0.00000027  0.0000306 0.0000

  HOMO= 109 E= -4.915 eV LUMO= -1.531 eV gap=   3.385 eV
 12  -1168.3122249797   0.000000015088 0.00000964  0.00000011  0.0000144 0.0000

  HOMO= 109 E= -4.915 eV LUMO= -1.531 eV gap=   3.385 eV
 13  -1168.3122249938  -0.000000014013 0.00000485  0.00000005  0.0000085 0.0000
                 **** Energy Check signals convergence ****

               *****************************************************
               *                     SUCCESS                       *
               *           SCF CONVERGED AFTER  14 CYCLES          *
               *****************************************************


----------------
TOTAL SCF ENERGY
----------------

Total Energy       :        -1168.31222501 Eh          -31791.39189 eV

Components:
Nuclear Repulsion  :         2788.21230216 Eh           75871.11395 eV
Electronic Energy  :        -3956.52452717 Eh         -107662.50584 eV
One Electron Energy:        -7122.85064970 Eh         -193822.61993 eV
Two Electron Energy:         3166.32612253 Eh           86160.11409 eV
CPCM Dielectric    :           -0.01026746 Eh              -0.27939 eV

Virial components:
Potential Energy   :        -2330.42173396 Eh          -63413.99929 eV
Kinetic Energy     :         1162.10950895 Eh           31622.60740 eV
Virial Ratio       :            2.00533746


DFT components:
N(Alpha)           :      110.000190324033 electrons
N(Beta)            :      110.000190324033 electrons
N(Total)           :      220.000380648067 electrons
E(X)               :     -169.585184300006 Eh       
E(C)               :       -7.442353041781 Eh       
E(XC)              :     -177.027537341787 Eh       
DFET-embed. en.    :        0.000000000000 Eh       
CPCM Solvation Model Properties:
Surface-charge          :           -0.04497595
Charge-correction       :           -0.00002767 Eh              -0.00075 eV
Free-energy (cav+disp)  :  This term is not implemented in the current solvation scheme

---------------
SCF CONVERGENCE
---------------

  Last Energy change         ...   -1.7720e-08  Tolerance :   1.0000e-07
  Last MAX-Density change    ...    2.5446e-06  Tolerance :   1.0000e-05
  Last RMS-Density change    ...    2.4146e-08  Tolerance :   1.0000e-06
  Last DIIS Error            ...    2.7082e-06  Tolerance :   1.0000e-07

             **** THE GBW FILE WAS UPDATED (inpS.gbw) ****
             **** DENSITY inpS.scfp WAS UPDATED ****
             **** ENERGY FILE WAS UPDATED (inpS.en.tmp) ****
             **** THE GBW FILE WAS UPDATED (inpS.gbw) ****
             **** DENSITY inpS.scfp WAS UPDATED ****
----------------
ORBITAL ENERGIES
----------------

  NO   OCC          E(Eh)            E(eV) 
   0   2.0000     -18.905574      -514.4468 
   1   2.0000     -10.057057      -273.6664 
   2   2.0000     -10.015851      -272.5452 
   3   2.0000     -10.013421      -272.4790 
   4   2.0000     -10.013339      -272.4768 
   5   2.0000     -10.011219      -272.4191 
   6   2.0000     -10.010208      -272.3916 
   7   2.0000     -10.010098      -272.3886 
   8   2.0000     -10.009503      -272.3724 
   9   2.0000     -10.008246      -272.3382 
  10   2.0000     -10.007996      -272.3314 
  11   2.0000     -10.007801      -272.3261 
  12   2.0000     -10.006738      -272.2972 
  13   2.0000     -10.006553      -272.2922 
  14   2.0000     -10.005443      -272.2619 
  15   2.0000     -10.005050      -272.2512 
  16   2.0000     -10.004137      -272.2264 
  17   2.0000     -10.000957      -272.1399 
  18   2.0000     -10.000203      -272.1194 
  19   2.0000      -9.998893      -272.0837 
  20   2.0000      -9.998317      -272.0680 
  21   2.0000      -9.998022      -272.0600 
  22   2.0000      -9.997080      -272.0344 
  23   2.0000      -9.997021      -272.0328 
  24   2.0000      -9.996390      -272.0156 
  25   2.0000      -9.996329      -272.0139 
  26   2.0000      -9.995774      -271.9989 
  27   2.0000      -9.994799      -271.9723 
  28   2.0000      -9.993547      -271.9383 
  29   2.0000      -0.955832       -26.0095 
  30   2.0000      -0.806954       -21.9583 
  31   2.0000      -0.790978       -21.5236 
  32   2.0000      -0.770132       -20.9564 
  33   2.0000      -0.756380       -20.5822 
  34   2.0000      -0.734106       -19.9760 
  35   2.0000      -0.727375       -19.7929 
  36   2.0000      -0.708442       -19.2777 
  37   2.0000      -0.707989       -19.2654 
  38   2.0000      -0.693496       -18.8710 
  39   2.0000      -0.675261       -18.3748 
  40   2.0000      -0.657569       -17.8934 
  41   2.0000      -0.653285       -17.7768 
  42   2.0000      -0.634909       -17.2768 
  43   2.0000      -0.628975       -17.1153 
  44   2.0000      -0.622762       -16.9462 
  45   2.0000      -0.616037       -16.7632 
  46   2.0000      -0.590333       -16.0638 
  47   2.0000      -0.588302       -16.0085 
  48   2.0000      -0.558077       -15.1860 
  49   2.0000      -0.548952       -14.9377 
  50   2.0000      -0.547339       -14.8939 
  51   2.0000      -0.535602       -14.5745 
  52   2.0000      -0.526183       -14.3182 
  53   2.0000      -0.514937       -14.0121 
  54   2.0000      -0.491024       -13.3614 
  55   2.0000      -0.477451       -12.9921 
  56   2.0000      -0.472144       -12.8477 
  57   2.0000      -0.463909       -12.6236 
  58   2.0000      -0.451193       -12.2776 
  59   2.0000      -0.441015       -12.0006 
  60   2.0000      -0.432425       -11.7669 
  61   2.0000      -0.425509       -11.5787 
  62   2.0000      -0.422671       -11.5015 
  63   2.0000      -0.415153       -11.2969 
  64   2.0000      -0.413481       -11.2514 
  65   2.0000      -0.406489       -11.0611 
  66   2.0000      -0.404699       -11.0124 
  67   2.0000      -0.395604       -10.7649 
  68   2.0000      -0.395456       -10.7609 
  69   2.0000      -0.392540       -10.6816 
  70   2.0000      -0.386318       -10.5122 
  71   2.0000      -0.382172       -10.3994 
  72   2.0000      -0.378076       -10.2880 
  73   2.0000      -0.373592       -10.1659 
  74   2.0000      -0.371750       -10.1158 
  75   2.0000      -0.365714        -9.9516 
  76   2.0000      -0.357524        -9.7287 
  77   2.0000      -0.356940        -9.7128 
  78   2.0000      -0.352793        -9.6000 
  79   2.0000      -0.350821        -9.5463 
  80   2.0000      -0.344825        -9.3832 
  81   2.0000      -0.344407        -9.3718 
  82   2.0000      -0.342014        -9.3067 
  83   2.0000      -0.336255        -9.1500 
  84   2.0000      -0.332667        -9.0523 
  85   2.0000      -0.328383        -8.9358 
  86   2.0000      -0.324080        -8.8187 
  87   2.0000      -0.320369        -8.7177 
  88   2.0000      -0.316352        -8.6084 
  89   2.0000      -0.312677        -8.5084 
  90   2.0000      -0.311060        -8.4644 
  91   2.0000      -0.306138        -8.3304 
  92   2.0000      -0.302152        -8.2220 
  93   2.0000      -0.293603        -7.9893 
  94   2.0000      -0.289699        -7.8831 
  95   2.0000      -0.287925        -7.8348 
  96   2.0000      -0.284280        -7.7357 
  97   2.0000      -0.282871        -7.6973 
  98   2.0000      -0.279220        -7.5980 
  99   2.0000      -0.277963        -7.5637 
 100   2.0000      -0.276599        -7.5266 
 101   2.0000      -0.275652        -7.5009 
 102   2.0000      -0.269167        -7.3244 
 103   2.0000      -0.267660        -7.2834 
 104   2.0000      -0.260803        -7.0968 
 105   2.0000      -0.248195        -6.7537 
 106   2.0000      -0.233320        -6.3490 
 107   2.0000      -0.227278        -6.1846 
 108   2.0000      -0.212713        -5.7882 
 109   2.0000      -0.180630        -4.9152 
 110   0.0000      -0.056247        -1.5305 
 111   0.0000      -0.013151        -0.3579 
 112   0.0000      -0.006256        -0.1702 
 113   0.0000       0.032709         0.8900 
 114   0.0000       0.040305         1.0968 
 115   0.0000       0.042914         1.1678 
 116   0.0000       0.046359         1.2615 
 117   0.0000       0.048745         1.3264 
 118   0.0000       0.051082         1.3900 
 119   0.0000       0.056640         1.5413 
 120   0.0000       0.062286         1.6949 
 121   0.0000       0.067247         1.8299 
 122   0.0000       0.072322         1.9680 
 123   0.0000       0.073181         1.9914 
 124   0.0000       0.075031         2.0417 
 125   0.0000       0.077591         2.1113 
 126   0.0000       0.082852         2.2545 
 127   0.0000       0.087774         2.3885 
 128   0.0000       0.089030         2.4226 
 129   0.0000       0.093921         2.5557 
 130   0.0000       0.097255         2.6465 
 131   0.0000       0.102439         2.7875 
 132   0.0000       0.103327         2.8117 
 133   0.0000       0.105333         2.8663 
 134   0.0000       0.106708         2.9037 
 135   0.0000       0.112575         3.0633 
 136   0.0000       0.116032         3.1574 
 137   0.0000       0.117439         3.1957 
 138   0.0000       0.120095         3.2680 
 139   0.0000       0.124134         3.3779 
 140   0.0000       0.126019         3.4291 
 141   0.0000       0.130192         3.5427 
 142   0.0000       0.132156         3.5961 
 143   0.0000       0.135341         3.6828 
 144   0.0000       0.139866         3.8060 
 145   0.0000       0.141871         3.8605 
 146   0.0000       0.144909         3.9432 
 147   0.0000       0.145115         3.9488 
 148   0.0000       0.147148         4.0041 
 149   0.0000       0.149623         4.0714 
 150   0.0000       0.155083         4.2200 
 151   0.0000       0.157693         4.2911 
 152   0.0000       0.161370         4.3911 
 153   0.0000       0.164585         4.4786 
 154   0.0000       0.166792         4.5387 
 155   0.0000       0.170843         4.6489 
 156   0.0000       0.177233         4.8228 
 157   0.0000       0.178630         4.8608 
 158   0.0000       0.180289         4.9059 
 159   0.0000       0.183183         4.9847 
 160   0.0000       0.185813         5.0562 
 161   0.0000       0.193024         5.2524 
 162   0.0000       0.197183         5.3656 
 163   0.0000       0.199113         5.4181 
 164   0.0000       0.200744         5.4625 
 165   0.0000       0.202985         5.5235 
 166   0.0000       0.208055         5.6615 
 167   0.0000       0.211598         5.7579 
 168   0.0000       0.215858         5.8738 
 169   0.0000       0.219811         5.9814 
 170   0.0000       0.219991         5.9863 
 171   0.0000       0.228817         6.2264 
 172   0.0000       0.229340         6.2407 
 173   0.0000       0.232696         6.3320 
 174   0.0000       0.238352         6.4859 
 175   0.0000       0.246318         6.7026 
 176   0.0000       0.247810         6.7433 
 177   0.0000       0.257593         7.0095 
 178   0.0000       0.263041         7.1577 
 179   0.0000       0.270895         7.3714 
 180   0.0000       0.273758         7.4493 
 181   0.0000       0.277762         7.5583 
 182   0.0000       0.290162         7.8957 
 183   0.0000       0.294381         8.0105 
 184   0.0000       0.298297         8.1171 
 185   0.0000       0.331371         9.0171 
 186   0.0000       0.334944         9.1143 
 187   0.0000       0.340541         9.2666 
 188   0.0000       0.346724         9.4348 
 189   0.0000       0.350008         9.5242 
 190   0.0000       0.355604         9.6765 
 191   0.0000       0.357897         9.7389 
 192   0.0000       0.362845         9.8735 
 193   0.0000       0.372644        10.1402 
 194   0.0000       0.374401        10.1880 
 195   0.0000       0.377119        10.2619 
 196   0.0000       0.383659        10.4399 
 197   0.0000       0.386247        10.5103 
 198   0.0000       0.391106        10.6425 
 199   0.0000       0.398825        10.8526 
 200   0.0000       0.399898        10.8818 
 201   0.0000       0.407632        11.0922 
 202   0.0000       0.412024        11.2117 
 203   0.0000       0.414763        11.2863 
 204   0.0000       0.420670        11.4470 
 205   0.0000       0.435448        11.8491 
 206   0.0000       0.437035        11.8923 
 207   0.0000       0.448505        12.2044 
 208   0.0000       0.452804        12.3214 
 209   0.0000       0.457302        12.4438 
 210   0.0000       0.464918        12.6511 
 211   0.0000       0.467749        12.7281 
 212   0.0000       0.474983        12.9250 
 213   0.0000       0.476296        12.9607 
 214   0.0000       0.478521        13.0212 
 215   0.0000       0.485100        13.2002 
 216   0.0000       0.489074        13.3084 
 217   0.0000       0.491615        13.3775 
 218   0.0000       0.499529        13.5929 
 219   0.0000       0.504506        13.7283 
 220   0.0000       0.507708        13.8154 
 221   0.0000       0.512640        13.9496 
 222   0.0000       0.516102        14.0438 
 223   0.0000       0.525116        14.2891 
 224   0.0000       0.532407        14.4875 
 225   0.0000       0.532788        14.4979 
 226   0.0000       0.538660        14.6577 
 227   0.0000       0.540925        14.7193 
 228   0.0000       0.543765        14.7966 
 229   0.0000       0.550163        14.9707 
 230   0.0000       0.550998        14.9934 
 231   0.0000       0.554473        15.0880 
 232   0.0000       0.557471        15.1696 
 233   0.0000       0.562895        15.3172 
 234   0.0000       0.567241        15.4354 
 235   0.0000       0.568454        15.4684 
 236   0.0000       0.571372        15.5478 
 237   0.0000       0.574517        15.6334 
 238   0.0000       0.575681        15.6651 
 239   0.0000       0.579322        15.7641 
 240   0.0000       0.583807        15.8862 
 241   0.0000       0.586547        15.9607 
 242   0.0000       0.588181        16.0052 
 243   0.0000       0.590645        16.0723 
 244   0.0000       0.594740        16.1837 
 245   0.0000       0.594939        16.1891 
 246   0.0000       0.598789        16.2939 
 247   0.0000       0.600795        16.3485 
 248   0.0000       0.600981        16.3535 
 249   0.0000       0.604632        16.4529 
 250   0.0000       0.605826        16.4854 
 251   0.0000       0.609029        16.5725 
 252   0.0000       0.612116        16.6565 
 253   0.0000       0.613385        16.6910 
 254   0.0000       0.616574        16.7778 
 255   0.0000       0.619188        16.8490 
 256   0.0000       0.622546        16.9403 
 257   0.0000       0.626601        17.0507 
 258   0.0000       0.627033        17.0624 
 259   0.0000       0.631157        17.1746 
 260   0.0000       0.632756        17.2182 
 261   0.0000       0.633907        17.2495 
 262   0.0000       0.638800        17.3826 
 263   0.0000       0.642899        17.4942 
 264   0.0000       0.644443        17.5362 
 265   0.0000       0.645824        17.5738 
 266   0.0000       0.651749        17.7350 
 267   0.0000       0.654214        17.8021 
 268   0.0000       0.657401        17.8888 
 269   0.0000       0.661869        18.0104 
 270   0.0000       0.662628        18.0310 
 271   0.0000       0.663156        18.0454 
 272   0.0000       0.667767        18.1709 
 273   0.0000       0.670777        18.2528 
 274   0.0000       0.673901        18.3378 
 275   0.0000       0.680244        18.5104 
 276   0.0000       0.682916        18.5831 
 277   0.0000       0.683593        18.6015 
 278   0.0000       0.686415        18.6783 
 279   0.0000       0.693554        18.8726 
 280   0.0000       0.695637        18.9292 
 281   0.0000       0.699035        19.0217 
 282   0.0000       0.699097        19.0234 
 283   0.0000       0.705216        19.1899 
 284   0.0000       0.707204        19.2440 
 285   0.0000       0.713766        19.4226 
 286   0.0000       0.721281        19.6271 
 287   0.0000       0.726326        19.7643 
 288   0.0000       0.733291        19.9539 
 289   0.0000       0.735452        20.0127 
 290   0.0000       0.736931        20.0529 
 291   0.0000       0.741932        20.1890 
 292   0.0000       0.745118        20.2757 
 293   0.0000       0.756044        20.5730 
 294   0.0000       0.759372        20.6636 
 295   0.0000       0.764031        20.7903 
 296   0.0000       0.776093        21.1186 
 297   0.0000       0.781280        21.2597 
 298   0.0000       0.783033        21.3074 
 299   0.0000       0.793303        21.5869 
 300   0.0000       0.797043        21.6887 
 301   0.0000       0.808230        21.9930 
 302   0.0000       0.829999        22.5854 
 303   0.0000       0.838404        22.8141 
 304   0.0000       0.838809        22.8252 
 305   0.0000       0.853560        23.2266 
 306   0.0000       0.871190        23.7063 
 307   0.0000       0.879610        23.9354 
 308   0.0000       0.889686        24.2096 
 309   0.0000       0.913465        24.8567 
 310   0.0000       0.917014        24.9532 
 311   0.0000       0.931969        25.3602 
 312   0.0000       0.940926        25.6039 
 313   0.0000       0.953211        25.9382 
 314   0.0000       0.968883        26.3646 
 315   0.0000       0.981831        26.7170 
 316   0.0000       0.992756        27.0143 
 317   0.0000       1.030721        28.0474 
 318   0.0000       1.032213        28.0879 
 319   0.0000       1.040928        28.3251 
 320   0.0000       1.044861        28.4321 
 321   0.0000       1.066741        29.0275 
 322   0.0000       1.075011        29.2525 
 323   0.0000       1.098069        29.8800 
 324   0.0000       1.125911        30.6376 
 325   0.0000       1.129429        30.7333 
 326   0.0000       1.144766        31.1507 
 327   0.0000       1.151104        31.3231 
 328   0.0000       1.176816        32.0228 
 329   0.0000       1.191409        32.4199 
 330   0.0000       1.198751        32.6197 
 331   0.0000       1.214951        33.0605 
 332   0.0000       1.230790        33.4915 
 333   0.0000       1.256297        34.1856 
 334   0.0000       1.262595        34.3569 
 335   0.0000       1.266934        34.4750 
 336   0.0000       1.276043        34.7229 
 337   0.0000       1.284497        34.9529 
 338   0.0000       1.286282        35.0015 
 339   0.0000       1.299522        35.3618 
 340   0.0000       1.325413        36.0663 
 341   0.0000       1.332901        36.2701 
 342   0.0000       1.342257        36.5247 
 343   0.0000       1.357479        36.9389 
 344   0.0000       1.362430        37.0736 
 345   0.0000       1.379085        37.5268 
 346   0.0000       1.389747        37.8169 
 347   0.0000       1.402511        38.1643 
 348   0.0000       1.406655        38.2770 
 349   0.0000       1.411891        38.4195 
 350   0.0000       1.416512        38.5453 
 351   0.0000       1.434427        39.0327 
 352   0.0000       1.442142        39.2427 
 353   0.0000       1.454385        39.5758 
 354   0.0000       1.460253        39.7355 
 355   0.0000       1.468452        39.9586 
 356   0.0000       1.478345        40.2278 
 357   0.0000       1.486269        40.4434 
 358   0.0000       1.506175        40.9851 
 359   0.0000       1.509346        41.0714 
 360   0.0000       1.516129        41.2560 
 361   0.0000       1.521703        41.4076 
 362   0.0000       1.532789        41.7093 
 363   0.0000       1.548240        42.1298 
 364   0.0000       1.559887        42.4467 
 365   0.0000       1.564377        42.5689 
 366   0.0000       1.570812        42.7440 
 367   0.0000       1.576176        42.8899 
 368   0.0000       1.592887        43.3447 
 369   0.0000       1.599574        43.5266 
 370   0.0000       1.607623        43.7456 
 371   0.0000       1.609613        43.7998 
 372   0.0000       1.625903        44.2431 
 373   0.0000       1.629118        44.3306 
 374   0.0000       1.637333        44.5541 
 375   0.0000       1.641626        44.6709 
 376   0.0000       1.653037        44.9814 
 377   0.0000       1.665557        45.3221 
 378   0.0000       1.675245        45.5857 
 379   0.0000       1.685359        45.8610 
 380   0.0000       1.693503        46.0826 
 381   0.0000       1.696686        46.1692 
 382   0.0000       1.702650        46.3315 
 383   0.0000       1.703894        46.3653 
 384   0.0000       1.719574        46.7920 
 385   0.0000       1.725942        46.9653 
 386   0.0000       1.729011        47.0488 
 387   0.0000       1.734247        47.1913 
 388   0.0000       1.735532        47.2262 
 389   0.0000       1.739296        47.3286 
 390   0.0000       1.745318        47.4925 
 391   0.0000       1.749172        47.5974 
 392   0.0000       1.752745        47.6946 
 393   0.0000       1.765525        48.0424 
 394   0.0000       1.768031        48.1106 
 395   0.0000       1.771140        48.1952 
 396   0.0000       1.774801        48.2948 
 397   0.0000       1.782652        48.5084 
 398   0.0000       1.787609        48.6433 
 399   0.0000       1.788728        48.6738 
 400   0.0000       1.799343        48.9626 
 401   0.0000       1.802008        49.0351 
 402   0.0000       1.806419        49.1552 
 403   0.0000       1.810872        49.2763 
 404   0.0000       1.820335        49.5338 
 405   0.0000       1.833841        49.9013 
 406   0.0000       1.837197        49.9927 
 407   0.0000       1.841631        50.1133 
 408   0.0000       1.845350        50.2145 
 409   0.0000       1.850531        50.3555 
 410   0.0000       1.865075        50.7513 
 411   0.0000       1.873397        50.9777 
 412   0.0000       1.875999        51.0485 
 413   0.0000       1.887024        51.3485 
 414   0.0000       1.895313        51.5741 
 415   0.0000       1.896180        51.5977 
 416   0.0000       1.900369        51.7117 
 417   0.0000       1.906570        51.8804 
 418   0.0000       1.912637        52.0455 
 419   0.0000       1.915270        52.1171 
 420   0.0000       1.919449        52.2309 
 421   0.0000       1.934256        52.6338 
 422   0.0000       1.937867        52.7320 
 423   0.0000       1.946022        52.9539 
 424   0.0000       1.949163        53.0394 
 425   0.0000       1.951613        53.1061 
 426   0.0000       1.964218        53.4491 
 427   0.0000       1.971151        53.6377 
 428   0.0000       1.973993        53.7151 
 429   0.0000       1.978121        53.8274 
 430   0.0000       1.983284        53.9679 
 431   0.0000       1.988904        54.1208 
 432   0.0000       1.995741        54.3069 
 433   0.0000       1.997777        54.3623 
 434   0.0000       2.000895        54.4471 
 435   0.0000       2.002708        54.4964 
 436   0.0000       2.011371        54.7322 
 437   0.0000       2.014654        54.8215 
 438   0.0000       2.016594        54.8743 
 439   0.0000       2.025826        55.1255 
 440   0.0000       2.028134        55.1883 
 441   0.0000       2.031360        55.2761 
 442   0.0000       2.037183        55.4346 
 443   0.0000       2.043180        55.5978 
[...]

 --------------
 Nucleus  47H :
 --------------

Diamagnetic contribution to the shielding tensor (ppm) : 
            31.380          3.199        -0.194
             0.263         48.281        -2.836
             0.884         -2.245        41.190

Paramagnetic contribution to the shielding tensor (ppm): 
            -2.625         -2.518         0.996
             0.668        -14.834        -0.475
            -0.867         -1.148        -9.551

Total shielding tensor (ppm): 
            28.755          0.681         0.802
             0.931         33.447        -3.311
             0.017         -3.393        31.639


 Diagonalized sT*s matrix:
 
 sDSO            34.128           38.494           48.229  iso=      40.284
 sPSO            -6.057           -8.760          -12.194  iso=      -9.004
        ---------------  ---------------  ---------------
 Total           28.071           29.734           36.036  iso=      31.280

 --------------
 Nucleus  48H :
 --------------

Diamagnetic contribution to the shielding tensor (ppm) : 
            36.926          0.171        -1.993
            -7.506         37.698         0.065
            -2.459         -1.796        42.838

Paramagnetic contribution to the shielding tensor (ppm): 
            -5.465          1.322         2.098
             9.339         -8.790        -1.315
             1.702          0.069       -13.401

Total shielding tensor (ppm): 
            31.461          1.493         0.105
             1.834         28.908        -1.250
            -0.757         -1.727        29.436


 Diagonalized sT*s matrix:
 
 sDSO            40.670           40.677           36.114  iso=      39.154
 sPSO           -13.325          -10.815           -3.516  iso=      -9.219
        ---------------  ---------------  ---------------
 Total           27.345           29.862           32.598  iso=      29.935

 --------------
 Nucleus  52H :
 --------------

Diamagnetic contribution to the shielding tensor (ppm) : 
            39.397          0.543         2.413
             2.120         34.841       -13.948
             6.757        -10.995        43.039

Paramagnetic contribution to the shielding tensor (ppm): 
            -9.041          3.300        -2.020
             1.397         -7.209        15.043
            -5.043         13.000       -21.233

Total shielding tensor (ppm): 
            30.356          3.843         0.394
             3.518         27.632         1.095
             1.714          2.004        21.806


 Diagonalized sT*s matrix:
 
 sDSO            47.992           31.079           38.205  iso=      39.092
 sPSO           -26.573           -5.891           -5.019  iso=     -12.494
        ---------------  ---------------  ---------------
 Total           21.419           25.189           33.186  iso=      26.598

 --------------
 Nucleus  53H :
 --------------

Diamagnetic contribution to the shielding tensor (ppm) : 
            35.442          1.116         1.666
             0.193         38.500        -6.099
             5.984         -8.898        43.621

Paramagnetic contribution to the shielding tensor (ppm): 
            -9.086          3.405        -2.226
             4.275        -10.266         6.803
            -6.081          9.908       -20.084

Total shielding tensor (ppm): 
            26.356          4.521        -0.560
             4.468         28.234         0.703
            -0.096          1.010        23.537


 Diagonalized sT*s matrix:
 
 sDSO            45.042           34.915           37.606  iso=      39.188
 sPSO           -22.825          -10.916           -5.695  iso=     -13.146
        ---------------  ---------------  ---------------
 Total           22.217           23.999           31.911  iso=      26.042

 --------------
 Nucleus  57H :
 --------------

Diamagnetic contribution to the shielding tensor (ppm) : 
            40.085          3.759        -6.506
             2.378         14.800        -4.460
            -7.554         -2.504        34.271

Paramagnetic contribution to the shielding tensor (ppm): 
            -8.319         -3.798         2.364
            -3.710         12.425         4.766
             3.609          1.579        -4.312

Total shielding tensor (ppm): 
            31.766         -0.040        -4.142
            -1.332         27.224         0.306
            -3.945         -0.926        29.959


 Diagonalized sT*s matrix:
 
 sDSO            24.244           20.533           44.379  iso=      29.719
 sPSO             2.007            7.145           -9.359  iso=      -0.069
        ---------------  ---------------  ---------------
 Total           26.251           27.679           35.019  iso=      29.650

 --------------
 Nucleus  58H :
 --------------

Diamagnetic contribution to the shielding tensor (ppm) : 
            36.874         10.272         3.852
            15.936         22.020         2.581
             6.506          2.085        26.002

Paramagnetic contribution to the shielding tensor (ppm): 
            -3.700         -7.093        -1.271
           -12.164          8.338        -2.336
            -3.404         -1.914         1.545

Total shielding tensor (ppm): 
            33.174          3.178         2.581
             3.773         30.358         0.245
             3.103          0.171        27.546


 Diagonalized sT*s matrix:
 
 sDSO            21.032           17.774           46.091  iso=      28.299
 sPSO             4.910           11.124           -9.852  iso=       2.061
        ---------------  ---------------  ---------------
 Total           25.942           28.897           36.239  iso=      30.359

 --------------
 Nucleus  61H :
 --------------

Diamagnetic contribution to the shielding tensor (ppm) : 
            33.890         -5.200         2.818
           -13.066         24.396       -12.367
             2.235         -5.984        21.484

Paramagnetic contribution to the shielding tensor (ppm): 
            -2.999          1.410        -0.803
             9.363         10.403        12.331
            -0.914          5.471         4.794

Total shielding tensor (ppm): 
            30.891         -3.790         2.015
            -3.703         34.799        -0.036
             1.321         -0.513        26.278


 Diagonalized sT*s matrix:
 
 sDSO            22.884           19.900           36.985  iso=      26.590
 sPSO             2.738            9.262            0.198  iso=       4.066
        ---------------  ---------------  ---------------
 Total           25.623           29.162           37.183  iso=      30.656

 --------------
 Nucleus  62H :
 --------------

Diamagnetic contribution to the shielding tensor (ppm) : 
            34.917          2.787        -4.706
             3.169         21.119        -7.646
             2.859        -10.772        39.729

Paramagnetic contribution to the shielding tensor (ppm): 
            -4.820         -2.493         3.670
            -2.646          7.418         6.034
            -4.167          8.834        -6.686

Total shielding tensor (ppm): 
            30.097          0.294        -1.036
             0.523         28.536        -1.613
            -1.308         -1.938        33.043


 Diagonalized sT*s matrix:
 
 sDSO            17.408           34.628           43.729  iso=      31.922
 sPSO            10.513           -4.920           -9.681  iso=      -1.363
        ---------------  ---------------  ---------------
 Total           27.921           29.708           34.048  iso=      30.559

 --------------
 Nucleus  63H :
 --------------

Diamagnetic contribution to the shielding tensor (ppm) : 
            37.953          6.909         8.101
             7.136         10.214         0.218
             9.600          0.020        24.049

Paramagnetic contribution to the shielding tensor (ppm): 
            -2.781         -5.218        -3.308
            -5.496         18.540        -0.316
            -4.501          0.402         4.904

Total shielding tensor (ppm): 
            35.172          1.691         4.794
             1.640         28.754        -0.097
             5.099          0.422        28.953


 Diagonalized sT*s matrix:
 
 sDSO            17.509           11.328           43.378  iso=      24.072
 sPSO             8.536           17.349           -5.221  iso=       6.888
        ---------------  ---------------  ---------------
 Total           26.045           28.677           38.157  iso=      30.960

 --------------
 Nucleus  64H :
 --------------

Diamagnetic contribution to the shielding tensor (ppm) : 
            24.531         -4.582        -1.171
             7.077         45.456         3.269
             6.946          6.907        28.532

Paramagnetic contribution to the shielding tensor (ppm): 
             3.626          2.757        -0.429
            -8.343         -9.552         0.173
            -8.785         -2.917         0.774

Total shielding tensor (ppm): 
            28.157         -1.825        -1.600
            -1.266         35.904         3.441
            -1.839          3.990        29.307


 Diagonalized sT*s matrix:
 
 sDSO            28.442           25.654           44.424  iso=      32.840
 sPSO            -1.688            2.930           -6.394  iso=      -1.717
        ---------------  ---------------  ---------------
 Total           26.754           28.583           38.030  iso=      31.123

 --------------
 Nucleus  65H :
 --------------

Diamagnetic contribution to the shielding tensor (ppm) : 
            27.305         -0.643        -0.864
             9.467         32.988         0.443
             5.560         -5.439        41.000

Paramagnetic contribution to the shielding tensor (ppm): 
             0.326         -0.266        -0.144
           -10.655         -4.005        -0.793
            -5.483          4.187        -5.220

Total shielding tensor (ppm): 
            27.631         -0.909        -1.008
            -1.188         28.983        -0.350
             0.078         -1.252        35.779


 Diagonalized sT*s matrix:
 
 sDSO            32.703           27.261           41.329  iso=      33.764
 sPSO            -5.715            2.259           -5.443  iso=      -2.967
        ---------------  ---------------  ---------------
 Total           26.988           29.520           35.886  iso=      30.798

 --------------
 Nucleus  66H :
 --------------

Diamagnetic contribution to the shielding tensor (ppm) : 
            40.044          2.418        -2.168
            15.185         39.569         5.357
             5.249          7.416        33.853

Paramagnetic contribution to the shielding tensor (ppm): 
            -3.600          1.194         2.640
           -11.799         -8.879        -3.338
            -5.457         -5.268        -7.345

Total shielding tensor (ppm): 
            36.444          3.612         0.472
             3.385         30.690         2.019
            -0.209          2.148        26.508


 Diagonalized sT*s matrix:
 
 sDSO            29.418           36.417           47.631  iso=      37.822
 sPSO            -3.932           -6.448           -9.444  iso=      -6.608
        ---------------  ---------------  ---------------
 Total           25.487           29.969           38.187  iso=      31.214

 --------------
 Nucleus  67H :
 --------------

Diamagnetic contribution to the shielding tensor (ppm) : 
            34.810          1.562         5.967
            11.588         33.623        -4.234
             8.059         -8.975        34.945

Paramagnetic contribution to the shielding tensor (ppm): 
            -2.717         -0.176        -2.270
           -10.388         -3.706         2.282
            -4.133          7.788        -4.785

Total shielding tensor (ppm): 
            32.092          1.386         3.696
             1.201         29.917        -1.952
             3.926         -1.187        30.161


 Diagonalized sT*s matrix:
 
 sDSO            21.596           40.103           41.679  iso=      34.459
 sPSO             4.514           -9.101           -6.620  iso=      -3.736
        ---------------  ---------------  ---------------
 Total           26.109           31.002           35.059  iso=      30.723

 --------------
 Nucleus  68H :
 --------------

Diamagnetic contribution to the shielding tensor (ppm) : 
            28.951          3.628        -8.426
             8.822         22.047        -1.740
            -9.118         -3.876        33.418

Paramagnetic contribution to the shielding tensor (ppm): 
             0.875         -2.869         4.474
            -7.767          6.216        -0.942
             3.975          2.188         0.639

Total shielding tensor (ppm): 
            29.826          0.760        -3.952
             1.055         28.263        -2.682
            -5.143         -1.687        34.057


 Diagonalized sT*s matrix:
 
 sDSO            24.379           18.347           41.691  iso=      28.139
 sPSO             2.376            9.504           -4.149  iso=       2.577
        ---------------  ---------------  ---------------
 Total           26.755           27.850           37.542  iso=      30.715

 --------------
 Nucleus  69H :
 --------------

Diamagnetic contribution to the shielding tensor (ppm) : 
            22.054          1.326         1.241
            10.117         41.566        -4.598
            -2.328         -3.103        20.908

Paramagnetic contribution to the shielding tensor (ppm): 
             4.501         -1.497        -1.609
            -9.580         -4.178         2.790
             2.363          0.760         7.175

Total shielding tensor (ppm): 
            26.555         -0.171        -0.368
             0.536         37.388        -1.808
             0.035         -2.343        28.083


 Diagonalized sT*s matrix:
 
 sDSO            21.910           20.117           42.502  iso=      28.176
 sPSO             4.627            7.539           -4.668  iso=       2.499
        ---------------  ---------------  ---------------
 Total           26.537           27.655           37.834  iso=      30.676

 --------------
 Nucleus  70H :
 --------------

Diamagnetic contribution to the shielding tensor (ppm) : 
            35.120         -7.351        -8.483
           -15.073         24.936         2.535
           -14.711          2.472        32.165

Paramagnetic contribution to the shielding tensor (ppm): 
            -1.388          5.659         3.543
            13.171          4.917         0.275
            10.102          0.344        -2.912

Total shielding tensor (ppm): 
            33.732         -1.692        -4.940
            -1.902         29.853         2.811
            -4.609          2.816        29.253


 Diagonalized sT*s matrix:
 
 sDSO            25.656           16.996           49.568  iso=      30.740
 sPSO            -0.022           12.284          -11.644  iso=       0.206
        ---------------  ---------------  ---------------
 Total           25.634           29.280           37.924  iso=      30.946

 --------------
 Nucleus  71H :
 --------------

Diamagnetic contribution to the shielding tensor (ppm) : 
            31.740          1.661         4.471
            -7.449         37.803        10.102
            -2.337          7.515        36.978

Paramagnetic contribution to the shielding tensor (ppm): 
             0.390         -0.929        -4.268
             9.486         -7.192        -4.927
             2.981         -2.866        -9.089

Total shielding tensor (ppm): 
            32.130          0.733         0.204
             2.037         30.611         5.175
             0.644          4.649        27.888


 Diagonalized sT*s matrix:
 
 sDSO            29.064           35.623           41.833  iso=      35.507
 sPSO            -4.944           -4.110           -6.837  iso=      -5.297
        ---------------  ---------------  ---------------
 Total           24.121           31.513           34.996  iso=      30.210

 --------------
 Nucleus  72H :
 --------------

Diamagnetic contribution to the shielding tensor (ppm) : 
            28.109         -6.975         0.455
           -12.827         38.696        -2.589
            -3.228         -7.363        35.121

Paramagnetic contribution to the shielding tensor (ppm): 
             2.368          4.368         0.219
            10.700         -5.139        -0.758
             3.513          5.302        -6.392

Total shielding tensor (ppm): 
            30.477         -2.608         0.674
            -2.127         33.557        -3.346
             0.285         -2.061        28.729


 Diagonalized sT*s matrix:
 
 sDSO            28.969           27.119           45.838  iso=      33.975
 sPSO            -1.571            2.431          -10.025  iso=      -3.055
        ---------------  ---------------  ---------------
 Total           27.398           29.551           35.813  iso=      30.921



--------------------------------
CHEMICAL SHIELDING SUMMARY (ppm)
--------------------------------


  Nucleus  Element    Isotropic     Anisotropy
  -------  -------  ------------   ------------
      3       H           29.640          5.467 
      4       H           29.133          5.290 
      8       H           29.570          6.445 
      9       H           29.429          7.721 
     10       H           29.631          8.780 
     11       H           30.533          6.241 
     13       H           28.187          2.732 
     16       H           26.862          5.080 
     17       H           26.522          4.967 
     19       H           25.452         10.685 
     21       H           25.708         15.014 
     24       H           28.893          9.934 
     25       H           29.991          9.495 
     27       H           30.223          7.145 
     28       H           30.145         11.839 
     30       H           29.734          8.011 
     31       H           30.389          7.035 
     33       H           29.759          4.213 
     35       H           31.120         14.876 
     37       H           30.398         10.502 
     38       H           30.294          9.183 
     40       H           30.078         10.064 
     41       H           30.546          9.812 
     42       H           30.547          4.996 
     45       H           31.053          8.232 
     46       H           31.313          9.206 
     47       H           31.280          7.133 
     48       H           29.935          3.994 
     52       H           26.598          9.882 
     53       H           26.042          8.804 
     57       H           29.650          8.054 
     58       H           30.359          8.820 
     61       H           30.656          9.791 
     62       H           30.559          5.233 
     63       H           30.960         10.795 
     64       H           31.123         10.361 
     65       H           30.798          7.632 
     66       H           31.214         10.459 
     67       H           30.723          6.503 
     68       H           30.715         10.239 
     69       H           30.676         10.738 
     70       H           30.946         10.468 
     71       H           30.210          7.179 
     72       H           30.921          7.339 



Maximum memory used throughout the entire EPRNMR-calculation: 141.1 MB

Timings for individual modules:

Sum of individual times         ...      143.588 sec (=   2.393 min)
GTO integral calculation        ...        0.770 sec (=   0.013 min)   0.5 %
SCF iterations                  ...       95.591 sec (=   1.593 min)  66.6 %
EPR/NMR calculation             ...       47.227 sec (=   0.787 min)  32.9 %
                             ****ORCA TERMINATED NORMALLY****
TOTAL RUN TIME: 0 days 0 hours 2 minutes 24 seconds 92 msec
