
                                 *****************
                                 * O   R   C   A *
                                 *****************

                                            #,                                       
                                            ###                                      
                                            ####                                     
                                            #####                                    
                                            ######                                   
                                           ########,                                 
                                     ,,################,,,,,                         
                               ,,#################################,,                 
                          ,,##########################################,,             
                       ,#########################################, ''#####,          
                    ,#############################################,,   '####,        
                  ,##################################################,,,,####,       
                ,###########''''           ''''###############################       
              ,#####''   ,,,,##########,,,,          '''####'''          '####       
            ,##' ,,,,###########################,,,                        '##       
           ' ,,###''''                  '''############,,,                           
         ,,##''                                '''############,,,,        ,,,,,,###''
      ,#''                                            '''#######################'''  
     '                                                          ''''####''''         
             ,#######,   #######,   ,#######,      ##                                
            ,#'     '#,  ##    ##  ,#'     '#,    #''#        ######   ,####,        
            ##       ##  ##   ,#'  ##            #'  '#       #        #'  '#        
            ##       ##  #######   ##           ,######,      #####,   #    #        
            '#,     ,#'  ##    ##  '#,     ,#' ,#      #,         ##   #,  ,#        
             '#######'   ##     ##  '#######'  #'      '#     #####' # '####'        



                  #######################################################
                  #                        -***-                        #
                  #          Department of theory and spectroscopy      #
                  #    Directorship and core code : Frank Neese         #
                  #        Max Planck Institute fuer Kohlenforschung    #
                  #                Kaiser Wilhelm Platz 1               #
                  #                 D-45470 Muelheim/Ruhr               #
                  #                      Germany                        #
                  #                                                     #
                  #                  All rights reserved                #
                  #                        -***-                        #
                  #######################################################


                         Program Version 5.0.2 -  RELEASE  -


 With contributions from (in alphabetic order):
   Daniel Aravena         : Magnetic Suceptibility
   Michael Atanasov       : Ab Initio Ligand Field Theory (pilot matlab implementation)
   Alexander A. Auer      : GIAO ZORA, VPT2 properties, NMR spectrum
   Ute Becker             : Parallelization
   Giovanni Bistoni       : ED, misc. LED, open-shell LED, HFLD
   Martin Brehm           : Molecular dynamics
   Dmytro Bykov           : SCF Hessian
   Vijay G. Chilkuri      : MRCI spin determinant printing, contributions to CSF-ICE
   Dipayan Datta          : RHF DLPNO-CCSD density
   Achintya Kumar Dutta   : EOM-CC, STEOM-CC
   Dmitry Ganyushin       : Spin-Orbit,Spin-Spin,Magnetic field MRCI
   Miquel Garcia          : C-PCM and meta-GGA Hessian, CC/C-PCM, Gaussian charge scheme
   Yang Guo               : DLPNO-NEVPT2, F12-NEVPT2, CIM, IAO-localization
   Andreas Hansen         : Spin unrestricted coupled pair/coupled cluster methods
   Benjamin Helmich-Paris : MC-RPA, TRAH-SCF, COSX integrals
   Lee Huntington         : MR-EOM, pCC
   Robert Izsak           : Overlap fitted RIJCOSX, COSX-SCS-MP3, EOM
   Marcus Kettner         : VPT2
   Christian Kollmar      : KDIIS, OOCD, Brueckner-CCSD(T), CCSD density, CASPT2, CASPT2-K
   Simone Kossmann        : Meta GGA functionals, TD-DFT gradient, OOMP2, MP2 Hessian
   Martin Krupicka        : Initial AUTO-CI
   Lucas Lang             : DCDCAS
   Marvin Lechner         : AUTO-CI (C++ implementation), FIC-MRCC
   Dagmar Lenk            : GEPOL surface, SMD
   Dimitrios Liakos       : Extrapolation schemes; Compound Job, initial MDCI parallelization
   Dimitrios Manganas     : Further ROCIS development; embedding schemes
   Dimitrios Pantazis     : SARC Basis sets
   Anastasios Papadopoulos: AUTO-CI, single reference methods and gradients
   Taras Petrenko         : DFT Hessian,TD-DFT gradient, ASA, ECA, R-Raman, ABS, FL, XAS/XES, NRVS
   Peter Pinski           : DLPNO-MP2, DLPNO-MP2 Gradient
   Christoph Reimann      : Effective Core Potentials
   Marius Retegan         : Local ZFS, SOC
   Christoph Riplinger    : Optimizer, TS searches, QM/MM, DLPNO-CCSD(T), (RO)-DLPNO pert. Triples
   Tobias Risthaus        : Range-separated hybrids, TD-DFT gradient, RPA, STAB
   Michael Roemelt        : Original ROCIS implementation
   Masaaki Saitow         : Open-shell DLPNO-CCSD energy and density
   Barbara Sandhoefer     : DKH picture change effects
   Avijit Sen             : IP-ROCIS
   Kantharuban Sivalingam : CASSCF convergence, NEVPT2, FIC-MRCI
   Bernardo de Souza      : ESD, SOC TD-DFT
   Georgi Stoychev        : AutoAux, RI-MP2 NMR, DLPNO-MP2 response
   Willem Van den Heuvel  : Paramagnetic NMR
   Boris Wezisla          : Elementary symmetry handling
   Frank Wennmohs         : Technical directorship


 We gratefully acknowledge several colleagues who have allowed us to
 interface, adapt or use parts of their codes:
   Stefan Grimme, W. Hujo, H. Kruse, P. Pracht,  : VdW corrections, initial TS optimization,
                  C. Bannwarth, S. Ehlert          DFT functionals, gCP, sTDA/sTD-DF
   Ed Valeev, F. Pavosevic, A. Kumar             : LibInt (2-el integral package), F12 methods
   Garnet Chan, S. Sharma, J. Yang, R. Olivares  : DMRG
   Ulf Ekstrom                                   : XCFun DFT Library
   Mihaly Kallay                                 : mrcc  (arbitrary order and MRCC methods)
   Jiri Pittner, Ondrej Demel                    : Mk-CCSD
   Frank Weinhold                                : gennbo (NPA and NBO analysis)
   Christopher J. Cramer and Donald G. Truhlar   : smd solvation model
   Lars Goerigk                                  : TD-DFT with DH, B97 family of functionals
   V. Asgeirsson, H. Jonsson                     : NEB implementation
   FAccTs GmbH                                   : IRC, NEB, NEB-TS, DLPNO-Multilevel, CI-OPT
                                                   MM, QMMM, 2- and 3-layer-ONIOM, Crystal-QMMM,
                                                   LR-CPCM, SF, NACMEs, symmetry and pop. for TD-DFT,
                                                   nearIR, NL-DFT gradient (VV10), updates on ESD,
                                                   ML-optimized integration grids
   S Lehtola, MJT Oliveira, MAL Marques          : LibXC Library
   Liviu Ungur et al                             : ANISO software


 Your calculation uses the libint2 library for the computation of 2-el integrals
 For citations please refer to: http://libint.valeyev.net

 Your ORCA version has been built with support for libXC version: 5.1.0
 For citations please refer to: https://tddft.org/programs/libxc/

 This ORCA versions uses:
   CBLAS   interface :  Fast vector & matrix operations
   LAPACKE interface :  Fast linear algebra routines
   SCALAPACK package :  Parallel linear algebra routines
   Shared memory     :  Shared parallel matrices
   BLAS/LAPACK       :  OpenBLAS 0.3.15  USE64BITINT DYNAMIC_ARCH NO_AFFINITY Zen SINGLE_THREADED
        Core in use  :  Zen
   Copyright (c) 2011-2014, The OpenBLAS Project


Your calculation utilizes the atom-pairwise dispersion correction
based on tight binding partial charges (D4)
Cite in your paper:
E.Caldeweyher, C.Bannwarth, S.Grimme, J.Chem.Phys., (2017), 147, 034112.
E.Caldeweyher, S.Ehlert, A.Hansen, H.Neugebauer, S.Grimme, J.Chem.Phys., (2018), in progress.
   

================================================================================

----- Orbital basis set information -----
Your calculation utilizes the basis: pcJ-0
   F. Jensen, Theor. Chem. Acc. 126, 371 (2010).

----- AuxJ basis set information -----
Your calculation utilizes the auxiliary basis: def2/J
   F. Weigend, Phys. Chem. Chem. Phys. 8, 1057 (2006).

================================================================================
                                        WARNINGS
                       Please study these warnings very carefully!
================================================================================


INFO   : the flag for use of the SHARK integral package has been found!

================================================================================
                                       INPUT FILE
================================================================================
NAME = inpJ
|  1> ! pbe0
|  2> ! D4
|  3> ! pcJ-0
|  4> ! def2/J RIJCOSX
|  5> ! DEFGRID2
|  6> ! scfconv7
|  7> ! smallprint printgap noloewdin
|  8> ! NOSOSCF
|  9> %MaxCore 4000
| 10> %output
| 11>        print[P_BondOrder_M] 1
| 12>        print[P_Mayer] 1
| 13>        print[P_basis] 2
| 14> end
| 15> %pal
| 16>     nprocs 4
| 17> end
| 18> ! CPCM(chloroform)
| 19> *xyz 0 1
| 20> C   -5.0316843800   0.3031452700   0.3138049700
| 21> C   -6.4392359100  -0.1192093400  -0.0356727800
| 22> C   -6.9772031200   0.6468486000  -1.2504447400
| 23> H   -7.1090024200   0.1023474400   0.8126242500
| 24> H   -6.4843337500  -1.1974686400  -0.2242421800
| 25> C   -4.8499865900   1.7655388800   0.4329247900
| 26> C   -5.4329079300   2.5634722600  -0.7115687300
| 27> C   -6.8795228800   2.1498627600  -1.0142080100
| 28> H   -4.8239009900   2.3782316300  -1.6094502900
| 29> H   -5.3754478400   3.6350916300  -0.4934270000
| 30> H   -7.2517626400   2.6871692700  -1.8944329500
| 31> H   -7.5252325200   2.4152446400  -0.1634876400
| 32> O   -8.3157131000   0.2428323900  -1.5674457400
| 33> H   -6.3839076000   0.3772400300  -2.1354009100
| 34> C   -4.0442670700  -0.6134552300   0.4500989800
| 35> C   -4.2616129800   2.3512949000   1.4821176900
| 36> H   -3.8710352200   1.7673788700   2.3108555200
| 37> H   -4.1680572900   3.4332336000   1.5385067900
| 38> C   -2.6459943700  -0.3389959200   0.6867179700
| 39> H   -4.3358466700  -1.6557208800   0.3276873700
| 40> C   -1.6730424200  -1.2516877100   0.8961521100
| 41> H   -2.3604383800   0.7104279300   0.6822902600
| 42> C   -1.8688167900  -2.7441736200   0.9827539900
| 43> C   -0.9217951900  -3.5023290300   0.0333584200
| 44> H   -2.9039314700  -3.0392896400   0.7899861500
| 45> H   -1.6384838700  -3.0532698400   2.0150074000
| 46> C    0.5426494900  -3.0684695500   0.1868516100
| 47> H   -1.2489974800  -3.3422194100  -1.0017231800
| 48> H   -1.0076376100  -4.5791452100   0.2240207500
| 49> C    0.7057720800  -1.5494136700   0.0394577500
| 50> H    1.1517709400  -3.6079879900  -0.5458746000
| 51> H    0.9045901300  -3.3620476700   1.1838275300
| 52> C   -0.2357694200  -0.8745046400   1.0867855700
| 53> H    0.0730715900  -1.3094567000   2.0554918500
| 54> C    0.2000676400   0.5875793700   1.0933383900
| 55> H   -8.8750000300   0.4695205400  -0.8123934000
| 56> C    1.7325911600   0.5092521600   0.8880677100
| 57> H   -0.0807005000   1.0976286400   2.0208823700
| 58> H   -0.2692789100   1.1357339600   0.2687338300
| 59> C    2.0697377300  -0.9604755700   0.4960373400
| 60> H    2.2815244700   0.8024521900   1.7885926400
| 61> H    2.0576789600   1.1924504600   0.0944531200
| 62> H    2.3553227900  -1.5098567900   1.4081425700
| 63> C    3.2711245000  -1.0265953600  -0.4687904700
| 64> C    0.3616835800  -1.0929946000  -1.3846635700
| 65> H   -0.7010544700  -1.2341792600  -1.6044368500
| 66> H    0.9377119100  -1.6618754200  -2.1229639300
| 67> H    0.5875644900  -0.0323334900  -1.5333334000
| 68> H    3.0133707700  -0.4668957200  -1.3801482500
| 69> C    3.6566214400  -2.4600397000  -0.8640360900
| 70> C    4.4601385600  -0.3521904600   0.1654190500
| 71> C    5.0896020900   0.7081762000  -0.3410834900
| 72> H    4.8074551400  -0.8046229400   1.0970551400
| 73> H    4.7082159200   1.1193684000  -1.2782894800
| 74> C    6.2876826400   1.4159800000   0.2342981800
| 75> C    6.8793024400   0.7261756400   1.4632577400
| 76> C    5.9984648400   2.9213397000   0.5029747200
| 77> H    7.0630319800   1.4077996800  -0.5506934400
| 78> H    6.9344304400   3.3375918200   0.9058437100
| 79> C    4.8959198000   3.1356785800   1.5413420600
| 80> C    5.6704580500   3.6833677400  -0.7839956400
| 81> H    7.2114460600  -0.2890316300   1.2212712300
| 82> H    6.1550753600   0.6509479700   2.2810346300
| 83> H    7.7441882400   1.2885695500   1.8312705500
| 84> H    4.7524635100   4.2053020200   1.7314188700
| 85> H    5.1300214600   2.6565497400   2.4974128200
| 86> H    3.9446205300   2.7257586400   1.1823752500
| 87> H    4.6899926800   3.3949461600  -1.1796834900
| 88> H    6.4199678300   3.4975345300  -1.5621330000
| 89> H    5.6410373700   4.7617606400  -0.5926593900
| 90> H    4.5884355700  -2.4565919000  -1.4395910700
| 91> H    2.8852992800  -2.9322396200  -1.4777320300
| 92> H    3.8105181900  -3.0808197700   0.0271805600
| 93> *
| 94> %eprnmr
| 95>  Nuclei = all H { ssfc }
| 96>  SpinSpinRThresh 8.0
| 97> end
| 98> 
| 99>                          ****END OF INPUT****
================================================================================

                       ****************************
                       * Single Point Calculation *
                       ****************************

---------------------------------
CARTESIAN COORDINATES (ANGSTROEM)
---------------------------------
  C     -5.031684    0.303145    0.313805
  C     -6.439236   -0.119209   -0.035673
  C     -6.977203    0.646849   -1.250445
  H     -7.109002    0.102347    0.812624
  H     -6.484334   -1.197469   -0.224242
  C     -4.849987    1.765539    0.432925
  C     -5.432908    2.563472   -0.711569
  C     -6.879523    2.149863   -1.014208
  H     -4.823901    2.378232   -1.609450
  H     -5.375448    3.635092   -0.493427
  H     -7.251763    2.687169   -1.894433
  H     -7.525233    2.415245   -0.163488
  O     -8.315713    0.242832   -1.567446
  H     -6.383908    0.377240   -2.135401
  C     -4.044267   -0.613455    0.450099
  C     -4.261613    2.351295    1.482118
  H     -3.871035    1.767379    2.310856
  H     -4.168057    3.433234    1.538507
  C     -2.645994   -0.338996    0.686718
  H     -4.335847   -1.655721    0.327687
  C     -1.673042   -1.251688    0.896152
  H     -2.360438    0.710428    0.682290
  C     -1.868817   -2.744174    0.982754
  C     -0.921795   -3.502329    0.033358
  H     -2.903931   -3.039290    0.789986
  H     -1.638484   -3.053270    2.015007
  C      0.542649   -3.068470    0.186852
  H     -1.248997   -3.342219   -1.001723
  H     -1.007638   -4.579145    0.224021
  C      0.705772   -1.549414    0.039458
  H      1.151771   -3.607988   -0.545875
  H      0.904590   -3.362048    1.183828
  C     -0.235769   -0.874505    1.086786
  H      0.073072   -1.309457    2.055492
  C      0.200068    0.587579    1.093338
  H     -8.875000    0.469521   -0.812393
  C      1.732591    0.509252    0.888068
  H     -0.080700    1.097629    2.020882
  H     -0.269279    1.135734    0.268734
  C      2.069738   -0.960476    0.496037
  H      2.281524    0.802452    1.788593
  H      2.057679    1.192450    0.094453
  H      2.355323   -1.509857    1.408143
  C      3.271124   -1.026595   -0.468790
  C      0.361684   -1.092995   -1.384664
  H     -0.701054   -1.234179   -1.604437
  H      0.937712   -1.661875   -2.122964
  H      0.587564   -0.032333   -1.533333
  H      3.013371   -0.466896   -1.380148
  C      3.656621   -2.460040   -0.864036
  C      4.460139   -0.352190    0.165419
  C      5.089602    0.708176   -0.341083
  H      4.807455   -0.804623    1.097055
  H      4.708216    1.119368   -1.278289
  C      6.287683    1.415980    0.234298
  C      6.879302    0.726176    1.463258
  C      5.998465    2.921340    0.502975
  H      7.063032    1.407800   -0.550693
  H      6.934430    3.337592    0.905844
  C      4.895920    3.135679    1.541342
  C      5.670458    3.683368   -0.783996
  H      7.211446   -0.289032    1.221271
  H      6.155075    0.650948    2.281035
  H      7.744188    1.288570    1.831271
  H      4.752464    4.205302    1.731419
  H      5.130021    2.656550    2.497413
  H      3.944621    2.725759    1.182375
  H      4.689993    3.394946   -1.179683
  H      6.419968    3.497535   -1.562133
  H      5.641037    4.761761   -0.592659
  H      4.588436   -2.456592   -1.439591
  H      2.885299   -2.932240   -1.477732
  H      3.810518   -3.080820    0.027181

----------------------------
CARTESIAN COORDINATES (A.U.)
----------------------------
  NO LB      ZA    FRAG     MASS         X           Y           Z
   0 C     6.0000    0    12.011   -9.508505    0.572862    0.593005
   1 C     6.0000    0    12.011  -12.168392   -0.225273   -0.067412
   2 C     6.0000    0    12.011  -13.185003    1.222367   -2.362998
   3 H     1.0000    0     1.008  -13.434068    0.193409    1.535637
   4 H     1.0000    0     1.008  -12.253615   -2.262888   -0.423756
   5 C     6.0000    0    12.011   -9.165146    3.336385    0.818109
   6 C     6.0000    0    12.011  -10.266708    4.844261   -1.344670
   7 C     6.0000    0    12.011  -13.000414    4.062652   -1.916575
   8 H     1.0000    0     1.008   -9.115852    4.494206   -3.041420
   9 H     1.0000    0     1.008  -10.158124    6.869328   -0.932442
  10 H     1.0000    0     1.008  -13.703845    5.078014   -3.579959
  11 H     1.0000    0     1.008  -14.220629    4.564151   -0.308947
  12 O     8.0000    0    15.999  -15.714420    0.458887   -2.962043
  13 H     1.0000    0     1.008  -12.063837    0.712880   -4.035323
  14 C     6.0000    0    12.011   -7.642557   -1.159262    0.850564
  15 C     6.0000    0    12.011   -8.053281    4.443303    2.800797
  16 H     1.0000    0     1.008   -7.315196    3.339862    4.366884
  17 H     1.0000    0     1.008   -7.876487    6.487871    2.907356
  18 C     6.0000    0    12.011   -5.000205   -0.640609    1.297709
  19 H     1.0000    0     1.008   -8.193563   -3.128859    0.619239
  20 C     6.0000    0    12.011   -3.161592   -2.365347    1.693482
  21 H     1.0000    0     1.008   -4.460582    1.342514    1.289342
  22 C     6.0000    0    12.011   -3.531552   -5.185737    1.857136
  23 C     6.0000    0    12.011   -1.741940   -6.618443    0.063038
  24 H     1.0000    0     1.008   -5.487635   -5.743425    1.492857
  25 H     1.0000    0     1.008   -3.096286   -5.769844    3.807812
  26 C     6.0000    0    12.011    1.025459   -5.798567    0.353098
  27 H     1.0000    0     1.008   -2.360263   -6.315879   -1.892982
  28 H     1.0000    0     1.008   -1.904159   -8.653330    0.423338
  29 C     6.0000    0    12.011    1.333716   -2.927968    0.074564
  30 H     1.0000    0     1.008    2.176532   -6.818109   -1.031553
  31 H     1.0000    0     1.008    1.709428   -6.353349    2.237110
  32 C     6.0000    0    12.011   -0.445540   -1.652574    2.053727
  33 H     1.0000    0     1.008    0.138085   -2.474515    3.884317
  34 C     6.0000    0    12.011    0.378073    1.110364    2.066110
  35 H     1.0000    0     1.008  -16.771319    0.887265   -1.535201
  36 C     6.0000    0    12.011    3.274123    0.962347    1.678205
  37 H     1.0000    0     1.008   -0.152502    2.074218    3.818914
  38 H     1.0000    0     1.008   -0.508863    2.146226    0.507833
  39 C     6.0000    0    12.011    3.911237   -1.815036    0.937375
  40 H     1.0000    0     1.008    4.311456    1.516415    3.379950
  41 H     1.0000    0     1.008    3.888450    2.253405    0.178491
  42 H     1.0000    0     1.008    4.450915   -2.853216    2.661004
  43 C     6.0000    0    12.011    6.181529   -1.939984   -0.885886
  44 C     6.0000    0    12.011    0.683483   -2.065460   -2.616635
  45 H     1.0000    0     1.008   -1.324801   -2.332261   -3.031946
  46 H     1.0000    0     1.008    1.772019   -3.140489   -4.011820
  47 H     1.0000    0     1.008    1.110336   -0.061101   -2.897580
  48 H     1.0000    0     1.008    5.694445   -0.882305   -2.608102
  49 C     6.0000    0    12.011    6.910013   -4.648801   -1.632792
  50 C     6.0000    0    12.011    8.428440   -0.665544    0.312597
  51 C     6.0000    0    12.011    9.617954    1.338259   -0.644554
  52 H     1.0000    0     1.008    9.084774   -1.520517    2.073134
  53 H     1.0000    0     1.008    8.897239    2.115300   -2.415617
  54 C     6.0000    0    12.011   11.881998    2.675814    0.442759
  55 C     6.0000    0    12.011   12.999998    1.372273    2.765156
  56 C     6.0000    0    12.011   11.335456    5.520532    0.950484
  57 H     1.0000    0     1.008   13.347196    2.660356   -1.040660
  58 H     1.0000    0     1.008   13.104174    6.307134    1.711797
  59 C     6.0000    0    12.011    9.251948    5.925574    2.912714
  60 C     6.0000    0    12.011   10.715613    6.960556   -1.481537
  61 H     1.0000    0     1.008   13.627658   -0.546191    2.307868
  62 H     1.0000    0     1.008   11.631407    1.230113    4.310531
  63 H     1.0000    0     1.008   14.634395    2.435044    3.460600
  64 H     1.0000    0     1.008    8.980854    7.946869    3.271907
  65 H     1.0000    0     1.008    9.694336    5.020151    4.719426
  66 H     1.0000    0     1.008    7.454253    5.150937    2.234365
  67 H     1.0000    0     1.008    8.862802    6.415518   -2.229279
  68 H     1.0000    0     1.008   12.131981    6.609382   -2.952004
  69 H     1.0000    0     1.008   10.660016    8.998424   -1.119964
  70 H     1.0000    0     1.008    8.670887   -4.642286   -2.720433
  71 H     1.0000    0     1.008    5.452425   -5.541130   -2.792509
  72 H     1.0000    0     1.008    7.200836   -5.821906    0.051364

--------------------------------
INTERNAL COORDINATES (ANGSTROEM)
--------------------------------
 C      0   0   0     0.000000000000     0.00000000     0.00000000
 C      1   0   0     1.510536137912     0.00000000     0.00000000
 C      2   1   0     1.533598513717   111.74433327     0.00000000
 H      2   1   3     1.103305232376   109.36794680   241.46258624
 H      2   1   3     1.095552532664   110.69373095   122.88350355
 C      1   2   3     1.478444685802   114.18788328    50.49968197
 C      6   1   2     1.512071554149   114.43221417   312.05018820
 C      3   2   1     1.524598565868   110.31817293   305.01772786
 H      7   6   1     1.100633835460   108.38156804   289.93857612
 H      7   6   1     1.095105269127   110.20563479   172.73861653
 H      8   3   2     1.096383450081   109.69299492   179.11109978
 H      8   3   2     1.100496991979   108.65823507   296.54961574
 O      3   2   1     1.433641412105   111.21620792   180.32674243
 H      3   2   1     1.099015822402   109.02092925    65.16018575
 C      1   2   3     1.354151201990   120.89661503   232.66399496
 C      6   1   2     1.337945948580   123.38602860   129.85839327
 H     16   6   1     1.086423171499   121.39779899     0.65627052
 H     16   6   1     1.087439077966   120.93634866   181.33627755
 C     15   1   2     1.444466338424   126.42242850   175.31862466
 H     15   1   2     1.089183616554   116.18099498   357.96501108
 C     19  15   1     1.350371970806   126.47332485   176.07222337
 H     19  15   1     1.087590108906   115.90208993   355.35556924
 C     21  19  15     1.507760485328   125.75983927   357.20113888
 C     23  21  19     1.540454960365   111.83617880   127.89283607
 H     23  21  19     1.093487679926   112.32987736     3.76013588
 H     23  21  19     1.101880587773   107.71851905   246.54661830
 C     24  23  21     1.535054536016   112.69098800    50.79022769
 H     24  23  21     1.097310506491   109.04014582   288.69384350
 H     24  23  21     1.096929410064   109.14171226   172.73993707
 C     27  24  23     1.534882632613   111.80855130   306.19895556
 H     27  24  23     1.094987117171   108.93673844   182.68966713
 H     27  24  23     1.100522659688   109.20447103    66.18952021
 C     21  19  15     1.498119441465   122.73887000   177.81966679
 H     33  21  19     1.105874278961   106.28236936   123.98132782
 C     33  21  19     1.525675763266   121.05690997     1.79502594
 H     13   3   2     0.966588549259   107.54217176    62.69780876
 C     35  33  21     1.548192346980   103.51639774   196.28993952
 H     35  33  21     1.095134165799   112.13112463    74.25899809
 H     35  33  21     1.095779320350   110.71998000   314.66644301
 C     30  27  24     1.554257154404   116.10819919   166.35938742
 H     37  35  33     1.094641121999   111.94840922   249.48051765
 H     37  35  33     1.096478961172   110.97275289   130.95121460
 H     40  30  27     1.102413036016   106.35301947   320.93781726
 C     40  30  27     1.542269334685   118.91968911    81.77991948
 C     30  27  24     1.534547750111   111.07876356   294.28272119
 H     45  30  27     1.094369940075   111.45350406    66.72626616
 H     45  30  27     1.095683095563   110.67274196   306.57772194
 H     45  30  27     1.094589829169   111.59148391   186.72759111
 H     44  40  30     1.100124390927   108.29597801    60.59765579
 C     44  40  30     1.536095591673   113.35735664   299.90867414
 C     44  40  30     1.506916759241   109.40013188   177.85185713
 C     51  44  40     1.333096625255   124.65569853   240.46084164
 H     51  44  40     1.092368875377   115.11597597    61.37898573
 H     52  51  44     1.092194810325   117.42622440     0.52867550
 C     52  51  44     1.505804532386   127.18514261   180.72094087
 C     55  52  51     1.528458583980   113.77005208     5.84344868
 C     55  52  51     1.556258926197   111.88727217   238.09128605
 H     55  52  51     1.103379064576   106.48515489   123.77600075
 H     57  55  52     1.100727420796   105.72117974   180.66886769
 C     57  55  52     1.529625265706   112.74882502    62.70701007
 C     57  55  52     1.531198189507   112.09202801   297.56507826
 H     56  55  52     1.095227216786   110.98145682    60.31525479
 H     56  55  52     1.094953472782   112.05546260   300.03287347
 H     56  55  52     1.095329989259   110.12445875   179.98050416
 H     60  57  55     1.095811664584   110.41927713   177.65906900
 H     60  57  55     1.094732538414   112.17203294    57.54853471
 H     60  57  55     1.096294590424   110.53572898   297.03956334
 H     61  57  55     1.095932581967   111.35440301    70.53353588
 H     61  57  55     1.096264860005   111.45513274   309.72434867
 H     61  57  55     1.095630587263   110.41449036   189.67697850
 H     50  44  40     1.095241067161   110.23000935   187.39065202
 H     50  44  40     1.092947091916   111.74898549    67.46069634
 H     50  44  40     1.096959079550   110.74776305   306.87410286

---------------------------
INTERNAL COORDINATES (A.U.)
---------------------------
 C      0   0   0     0.000000000000     0.00000000     0.00000000
 C      1   0   0     2.854499616045     0.00000000     0.00000000
 C      2   1   0     2.898081190313   111.74433327     0.00000000
 H      2   1   3     2.084944731313   109.36794680   241.46258624
 H      2   1   3     2.070294252058   110.69373095   122.88350355
 C      1   2   3     2.793855560317   114.18788328    50.49968197
 C      6   1   2     2.857401132235   114.43221417   312.05018820
 C      3   2   1     2.881073753660   110.31817293   305.01772786
 H      7   6   1     2.079896522746   108.38156804   289.93857612
 H      7   6   1     2.069449046464   110.20563479   172.73861653
 H      8   3   2     2.071864458417   109.69299492   179.11109978
 H      8   3   2     2.079637926044   108.65823507   296.54961574
 O      3   2   1     2.709189643127   111.21620792   180.32674243
 H      3   2   1     2.076838921187   109.02092925    65.16018575
 C      1   2   3     2.558974915681   120.89661503   232.66399496
 C      6   1   2     2.528351424805   123.38602860   129.85839327
 H     16   6   1     2.053042259680   121.39779899     0.65627052
 H     16   6   1     2.054962044680   120.93634866   181.33627755
 C     15   1   2     2.729645789289   126.42242850   175.31862466
 H     15   1   2     2.058258744840   116.18099498   357.96501108
 C     19  15   1     2.551833203748   126.47332485   176.07222337
 H     19  15   1     2.055247451793   115.90208993   355.35556924
 C     21  19  15     2.849254392818   125.75983927   357.20113888
 C     23  21  19     2.911037996731   111.83617880   127.89283607
 H     23  21  19     2.066392245877   112.32987736     3.76013588
 H     23  21  19     2.082252543175   107.71851905   246.54661830
 C     24  23  21     2.900832673703   112.69098800    50.79022769
 H     24  23  21     2.073616341143   109.04014582   288.69384350
 H     24  23  21     2.072896173264   109.14171226   172.73993707
 C     27  24  23     2.900507823350   111.80855130   306.19895556
 H     27  24  23     2.069225771626   108.93673844   182.68966713
 H     27  24  23     2.079686430984   109.20447103    66.18952021
 C     21  19  15     2.831035460272   122.73887000   177.81966679
 H     33  21  19     2.089799525784   106.28236936   123.98132782
 C     33  21  19     2.883109361734   121.05690997     1.79502594
 H     13   3   2     1.826587642284   107.54217176    62.69780876
 C     35  33  21     2.925659538425   103.51639774   196.28993952
 H     35  33  21     2.069503653261   112.13112463    74.25899809
 H     35  33  21     2.070722818677   110.71998000   314.66644301
 C     30  27  24     2.937120363511   116.10819919   166.35938742
 H     37  35  33     2.068571935506   111.94840922   249.48051765
 H     37  35  33     2.072044948221   110.97275289   130.95121460
 H     40  30  27     2.083258724534   106.35301947   320.93781726
 C     40  30  27     2.914466667300   118.91968911    81.77991948
 C     30  27  24     2.899874987135   111.07876356   294.28272119
 H     45  30  27     2.068059475937   111.45350406    66.72626616
 H     45  30  27     2.070540980181   110.67274196   306.57772194
 H     45  30  27     2.068475006106   111.59148391   186.72759111
 H     44  40  30     2.078933812098   108.29597801    60.59765579
 C     44  40  30     2.902799983785   113.35735664   299.90867414
 C     44  40  30     2.847659981581   109.40013188   177.85185713
 C     51  44  40     2.519187531786   124.65569853   240.46084164
 H     51  44  40     2.064278011682   115.11597597    61.37898573
 H     52  51  44     2.063949076404   117.42622440     0.52867550
 C     52  51  44     2.845558177427   127.18514261   180.72094087
 C     55  52  51     2.888368130763   113.77005208     5.84344868
 C     55  52  51     2.940903163982   111.88727217   238.09128605
 H     55  52  51     2.085084253950   106.48515489   123.77600075
 H     57  55  52     2.080073373401   105.72117974   180.66886769
 C     57  55  52     2.890572839711   112.74882502    62.70701007
 C     57  55  52     2.893545234925   112.09202801   297.56507826
 H     56  55  52     2.069679494143   110.98145682    60.31525479
 H     56  55  52     2.069162192944   112.05546260   300.03287347
 H     56  55  52     2.069873705971   110.12445875   179.98050416
 H     60  57  55     2.070783940420   110.41927713   177.65906900
 H     60  57  55     2.068744687494   112.17203294    57.54853471
 H     60  57  55     2.071696538001   110.53572898   297.03956334
 H     61  57  55     2.071012441159   111.35440301    70.53353588
 H     61  57  55     2.071640355651   111.45513274   309.72434867
 H     61  57  55     2.070441753874   110.41449036   189.67697850
 H     50  44  40     2.069705667557   110.23000935   187.39065202
 H     50  44  40     2.065370682587   111.74898549    67.46069634
 H     50  44  40     2.072952240468   110.74776305   306.87410286

---------------------
BASIS SET INFORMATION
---------------------
There are 3 groups of distinct atoms

 Group   1 Type C   : 7s4p contracted to 4s3p pattern {4111/211}
 Group   2 Type H   : 5s contracted to 3s pattern {311}
 Group   3 Type O   : 7s4p contracted to 4s3p pattern {4111/211}

Atom   0C    basis set group =>   1
Atom   1C    basis set group =>   1
Atom   2C    basis set group =>   1
Atom   3H    basis set group =>   2
Atom   4H    basis set group =>   2
Atom   5C    basis set group =>   1
Atom   6C    basis set group =>   1
Atom   7C    basis set group =>   1
Atom   8H    basis set group =>   2
Atom   9H    basis set group =>   2
Atom  10H    basis set group =>   2
Atom  11H    basis set group =>   2
Atom  12O    basis set group =>   3
Atom  13H    basis set group =>   2
Atom  14C    basis set group =>   1
Atom  15C    basis set group =>   1
Atom  16H    basis set group =>   2
Atom  17H    basis set group =>   2
Atom  18C    basis set group =>   1
Atom  19H    basis set group =>   2
Atom  20C    basis set group =>   1
Atom  21H    basis set group =>   2
Atom  22C    basis set group =>   1
Atom  23C    basis set group =>   1
Atom  24H    basis set group =>   2
Atom  25H    basis set group =>   2
Atom  26C    basis set group =>   1
Atom  27H    basis set group =>   2
Atom  28H    basis set group =>   2
Atom  29C    basis set group =>   1
Atom  30H    basis set group =>   2
Atom  31H    basis set group =>   2
Atom  32C    basis set group =>   1
Atom  33H    basis set group =>   2
Atom  34C    basis set group =>   1
Atom  35H    basis set group =>   2
Atom  36C    basis set group =>   1
Atom  37H    basis set group =>   2
Atom  38H    basis set group =>   2
Atom  39C    basis set group =>   1
Atom  40H    basis set group =>   2
Atom  41H    basis set group =>   2
Atom  42H    basis set group =>   2
Atom  43C    basis set group =>   1
Atom  44C    basis set group =>   1
Atom  45H    basis set group =>   2
Atom  46H    basis set group =>   2
Atom  47H    basis set group =>   2
Atom  48H    basis set group =>   2
Atom  49C    basis set group =>   1
Atom  50C    basis set group =>   1
Atom  51C    basis set group =>   1
Atom  52H    basis set group =>   2
Atom  53H    basis set group =>   2
Atom  54C    basis set group =>   1
Atom  55C    basis set group =>   1
Atom  56C    basis set group =>   1
Atom  57H    basis set group =>   2
Atom  58H    basis set group =>   2
Atom  59C    basis set group =>   1
Atom  60C    basis set group =>   1
Atom  61H    basis set group =>   2
Atom  62H    basis set group =>   2
Atom  63H    basis set group =>   2
Atom  64H    basis set group =>   2
Atom  65H    basis set group =>   2
Atom  66H    basis set group =>   2
Atom  67H    basis set group =>   2
Atom  68H    basis set group =>   2
Atom  69H    basis set group =>   2
Atom  70H    basis set group =>   2
Atom  71H    basis set group =>   2
Atom  72H    basis set group =>   2

-------------------------
BASIS SET IN INPUT FORMAT
-------------------------

 # Basis set for element : H 
 NewGTO H 
 S 3 
   1    1357.7500000000      0.0012928364
   2      54.3100000000      0.0588280685
   3       4.3448000000      0.9761499708
 S 1 
   1       0.6604910000      1.0000000000
 S 1 
   1       0.1366870000      1.0000000000
  end;

 # Basis set for element : C 
 NewGTO C 
 S 4 
   1  139534.0000000000      0.0001655246
   2    5581.3600000000      0.0074486101
   3     446.5090000000      0.1285821065
   4      67.4620000000      0.9218029311
 S 1 
   1      15.0674000000      1.0000000000
 S 1 
   1       3.9387600000      1.0000000000
 S 1 
   1       0.2999150000      1.0000000000
 P 2 
   1      28.3900000000      0.0816325586
   2       4.3676900000      0.9660360576
 P 1 
   1       0.8698170000      1.0000000000
 P 1 
   1       0.1889340000      1.0000000000
  end;

 # Basis set for element : O 
 NewGTO O 
 S 4 
   1  253789.0000000000      0.0001641076
   2   10151.6000000000      0.0074010921
   3     812.1250000000      0.1277711901
   4     122.6930000000      0.9223372164
 S 1 
   1      27.5608000000      1.0000000000
 S 1 
   1       7.3172600000      1.0000000000
 S 1 
   1       0.5792400000      1.0000000000
 P 2 
   1      53.4157000000      0.0793786106
   2       8.2177900000      0.9670506337
 P 1 
   1       1.6754400000      1.0000000000
 P 1 
   1       0.3506720000      1.0000000000
  end;

---------------------------------
AUXILIARY/J BASIS SET INFORMATION
---------------------------------
There are 3 groups of distinct atoms

 Group   1 Type C   : 12s5p4d2f1g contracted to 6s4p3d1f1g pattern {711111/2111/211/2/1}
 Group   2 Type H   : 5s2p1d contracted to 3s1p1d pattern {311/2/1}
 Group   3 Type O   : 12s5p4d2f1g contracted to 6s4p3d1f1g pattern {711111/2111/211/2/1}

Atom   0C    basis set group =>   1
Atom   1C    basis set group =>   1
Atom   2C    basis set group =>   1
Atom   3H    basis set group =>   2
Atom   4H    basis set group =>   2
Atom   5C    basis set group =>   1
Atom   6C    basis set group =>   1
Atom   7C    basis set group =>   1
Atom   8H    basis set group =>   2
Atom   9H    basis set group =>   2
Atom  10H    basis set group =>   2
Atom  11H    basis set group =>   2
Atom  12O    basis set group =>   3
Atom  13H    basis set group =>   2
Atom  14C    basis set group =>   1
Atom  15C    basis set group =>   1
Atom  16H    basis set group =>   2
Atom  17H    basis set group =>   2
Atom  18C    basis set group =>   1
Atom  19H    basis set group =>   2
Atom  20C    basis set group =>   1
Atom  21H    basis set group =>   2
Atom  22C    basis set group =>   1
Atom  23C    basis set group =>   1
Atom  24H    basis set group =>   2
Atom  25H    basis set group =>   2
Atom  26C    basis set group =>   1
Atom  27H    basis set group =>   2
Atom  28H    basis set group =>   2
Atom  29C    basis set group =>   1
Atom  30H    basis set group =>   2
Atom  31H    basis set group =>   2
Atom  32C    basis set group =>   1
Atom  33H    basis set group =>   2
Atom  34C    basis set group =>   1
Atom  35H    basis set group =>   2
Atom  36C    basis set group =>   1
Atom  37H    basis set group =>   2
Atom  38H    basis set group =>   2
Atom  39C    basis set group =>   1
Atom  40H    basis set group =>   2
Atom  41H    basis set group =>   2
Atom  42H    basis set group =>   2
Atom  43C    basis set group =>   1
Atom  44C    basis set group =>   1
Atom  45H    basis set group =>   2
Atom  46H    basis set group =>   2
Atom  47H    basis set group =>   2
Atom  48H    basis set group =>   2
Atom  49C    basis set group =>   1
Atom  50C    basis set group =>   1
Atom  51C    basis set group =>   1
Atom  52H    basis set group =>   2
Atom  53H    basis set group =>   2
Atom  54C    basis set group =>   1
Atom  55C    basis set group =>   1
Atom  56C    basis set group =>   1
Atom  57H    basis set group =>   2
Atom  58H    basis set group =>   2
Atom  59C    basis set group =>   1
Atom  60C    basis set group =>   1
Atom  61H    basis set group =>   2
Atom  62H    basis set group =>   2
Atom  63H    basis set group =>   2
Atom  64H    basis set group =>   2
Atom  65H    basis set group =>   2
Atom  66H    basis set group =>   2
Atom  67H    basis set group =>   2
Atom  68H    basis set group =>   2
Atom  69H    basis set group =>   2
Atom  70H    basis set group =>   2
Atom  71H    basis set group =>   2
Atom  72H    basis set group =>   2

-------------------------------------
AUXILIARY/J BASIS SET IN INPUT FORMAT
-------------------------------------

 # Auxiliary/J basis set for element : H 
 NewAuxJGTO H 
 S 3 
   1      15.6752927000      0.1007184237
   2       3.6063578000      0.3404257499
   3       1.2080016000      0.6491996172
 S 1 
   1       0.4726794000      1.0000000000
 S 1 
   1       0.2018100000      1.0000000000
 P 2 
   1       2.0281365000      0.5596620919
   2       0.5358730000      0.5596620919
 D 1 
   1       2.2165124000      1.0000000000
  end;

 # Auxiliary/J basis set for element : C 
 NewAuxJGTO C 
 S 7 
   1    1861.0916331000      0.0134602335
   2     642.9939764000      0.0299160374
   3     235.1105725000      0.1008649584
   4      90.7028894000      0.2370970548
   5      36.7794552000      0.3924037254
   6      15.6046273000      0.3195862154
   7       6.8907294000      0.0530104441
 S 1 
   1       3.1478850000     -1.0000000000
 S 1 
   1       1.4777287000      1.0000000000
 S 1 
   1       0.7076466000      1.0000000000
 S 1 
   1       0.3430122000      1.0000000000
 S 1 
   1       0.1669453000      1.0000000000
 P 2 
   1      13.5472892000     -0.6769313712
   2       5.4669419000     -0.3779500978
 P 1 
   1       2.1751721000      1.0000000000
 P 1 
   1       0.8582194000      1.0000000000
 P 1 
   1       0.3376720000      1.0000000000
 D 2 
   1       5.9287253000     -0.3533329857
   2       1.9809209000     -0.7456525731
 D 1 
   1       0.8055417000     -1.0000000000
 D 1 
   1       0.3531244000     -1.0000000000
 F 2 
   1       1.6755626000      0.6311076882
   2       0.5997536000      0.4968166032
 G 1 
   1       1.0024600000     -1.0000000000
  end;

 # Auxiliary/J basis set for element : O 
 NewAuxJGTO O 
 S 7 
   1    2876.8216605000      0.0168151159
   2    1004.7443032000      0.0340137548
   3     369.7579954000      0.1194951309
   4     142.9442404000      0.2664627624
   5      57.8366425000      0.4202764046
   6      24.3864983000      0.2765077335
   7      10.6622662000      0.0057008815
 S 1 
   1       4.8070437000     -1.0000000000
 S 1 
   1       2.2210770000      1.0000000000
 S 1 
   1       1.0447795000      1.0000000000
 S 1 
   1       0.4968425000      1.0000000000
 S 1 
   1       0.2371384000      1.0000000000
 P 2 
   1      64.2613382000     -0.2731534179
   2      16.3006076000     -0.8168011598
 P 1 
   1       4.3550542000      1.0000000000
 P 1 
   1       1.2019554000      1.0000000000
 P 1 
   1       0.3354196000      1.0000000000
 D 2 
   1       9.2146611000     -0.4661230638
   2       2.8435251000     -0.6600908911
 D 1 
   1       0.9955759000     -1.0000000000
 D 1 
   1       0.3649441000     -1.0000000000
 F 2 
   1       2.6420115000      0.5931563945
   2       0.7345613000      0.5931563945
 G 1 
   1       1.3931000000     -1.0000000000
  end;



           ************************************************************
           *        Program running with 4 parallel MPI-processes     *
           *              working on a common directory               *
           ************************************************************
------------------------------------------------------------------------------
                           ORCA GTO INTEGRAL CALCULATION
                           -- RI-GTO INTEGRALS CHOSEN --
------------------------------------------------------------------------------
------------------------------------------------------------------------------
                   ___                                                        
                  /   \      - P O W E R E D   B Y -                         
                 /     \                                                     
                 |  |  |   _    _      __       _____    __    __             
                 |  |  |  | |  | |    /  \     |  _  \  |  |  /  |          
                  \  \/   | |  | |   /    \    | | | |  |  | /  /          
                 / \  \   | |__| |  /  /\  \   | |_| |  |  |/  /          
                |  |  |   |  __  | /  /__\  \  |    /   |      \           
                |  |  |   | |  | | |   __   |  |    \   |  |\   \          
                \     /   | |  | | |  |  |  |  | |\  \  |  | \   \       
                 \___/    |_|  |_| |__|  |__|  |_| \__\ |__|  \__/        
                                                                              
                      - O R C A' S   B I G   F R I E N D -                    
                                      &                                       
                       - I N T E G R A L  F E E D E R -                       
                                                                              
 v1 FN, 2020, v2 2021                                                         
------------------------------------------------------------------------------


Reading SHARK input file inpJ.SHARKINP.tmp ... ok
----------------------
SHARK INTEGRAL PACKAGE
----------------------

Number of atoms                             ...     73
Number of basis functions                   ...    509
Number of shells                            ...    335
Maximum angular momentum                    ...      1
Integral batch strategy                     ... SHARK/LIBINT Hybrid
RI-J (if used) integral strategy            ... SPLIT-RIJ (Revised 2003 algorithm where possible)
Printlevel                                  ...      1
Contraction scheme used                     ... SEGMENTED contraction
Coulomb Range Separation                    ... NOT USED
Exchange Range Separation                   ... NOT USED
Finite Nucleus Model                        ... NOT USED
Auxiliary Coulomb fitting basis             ... AVAILABLE
   # of basis functions in Aux-J            ...   1905
   # of shells in Aux-J                     ...    655
   Maximum angular momentum in Aux-J        ...      4
Auxiliary J/K fitting basis                 ... NOT available
Auxiliary Correlation fitting basis         ... NOT available
Auxiliary 'external' fitting basis          ... NOT available
Integral threshold                          ...     3.000000e-11
Primitive cut-off                           ...     1.000000e-12
Primitive pair pre-selection threshold      ...     1.000000e-12

Calculating pre-screening integrals         ... done (  0.0 sec) Dimension = 335
Organizing shell pair data                  ... done (  0.1 sec)
Shell pair information
Total number of shell pairs                 ...     56280
Shell pairs after pre-screening             ...     22068
Total number of primitive shell pairs       ...    145865
Primitive shell pairs kept                  ...     37834
          la=0 lb=0:  11121 shell pairs
          la=1 lb=0:   9062 shell pairs
          la=1 lb=1:   1885 shell pairs

Calculating one electron integrals          ... done (  0.0 sec)
Calculating RI/J V-Matrix + Cholesky decomp.... done (  0.2 sec)
Calculating Nuclear repulsion               ... done (  0.0 sec) ENN=   2788.212302160256 Eh

SHARK setup successfully completed in   0.4 seconds

Maximum memory used throughout the entire GTOINT-calculation: 46.4 MB


           ************************************************************
           *        Program running with 4 parallel MPI-processes     *
           *              working on a common directory               *
           ************************************************************
-------------------------------------------------------------------------------
                                 ORCA SCF
-------------------------------------------------------------------------------

------------
SCF SETTINGS
------------
Hamiltonian:
 Density Functional     Method          .... DFT(GTOs)
 Exchange Functional    Exchange        .... PBE
   PBE kappa parameter   XKappa         ....  0.804000
   PBE mue parameter    XMuePBE         ....  0.219520
 Correlation Functional Correlation     .... PBE
   PBE beta parameter  CBetaPBE         ....  0.066725
 LDA part of GGA corr.  LDAOpt          .... PW91-LDA
 Gradients option       PostSCFGGA      .... off
 Hybrid DFT is turned on
   Fraction HF Exchange ScalHFX         ....  0.250000
   Scaling of DF-GGA-X  ScalDFX         ....  0.750000
   Scaling of DF-GGA-C  ScalDFC         ....  1.000000
   Scaling of DF-LDA-C  ScalLDAC        ....  1.000000
   Perturbative correction              ....  0.000000
   Density functional embedding theory  .... OFF
   NL short-range parameter             ....  6.900000
 RI-approximation to the Coulomb term is turned on
   Number of AuxJ basis functions       .... 1905
   RIJ-COSX (HFX calculated with COS-X)).... on


General Settings:
 Integral files         IntName         .... inpJ
 Hartree-Fock type      HFTyp           .... RHF
 Total Charge           Charge          ....    0
 Multiplicity           Mult            ....    1
 Number of Electrons    NEL             ....  220
 Basis Dimension        Dim             ....  509
 Nuclear Repulsion      ENuc            ....   2788.2123021603 Eh

Convergence Acceleration:
 DIIS                   CNVDIIS         .... on
   Start iteration      DIISMaxIt       ....    12
   Startup error        DIISStart       ....  0.200000
   # of expansion vecs  DIISMaxEq       ....     5
   Bias factor          DIISBfac        ....   1.050
   Max. coefficient     DIISMaxC        ....  10.000
 Trust-Rad. Augm. Hess. CNVTRAH         .... auto
   Auto Start mean grad. ratio tolernc. ....  1.125000
   Auto Start start iteration           ....    20
   Auto Start num. interpolation iter.  ....    10
   Max. Number of Micro iterations      ....    16
   Max. Number of Macro iterations      .... Maxiter - #DIIS iter
   Number of Davidson start vectors     ....     2
   Converg. threshold I  (grad. norm)   ....   1.000e-04
   Converg. threshold II (energy diff.) ....   1.000e-07
   Grad. Scal. Fac. for Micro threshold ....   0.100
   Minimum threshold for Micro iter.    ....   0.010
   NR start threshold (gradient norm)   ....   0.001
   Initial trust radius                 ....   0.400
   Minimum AH scaling param. (alpha)    ....   1.000
   Maximum AH scaling param. (alpha)    .... 1000.000
   Orbital update algorithm             .... Taylor
   White noise on init. David. guess    .... on
   Maximum white noise                  ....   0.010
   Quad. conv. algorithm                .... NR
 SOSCF                  CNVSOSCF        .... off
 Level Shifting         CNVShift        .... on
   Level shift para.    LevelShift      ....    0.2500
   Turn off err/grad.   ShiftErr        ....    0.0010
 Zerner damping         CNVZerner       .... off
 Static damping         CNVDamp         .... on
   Fraction old density DampFac         ....    0.7000
   Max. Damping (<1)    DampMax         ....    0.9800
   Min. Damping (>=0)   DampMin         ....    0.0000
   Turn off err/grad.   DampErr         ....    0.1000
 Fernandez-Rico         CNVRico         .... off

SCF Procedure:
 Maximum # iterations   MaxIter         ....   125
 SCF integral mode      SCFMode         .... Direct
   Integral package                     .... SHARK and LIBINT hybrid scheme
 Reset frequency        DirectResetFreq ....    20
 Integral Threshold     Thresh          ....  3.000e-11 Eh
 Primitive CutOff       TCut            ....  1.000e-12 Eh

Convergence Tolerance:
 Convergence Check Mode ConvCheckMode   .... Total+1el-Energy
 Convergence forced     ConvForced      .... 0
 Energy Change          TolE            ....  1.000e-07 Eh
 1-El. energy change                    ....  1.000e-04 Eh
 DIIS Error             TolErr          ....  1.000e-07


Diagonalization of the overlap matrix:
Smallest eigenvalue                        ... 7.549e-03
Time for diagonalization                   ...    0.031 sec
Threshold for overlap eigenvalues          ... 1.000e-08
Number of eigenvalues below threshold      ... 0
Time for construction of square roots      ...    0.025 sec
Total time needed                          ...    0.057 sec

Time for model grid setup =    0.719 sec

------------------------------
INITIAL GUESS: MODEL POTENTIAL
------------------------------
Loading Hartree-Fock densities                     ... done
Calculating cut-offs                               ... done
Initializing the effective Hamiltonian             ... done
Setting up the integral package (SHARK)            ... done
Starting the Coulomb interaction                   ... done (   0.3 sec)
Reading the grid                                   ... done
Mapping shells                                     ... done
Starting the XC term evaluation                    ... done (   0.1 sec)
  promolecular density results
     # of electrons  =    219.983947309
     EX              =   -164.431975376
     EC              =     -7.325106018
     EX+EC           =   -171.757081394
Transforming the Hamiltonian                       ... done (   0.0 sec)
Diagonalizing the Hamiltonian                      ... done (   0.0 sec)
Back transforming the eigenvectors                 ... done (   0.0 sec)
Now organizing SCF variables                       ... done
                      ------------------
                      INITIAL GUESS DONE (   1.3 sec)
                      ------------------
-------------------
DFT GRID GENERATION
-------------------

General Integration Accuracy     IntAcc      ... 4.388
Radial Grid Type                 RadialGrid  ... OptM3 with GC (2021)
Angular Grid (max. ang.)         AngularGrid ... 4 (Lebedev-302)
Angular grid pruning method      GridPruning ... 4 (adaptive)
Weight generation scheme         WeightScheme... Becke
Basis function cutoff            BFCut       ... 1.0000e-11
Integration weight cutoff        WCut        ... 1.0000e-14
Angular grids for H and He will be reduced by one unit
Partially contracted basis set               ... off
Rotationally invariant grid construction     ... off

Total number of grid points                  ...   309829
Total number of batches                      ...     4877
Average number of points per batch           ...       63
Average number of grid points per atom       ...     4244
Time for grid setup =    2.876 sec

--------------------
COSX GRID GENERATION
--------------------

GRIDX 1
-------
General Integration Accuracy     IntAcc      ... 3.816
Radial Grid Type                 RadialGrid  ... OptM3 with GC (2021)
Angular Grid (max. ang.)         AngularGrid ... 1 (Lebedev-50)
Angular grid pruning method      GridPruning ... 4 (adaptive)
Weight generation scheme         WeightScheme... Becke
Basis function cutoff            BFCut       ... 1.0000e-11
Integration weight cutoff        WCut        ... 1.0000e-14
Angular grids for H and He will be reduced by one unit
Partially contracted basis set               ... on
Rotationally invariant grid construction     ... off

Total number of grid points                  ...    39379
Total number of batches                      ...      656
Average number of points per batch           ...       60
Average number of grid points per atom       ...      539
UseSFitting                                  ... on

GRIDX 2
-------
General Integration Accuracy     IntAcc      ... 4.020
Radial Grid Type                 RadialGrid  ... OptM3 with GC (2021)
Angular Grid (max. ang.)         AngularGrid ... 2 (Lebedev-110)
Angular grid pruning method      GridPruning ... 4 (adaptive)
Weight generation scheme         WeightScheme... Becke
Basis function cutoff            BFCut       ... 1.0000e-11
Integration weight cutoff        WCut        ... 1.0000e-14
Angular grids for H and He will be reduced by one unit
Partially contracted basis set               ... on
Rotationally invariant grid construction     ... off

Total number of grid points                  ...    81357
Total number of batches                      ...     1310
Average number of points per batch           ...       62
Average number of grid points per atom       ...     1114
UseSFitting                                  ... on

GRIDX 3
-------
General Integration Accuracy     IntAcc      ... 4.338
Radial Grid Type                 RadialGrid  ... OptM3 with GC (2021)
Angular Grid (max. ang.)         AngularGrid ... 3 (Lebedev-194)
Angular grid pruning method      GridPruning ... 4 (adaptive)
Weight generation scheme         WeightScheme... Becke
Basis function cutoff            BFCut       ... 1.0000e-11
Integration weight cutoff        WCut        ... 1.0000e-14
Angular grids for H and He will be reduced by one unit
Partially contracted basis set               ... on
Rotationally invariant grid construction     ... off

Total number of grid points                  ...   176249
Total number of batches                      ...     2792
Average number of points per batch           ...       63
Average number of grid points per atom       ...     2414
UseSFitting                                  ... on

Time for X-Grid setup             =    2.794 sec


--------------------
CPCM SOLVATION MODEL
--------------------
CPCM parameters:
  Epsilon                                         ...       4.9000
  Refrac                                          ...       1.4500
  Rsolv                                           ...       1.3000
  Surface type                                    ... GAUSSIAN VDW
  Epsilon function type                           ...         CPCM
Radii:
 Radius for C  used is    3.8550 Bohr (=   2.0400 Ang.)
 Radius for H  used is    2.4944 Bohr (=   1.3200 Ang.)
 Radius for O  used is    3.4469 Bohr (=   1.8240 Ang.)
Calculating surface                               ...        done! (  0.0s)
GEPOL surface points                              ...         3655
GEPOL Volume                                      ...    3601.3151
GEPOL Surface-area                                ...    1787.9583
Calculating surface distance matrix               ...        done! (  0.1s)
Performing Cholesky decomposition & store         ...        done! (  0.5s)
Overall time for CPCM initialization              ...                 0.6s
--------------
SCF ITERATIONS
--------------
ITER       Energy         Delta-E        Max-DP      RMS-DP      [F,P]     Damp
               ***  Starting incremental Fock matrix formation  ***

  HOMO= 109 E= -3.881 eV LUMO=  7.791 eV gap=  11.672 eV
  0  -1165.0084442592   0.000000000000 0.09768669  0.00106217  0.1934164 0.7000

  HOMO= 109 E= -4.732 eV LUMO=  7.095 eV gap=  11.827 eV
  1  -1165.2274436821  -0.218999422889 0.06550913  0.00078219  0.0940636 0.7000
                               ***Turning on DIIS***

  HOMO= 109 E= -5.333 eV LUMO=  6.537 eV gap=  11.869 eV
  2  -1165.3285311432  -0.101087461145 0.10347231  0.00138661  0.0376748 0.0000

  HOMO= 109 E= -5.900 eV LUMO=  5.994 eV gap=  11.893 eV
  3  -1165.4729788998  -0.144447756569 0.05168608  0.00056991  0.0452961 0.0000

  HOMO= 109 E= -5.980 eV LUMO=  5.914 eV gap=  11.894 eV
  4  -1165.5086211170  -0.035642217180 0.01171752  0.00013390  0.0062028 0.0000

  HOMO= 109 E= -5.926 eV LUMO=  5.975 eV gap=  11.901 eV
  5  -1165.5094875632  -0.000866446272 0.00287010  0.00003802  0.0044144 0.0000

  HOMO= 109 E= -5.913 eV LUMO=  5.988 eV gap=  11.901 eV
  6  -1165.5095630439  -0.000075480679 0.00116466  0.00001155  0.0010970 0.0000

  HOMO= 109 E= -5.914 eV LUMO= -0.816 eV gap=   5.098 eV
  7  -1165.5095678766  -0.000004832669 0.00051130  0.00000596  0.0002309 0.0000
               *** Restarting incremental Fock matrix formation ***
                                   *** Resetting DIIS ***

  HOMO= 109 E= -5.914 eV LUMO= -0.815 eV gap=   5.099 eV
  8  -1165.5097088938  -0.000141017174 0.00041415  0.00000283  0.0001087 0.0000

  HOMO= 109 E= -5.914 eV LUMO= -0.815 eV gap=   5.099 eV
  9  -1165.5097089588  -0.000000065051 0.00013484  0.00000124  0.0001412 0.0000

  HOMO= 109 E= -5.914 eV LUMO= -0.815 eV gap=   5.099 eV
 10  -1165.5097090759  -0.000000117051 0.00006220  0.00000040  0.0000389 0.0000

  HOMO= 109 E= -5.914 eV LUMO= -0.815 eV gap=   5.099 eV
 11  -1165.5097091070  -0.000000031123 0.00002447  0.00000017  0.0000214 0.0000

  HOMO= 109 E= -5.914 eV LUMO= -0.815 eV gap=   5.099 eV
 12  -1165.5097090927   0.000000014246 0.00000684  0.00000005  0.0000034 0.0000
                 **** Energy Check signals convergence ****

               *****************************************************
               *                     SUCCESS                       *
               *           SCF CONVERGED AFTER  13 CYCLES          *
               *****************************************************

Old exchange energy                            =    -42.067786431 Eh
New exchange energy                            =    -42.067836966 Eh
Exchange energy change after final integration =     -0.000050535 Eh
Total energy after final integration           =  -1165.509759638 Eh
Final COS-X integration done in                =    14.005 sec

----------------
TOTAL SCF ENERGY
----------------

Total Energy       :        -1165.50975964 Eh          -31715.13293 eV

Components:
Nuclear Repulsion  :         2788.21230216 Eh           75871.11395 eV
Electronic Energy  :        -3953.72206180 Eh         -107586.24688 eV
One Electron Energy:        -7118.51918214 Eh         -193704.75471 eV
Two Electron Energy:         3164.79712034 Eh           86118.50782 eV
Max COSX asymmetry :            0.00000213 Eh               0.00006 eV
CPCM Dielectric    :           -0.01528518 Eh              -0.41593 eV

Virial components:
Potential Energy   :        -2322.41446000 Eh          -63196.11028 eV
Kinetic Energy     :         1156.90470037 Eh           31480.97736 eV
Virial Ratio       :            2.00743800


DFT components:
N(Alpha)           :      110.000239149592 electrons
N(Beta)            :      110.000239149592 electrons
N(Total)           :      220.000478299183 electrons
E(X)               :     -125.746423302465 Eh       
E(C)               :       -7.326585119325 Eh       
E(XC)              :     -133.073008421790 Eh       
DFET-embed. en.    :        0.000000000000 Eh       
CPCM Solvation Model Properties:
Surface-charge          :           -0.03415061
Charge-correction       :           -0.00005741 Eh              -0.00156 eV
Free-energy (cav+disp)  :  This term is not implemented in the current solvation scheme

---------------
SCF CONVERGENCE
---------------

  Last Energy change         ...   -1.0283e-08  Tolerance :   1.0000e-07
  Last MAX-Density change    ...    0.0000e+00  Tolerance :   1.0000e-05
  Last RMS-Density change    ...    0.0000e+00  Tolerance :   1.0000e-06
  Last DIIS Error            ...    2.5575e-06  Tolerance :   1.0000e-07

             **** THE GBW FILE WAS UPDATED (inpJ.gbw) ****
             **** DENSITY inpJ.scfp WAS UPDATED ****
             **** ENERGY FILE WAS UPDATED (inpJ.en.tmp) ****
             **** THE GBW FILE WAS UPDATED (inpJ.gbw) ****
             **** DENSITY inpJ.scfp WAS UPDATED ****
----------------
ORBITAL ENERGIES
----------------

  NO   OCC          E(Eh)            E(eV) 
   0   2.0000     -19.214971      -522.8659 
   1   2.0000     -10.301274      -280.3119 
   2   2.0000     -10.269360      -279.4435 
   3   2.0000     -10.266583      -279.3679 
   4   2.0000     -10.261539      -279.2307 
   5   2.0000     -10.255936      -279.0782 
   6   2.0000     -10.253244      -279.0050 
   7   2.0000     -10.250862      -278.9401 
   8   2.0000     -10.249243      -278.8961 
   9   2.0000     -10.249204      -278.8950 
  10   2.0000     -10.249133      -278.8931 
  11   2.0000     -10.245963      -278.8068 
  12   2.0000     -10.245010      -278.7809 
  13   2.0000     -10.244368      -278.7634 
  14   2.0000     -10.243796      -278.7479 
  15   2.0000     -10.242940      -278.7246 
  16   2.0000     -10.242820      -278.7213 
  17   2.0000     -10.241984      -278.6986 
  18   2.0000     -10.241799      -278.6935 
  19   2.0000     -10.240925      -278.6697 
  20   2.0000     -10.239000      -278.6174 
  21   2.0000     -10.233564      -278.4694 
  22   2.0000     -10.233473      -278.4670 
  23   2.0000     -10.232121      -278.4302 
  24   2.0000     -10.225375      -278.2466 
  25   2.0000     -10.225112      -278.2395 
  26   2.0000     -10.224919      -278.2342 
  27   2.0000     -10.221704      -278.1467 
  28   2.0000     -10.220083      -278.1026 
  29   2.0000      -1.045719       -28.4555 
  30   2.0000      -0.900372       -24.5004 
  31   2.0000      -0.883498       -24.0412 
  32   2.0000      -0.859620       -23.3915 
  33   2.0000      -0.845382       -23.0040 
  34   2.0000      -0.821874       -22.3643 
  35   2.0000      -0.813475       -22.1358 
  36   2.0000      -0.794793       -21.6274 
  37   2.0000      -0.794623       -21.6228 
  38   2.0000      -0.776655       -21.1339 
  39   2.0000      -0.757222       -20.6051 
  40   2.0000      -0.739477       -20.1222 
  41   2.0000      -0.733282       -19.9536 
  42   2.0000      -0.713351       -19.4113 
  43   2.0000      -0.702784       -19.1237 
  44   2.0000      -0.698858       -19.0169 
  45   2.0000      -0.693193       -18.8627 
  46   2.0000      -0.668765       -18.1980 
  47   2.0000      -0.662426       -18.0255 
  48   2.0000      -0.631830       -17.1930 
  49   2.0000      -0.621546       -16.9131 
  50   2.0000      -0.619283       -16.8515 
  51   2.0000      -0.606655       -16.5079 
  52   2.0000      -0.596414       -16.2292 
  53   2.0000      -0.584725       -15.9112 
  54   2.0000      -0.558521       -15.1981 
  55   2.0000      -0.546659       -14.8753 
  56   2.0000      -0.538413       -14.6510 
  57   2.0000      -0.529532       -14.4093 
  58   2.0000      -0.514922       -14.0117 
  59   2.0000      -0.506103       -13.7718 
  60   2.0000      -0.496298       -13.5050 
  61   2.0000      -0.487177       -13.2568 
  62   2.0000      -0.485405       -13.2086 
  63   2.0000      -0.479780       -13.0555 
  64   2.0000      -0.475741       -12.9456 
  65   2.0000      -0.468454       -12.7473 
  66   2.0000      -0.465693       -12.6722 
  67   2.0000      -0.458371       -12.4729 
  68   2.0000      -0.456830       -12.4310 
  69   2.0000      -0.451323       -12.2811 
  70   2.0000      -0.448011       -12.1910 
  71   2.0000      -0.441885       -12.0243 
  72   2.0000      -0.435921       -11.8620 
  73   2.0000      -0.430685       -11.7195 
  74   2.0000      -0.430293       -11.7089 
  75   2.0000      -0.422020       -11.4837 
  76   2.0000      -0.415296       -11.3008 
  77   2.0000      -0.413763       -11.2591 
  78   2.0000      -0.407118       -11.0782 
  79   2.0000      -0.404719       -11.0130 
  80   2.0000      -0.401849       -10.9349 
  81   2.0000      -0.397080       -10.8051 
  82   2.0000      -0.396205       -10.7813 
  83   2.0000      -0.388688       -10.5767 
  84   2.0000      -0.387469       -10.5436 
  85   2.0000      -0.382144       -10.3987 
  86   2.0000      -0.377440       -10.2707 
  87   2.0000      -0.369913       -10.0658 
  88   2.0000      -0.367242        -9.9932 
  89   2.0000      -0.364970        -9.9313 
  90   2.0000      -0.364012        -9.9053 
  91   2.0000      -0.358627        -9.7587 
  92   2.0000      -0.350856        -9.5473 
  93   2.0000      -0.342355        -9.3160 
  94   2.0000      -0.341076        -9.2811 
  95   2.0000      -0.339428        -9.2363 
  96   2.0000      -0.336221        -9.1490 
  97   2.0000      -0.332407        -9.0452 
  98   2.0000      -0.331702        -9.0261 
  99   2.0000      -0.329179        -8.9574 
 100   2.0000      -0.325999        -8.8709 
 101   2.0000      -0.324102        -8.8193 
 102   2.0000      -0.315999        -8.5988 
 103   2.0000      -0.315827        -8.5941 
 104   2.0000      -0.311234        -8.4691 
 105   2.0000      -0.299250        -8.1430 
 106   2.0000      -0.279862        -7.6154 
 107   2.0000      -0.274615        -7.4727 
 108   2.0000      -0.256045        -6.9673 
 109   2.0000      -0.217333        -5.9139 
 110   0.0000      -0.029941        -0.8147 
 111   0.0000       0.021403         0.5824 
 112   0.0000       0.028347         0.7714 
 113   0.0000       0.080362         2.1868 
 114   0.0000       0.090014         2.4494 
 115   0.0000       0.101872         2.7721 
 116   0.0000       0.105551         2.8722 
 117   0.0000       0.107844         2.9346 
 118   0.0000       0.111644         3.0380 
 119   0.0000       0.115981         3.1560 
 120   0.0000       0.118323         3.2197 
 121   0.0000       0.118761         3.2317 
 122   0.0000       0.130568         3.5529 
 123   0.0000       0.130925         3.5627 
 124   0.0000       0.134894         3.6706 
 125   0.0000       0.139358         3.7921 
 126   0.0000       0.140216         3.8155 
 127   0.0000       0.142152         3.8682 
 128   0.0000       0.146834         3.9955 
 129   0.0000       0.150828         4.1042 
 130   0.0000       0.153899         4.1878 
 131   0.0000       0.157288         4.2800 
 132   0.0000       0.158717         4.3189 
 133   0.0000       0.160394         4.3645 
 134   0.0000       0.165090         4.4923 
 135   0.0000       0.168600         4.5878 
 136   0.0000       0.170314         4.6345 
 137   0.0000       0.172813         4.7025 
 138   0.0000       0.175537         4.7766 
 139   0.0000       0.180838         4.9208 
 140   0.0000       0.183263         4.9868 
 141   0.0000       0.185996         5.0612 
 142   0.0000       0.187570         5.1040 
 143   0.0000       0.188916         5.1407 
 144   0.0000       0.191962         5.2236 
 145   0.0000       0.197204         5.3662 
 146   0.0000       0.198964         5.4141 
 147   0.0000       0.202435         5.5085 
 148   0.0000       0.204310         5.5596 
 149   0.0000       0.209991         5.7141 
 150   0.0000       0.215774         5.8715 
 151   0.0000       0.217363         5.9148 
 152   0.0000       0.219714         5.9787 
 153   0.0000       0.233687         6.3589 
 154   0.0000       0.237859         6.4725 
 155   0.0000       0.239201         6.5090 
 156   0.0000       0.243312         6.6209 
 157   0.0000       0.247695         6.7401 
 158   0.0000       0.249414         6.7869 
 159   0.0000       0.252867         6.8809 
 160   0.0000       0.259066         7.0496 
 161   0.0000       0.260535         7.0895 
 162   0.0000       0.263995         7.1837 
 163   0.0000       0.267377         7.2757 
 164   0.0000       0.267875         7.2892 
 165   0.0000       0.274910         7.4807 
 166   0.0000       0.279940         7.6176 
 167   0.0000       0.283831         7.7234 
 168   0.0000       0.285047         7.7565 
 169   0.0000       0.291973         7.9450 
 170   0.0000       0.296080         8.0567 
 171   0.0000       0.300346         8.1728 
 172   0.0000       0.302009         8.2181 
 173   0.0000       0.306320         8.3354 
 174   0.0000       0.310819         8.4578 
 175   0.0000       0.318793         8.6748 
 176   0.0000       0.325119         8.8469 
 177   0.0000       0.339809         9.2467 
 178   0.0000       0.355215         9.6659 
 179   0.0000       0.358575         9.7573 
 180   0.0000       0.367635        10.0039 
 181   0.0000       0.375824        10.2267 
 182   0.0000       0.382861        10.4182 
 183   0.0000       0.405421        11.0321 
 184   0.0000       0.419694        11.4204 
 185   0.0000       0.463299        12.6070 
 186   0.0000       0.474207        12.9038 
 187   0.0000       0.490971        13.3600 
 188   0.0000       0.506302        13.7772 
 189   0.0000       0.521237        14.1836 
 190   0.0000       0.523577        14.2473 
 191   0.0000       0.531470        14.4620 
 192   0.0000       0.537533        14.6270 
 193   0.0000       0.544066        14.8048 
 194   0.0000       0.566524        15.4159 
 195   0.0000       0.570663        15.5285 
 196   0.0000       0.576436        15.6856 
 197   0.0000       0.583111        15.8672 
 198   0.0000       0.584969        15.9178 
 199   0.0000       0.600723        16.3465 
 200   0.0000       0.612926        16.6786 
 201   0.0000       0.621137        16.9020 
 202   0.0000       0.627438        17.0735 
 203   0.0000       0.629692        17.1348 
 204   0.0000       0.641329        17.4514 
 205   0.0000       0.648063        17.6347 
 206   0.0000       0.654581        17.8121 
 207   0.0000       0.656825        17.8731 
 208   0.0000       0.664507        18.0822 
 209   0.0000       0.668444        18.1893 
 210   0.0000       0.673583        18.3291 
 211   0.0000       0.686635        18.6843 
 212   0.0000       0.691045        18.8043 
 213   0.0000       0.699447        19.0329 
 214   0.0000       0.705157        19.1883 
 215   0.0000       0.712132        19.3781 
 216   0.0000       0.714926        19.4541 
 217   0.0000       0.716351        19.4929 
 218   0.0000       0.726222        19.7615 
 219   0.0000       0.727419        19.7941 
 220   0.0000       0.730715        19.8838 
 221   0.0000       0.735290        20.0083 
 222   0.0000       0.738986        20.1088 
 223   0.0000       0.745116        20.2756 
 224   0.0000       0.748062        20.3558 
 225   0.0000       0.750000        20.4085 
 226   0.0000       0.757170        20.6036 
 227   0.0000       0.759773        20.6745 
 228   0.0000       0.762814        20.7572 
 229   0.0000       0.766025        20.8446 
 230   0.0000       0.773431        21.0461 
 231   0.0000       0.774984        21.0884 
 232   0.0000       0.777791        21.1648 
 233   0.0000       0.785900        21.3854 
 234   0.0000       0.790188        21.5021 
 235   0.0000       0.797732        21.7074 
 236   0.0000       0.803264        21.8579 
 237   0.0000       0.805489        21.9185 
 238   0.0000       0.811554        22.0835 
 239   0.0000       0.820363        22.3232 
 240   0.0000       0.825123        22.4527 
 241   0.0000       0.825667        22.4675 
 242   0.0000       0.837961        22.8021 
 243   0.0000       0.842360        22.9218 
 244   0.0000       0.845118        22.9968 
 245   0.0000       0.856011        23.2932 
 246   0.0000       0.859466        23.3872 
 247   0.0000       0.863368        23.4934 
 248   0.0000       0.865439        23.5498 
 249   0.0000       0.870209        23.6796 
 250   0.0000       0.874467        23.7955 
 251   0.0000       0.876316        23.8458 
 252   0.0000       0.877356        23.8741 
 253   0.0000       0.879805        23.9407 
 254   0.0000       0.880656        23.9639 
 255   0.0000       0.885541        24.0968 
 256   0.0000       0.886624        24.1263 
 257   0.0000       0.888694        24.1826 
 258   0.0000       0.891983        24.2721 
 259   0.0000       0.896931        24.4067 
 260   0.0000       0.900909        24.5150 
 261   0.0000       0.901646        24.5350 
 262   0.0000       0.907668        24.6989 
 263   0.0000       0.916966        24.9519 
 264   0.0000       0.920830        25.0571 
 265   0.0000       0.921035        25.0626 
 266   0.0000       0.929232        25.2857 
 267   0.0000       0.930334        25.3157 
 268   0.0000       0.935479        25.4557 
 269   0.0000       0.937431        25.5088 
 270   0.0000       0.943587        25.6763 
 271   0.0000       0.945814        25.7369 
 272   0.0000       0.947256        25.7761 
 273   0.0000       0.950855        25.8741 
 274   0.0000       0.954790        25.9812 
 275   0.0000       0.964326        26.2406 
 276   0.0000       0.969817        26.3901 
 277   0.0000       0.970822        26.4174 
 278   0.0000       0.976841        26.5812 
 279   0.0000       0.980170        26.6718 
 280   0.0000       0.990247        26.9460 
 281   0.0000       1.001150        27.2427 
 282   0.0000       1.008648        27.4467 
 283   0.0000       1.015799        27.6413 
 284   0.0000       1.019732        27.7483 
 285   0.0000       1.029148        28.0045 
 286   0.0000       1.041743        28.3473 
 287   0.0000       1.050891        28.5962 
 288   0.0000       1.057541        28.7772 
 289   0.0000       1.063855        28.9490 
 290   0.0000       1.069537        29.1036 
 291   0.0000       1.078460        29.3464 
 292   0.0000       1.081611        29.4321 
 293   0.0000       1.090015        29.6608 
 294   0.0000       1.101547        29.9746 
 295   0.0000       1.113350        30.2958 
 296   0.0000       1.124981        30.6123 
 297   0.0000       1.131658        30.7940 
 298   0.0000       1.138661        30.9846 
 299   0.0000       1.147233        31.2178 
 300   0.0000       1.159248        31.5447 
 301   0.0000       1.172044        31.8929 
 302   0.0000       1.194870        32.5141 
 303   0.0000       1.215434        33.0736 
 304   0.0000       1.236625        33.6503 
 305   0.0000       1.245543        33.8929 
 306   0.0000       1.257644        34.2222 
 307   0.0000       1.282048        34.8863 
 308   0.0000       1.286939        35.0194 
 309   0.0000       1.301826        35.4245 
 310   0.0000       1.325220        36.0611 
 311   0.0000       1.334107        36.3029 
 312   0.0000       1.371770        37.3278 
 313   0.0000       1.378225        37.5034 
 314   0.0000       1.406134        38.2629 
 315   0.0000       1.512490        41.1570 
 316   0.0000       1.525769        41.5183 
 317   0.0000       1.573661        42.8215 
 318   0.0000       1.606001        43.7015 
 319   0.0000       1.657464        45.1019 
 320   0.0000       6.207996       168.9282 
 321   0.0000       6.240010       169.7993 
 322   0.0000       6.261770       170.3914 
 323   0.0000       6.272702       170.6889 
 324   0.0000       6.275344       170.7608 
 325   0.0000       6.288608       171.1217 
 326   0.0000       6.298738       171.3974 
 327   0.0000       6.302175       171.4909 
 328   0.0000       6.313889       171.8097 
 329   0.0000       6.335189       172.3893 
 330   0.0000       6.342142       172.5785 
 331   0.0000       6.349877       172.7889 
 332   0.0000       6.359706       173.0564 
 333   0.0000       6.374734       173.4653 
 334   0.0000       6.385253       173.7516 
 335   0.0000       6.392374       173.9454 
 336   0.0000       6.404111       174.2647 
 337   0.0000       6.415377       174.5713 
 338   0.0000       6.421523       174.7385 
 339   0.0000       6.427557       174.9027 
 340   0.0000       6.433643       175.0683 
 341   0.0000       6.439086       175.2164 
 342   0.0000       6.453572       175.6106 
 343   0.0000       6.454524       175.6365 
 344   0.0000       6.467826       175.9985 
 345   0.0000       6.472530       176.1265 
 346   0.0000       6.479163       176.3070 
 347   0.0000       6.497122       176.7957 
 348   0.0000       6.507290       177.0724 
 349   0.0000       6.517567       177.3520 
 350   0.0000       6.524034       177.5280 
 351   0.0000       6.529888       177.6873 
 352   0.0000       6.536020       177.8541 
 353   0.0000       6.541712       178.0090 
 354   0.0000       6.545731       178.1184 
 355   0.0000       6.552923       178.3141 
 356   0.0000       6.560223       178.5128 
 357   0.0000       6.565507       178.6565 
 358   0.0000       6.575551       178.9298 
 359   0.0000       6.581834       179.1008 
 360   0.0000       6.586297       179.2223 
 361   0.0000       6.587975       179.2679 
 362   0.0000       6.589155       179.3000 
 363   0.0000       6.598682       179.5593 
 364   0.0000       6.602670       179.6678 
 365   0.0000       6.604165       179.7085 
 366   0.0000       6.607642       179.8031 
 367   0.0000       6.612839       179.9445 
 368   0.0000       6.617787       180.0791 
 369   0.0000       6.618924       180.1101 
 370   0.0000       6.619686       180.1308 
 371   0.0000       6.624495       180.2617 
 372   0.0000       6.631115       180.4418 
 373   0.0000       6.637418       180.6133 
 374   0.0000       6.640726       180.7033 
[...]
     69 H        0.000      0.000      0.000      0.000      0.000      0.000
     70 H        0.000      0.000      0.000      0.000      0.003      0.036
     71 H        0.000      0.000      0.000     -0.000      0.001      0.020
     72 H        0.000      0.000      0.000      0.000      0.001      0.009
                 25 H       27 H       28 H       30 H       31 H       33 H  
      3 H        2.497     -0.106      0.066      0.000      0.000      2.420
      4 H        0.112     -0.004      0.004      0.000      0.000      0.100
      8 H       -0.341      0.012      0.000      0.000      0.000     -0.311
      9 H        0.000      0.000      0.000      0.000      0.000      0.137
     10 H        0.000      0.000      0.000      0.000      0.000      0.000
     11 H        0.000      0.000      0.000      0.000      0.000      0.000
     13 H       -0.101      0.004     -0.004      0.000      0.000     -0.105
     16 H       -0.373      0.012     -0.006     -0.022     -0.001     -0.345
     17 H       -0.365      0.011      0.000      0.000      0.000     -0.320
     19 H        0.939     -0.048      0.022      0.085      0.006      1.148
     21 H       -2.844      0.197      0.639     -0.215     -0.026     -2.606
     24 H      -14.072      4.349      2.282      0.717     -0.505     -0.124
     25 H        0.000     13.017      5.259     -0.632     -0.350     -2.362
     27 H       13.017      0.000    -13.576      3.991     12.987      0.070
     28 H        5.259    -13.576      0.000      2.643      4.111      0.283
     30 H       -0.632      3.991      2.643      0.000    -12.941      0.017
     31 H       -0.350     12.987      4.111    -12.941      0.000     -0.325
     33 H       -2.362      0.070      0.283      0.017     -0.325      0.000
     35 H        0.000      0.000      0.000      0.000      0.000      0.000
     37 H        0.271      0.005     -0.035      0.519     -0.037      6.466
     38 H        0.193      0.001     -0.029     -0.015      0.125     12.161
     40 H       -0.013      0.020      0.144     -0.003     -0.033     -0.240
     41 H        0.014      0.021     -0.025      0.014      0.078     -0.415
     42 H       -0.018      0.013     -0.010     -0.259     -0.369     -0.206
     45 H       -0.019     -0.223      0.014     -0.207     -0.482     -0.184
     46 H        0.013      0.046      0.068     -0.340      0.029      0.923
     47 H       -0.059     -0.125     -0.146     -0.152      1.822     -0.469
     48 H       -0.015      0.030      0.022      0.029      0.009     -0.004
     52 H        0.001      0.001      0.002     -0.003      0.001      0.003
     53 H        0.000     -0.000      0.000      0.000     -0.001     -0.003
     57 H        0.000      0.000      0.000     -0.004      0.001      0.004
     58 H        0.000      0.000      0.000      0.000      0.000      0.000
     61 H        0.000      0.000      0.000      0.000     -0.000     -0.000
     62 H        0.000      0.000      0.000      0.000     -0.000     -0.000
     63 H        0.000      0.000      0.000      0.000      0.000      0.000
     64 H        0.000      0.000      0.000      0.000      0.000     -0.000
     65 H        0.000      0.000      0.000      0.000     -0.000     -0.000
     66 H        0.000      0.000      0.000      0.000     -0.000      0.000
     67 H        0.000      0.000      0.000      0.000      0.000      0.000
     68 H        0.000      0.000      0.000      0.000      0.000      0.000
     69 H        0.000      0.000      0.000      0.000      0.000      0.000
     70 H        0.000     -0.010     -0.011      0.081     -0.043      0.003
     71 H        0.004     -0.010     -0.009     -0.450     -0.076      0.004
     72 H        0.000     -0.001     -0.003      0.074      0.014     -0.001
                 35 H       37 H       38 H       40 H       41 H       42 H  
      3 H       -0.075     -0.044     -0.038      0.000      0.000      0.000
      4 H       -0.166     -0.002     -0.002      0.000      0.000      0.000
      8 H        0.020      0.006      0.004      0.000      0.001      0.000
      9 H       -0.092     -0.002     -0.001      0.000     -0.000      0.000
     10 H       -0.179      0.000     -0.001      0.000      0.000      0.000
     11 H       -0.102     -0.000     -0.000      0.000      0.000      0.000
     13 H       13.744      0.002      0.001      0.000      0.000      0.000
     16 H        0.005      0.007      0.002     -0.001      0.001     -0.001
     17 H        0.007      0.005      0.005      0.000      0.002      0.000
     19 H       -0.004     -0.011      0.116      0.005     -0.009      0.006
     21 H       -0.004      0.042     -0.536     -0.011      0.059     -0.025
     24 H       -0.001     -0.053     -0.079     -0.019      0.068     -0.025
     25 H        0.000      0.271      0.193     -0.013      0.014     -0.018
     27 H        0.000      0.005      0.001      0.020      0.021      0.013
     28 H        0.000     -0.035     -0.029      0.144     -0.025     -0.010
     30 H        0.000      0.519     -0.015     -0.003      0.014     -0.259
     31 H        0.000     -0.037      0.125     -0.033      0.078     -0.369
     33 H        0.000      6.466     12.161     -0.240     -0.415     -0.206
     35 H        0.000      0.000      0.000      0.000      0.000      0.000
     37 H        0.000      0.000    -12.185      9.481      2.624     -0.263
     38 H        0.000    -12.185      0.000      6.789     11.581     -0.466
     40 H        0.000      9.481      6.789      0.000    -13.619      9.534
     41 H        0.000      2.624     11.581    -13.619      0.000      8.706
     42 H        0.000     -0.263     -0.466      9.534      8.706      0.000
     45 H        0.000      0.063      0.038     -0.084      0.006      1.110
     46 H        0.000     -0.172      0.008      0.050      0.041     -0.407
     47 H        0.000      0.067     -0.067     -0.111     -0.066     -0.078
     48 H        0.000      0.097     -0.008     -0.202     -0.427     10.363
     52 H        0.000     -0.000      0.003      0.072     -0.020     -0.278
     53 H        0.000      0.003      0.007     -0.122      0.034      0.080
     57 H        0.000     -0.004     -0.003      0.161     -0.018     -0.070
     58 H        0.000     -0.001     -0.001      0.032      0.013     -0.005
     61 H        0.000      0.000      0.000     -0.003      0.001     -0.000
     62 H        0.000      0.000      0.000     -0.000      0.000     -0.000
     63 H        0.000     -0.000      0.000     -0.003      0.002      0.008
     64 H        0.000     -0.000      0.000     -0.009     -0.014      0.001
     65 H        0.000      0.002      0.004     -0.012     -0.027      0.002
     66 H        0.000      0.002      0.003     -0.151     -0.121      0.003
     67 H        0.000      0.000      0.000     -0.001     -0.002      0.000
     68 H        0.000     -0.000     -0.000     -0.000     -0.001     -0.001
     69 H        0.000      0.000     -0.000      0.000     -0.001     -0.001
     70 H        0.000      0.067      0.009     -0.025      0.006     -0.431
     71 H        0.000     -0.006      0.004      0.086      0.023     -0.199
     72 H        0.000     -0.020      0.036      0.029     -0.056     -0.347
                 45 H       46 H       47 H       48 H       52 H       53 H  
      3 H       -0.021      0.000      0.000      0.000      0.000      0.000
      4 H       -0.001     -0.001      0.001      0.000      0.000      0.000
      8 H        0.002      0.002     -0.003      0.000      0.000      0.000
      9 H       -0.001      0.000      0.001      0.000      0.000      0.000
     10 H       -0.001      0.000      0.000      0.000      0.000      0.000
     11 H       -0.000      0.000      0.000      0.000      0.000      0.000
     13 H        0.001      0.001     -0.001      0.000      0.000      0.000
     16 H        0.002      0.002     -0.004      0.000      0.000      0.000
     17 H        0.003      0.000     -0.004      0.000      0.000      0.000
     19 H       -0.009     -0.007      0.011      0.006      0.000      0.000
     21 H        0.032      0.014     -0.017     -0.017      0.001     -0.001
     24 H       -0.023     -0.017     -0.023      0.002      0.000      0.000
     25 H       -0.019      0.013     -0.059     -0.015      0.001      0.000
     27 H       -0.223      0.046     -0.125      0.030      0.001     -0.000
     28 H        0.014      0.068     -0.146      0.022      0.002      0.000
     30 H       -0.207     -0.340     -0.152      0.029     -0.003      0.000
     31 H       -0.482      0.029      1.822      0.009      0.001     -0.001
     33 H       -0.184      0.923     -0.469     -0.004      0.003     -0.003
     35 H        0.000      0.000      0.000      0.000      0.000      0.000
     37 H        0.063     -0.172      0.067      0.097     -0.000      0.003
     38 H        0.038      0.008     -0.067     -0.008      0.003      0.007
     40 H       -0.084      0.050     -0.111     -0.202      0.072     -0.122
     41 H        0.006      0.041     -0.066     -0.427     -0.020      0.034
     42 H        1.110     -0.407     -0.078     10.363     -0.278      0.080
     45 H        0.000    -12.843    -13.549     -0.109      0.242     -0.002
     46 H      -12.843      0.000    -12.969     -0.055      0.073     -0.002
     47 H      -13.549    -12.969      0.000     -0.178      0.072     -0.002
     48 H       -0.109     -0.055     -0.178      0.000      9.663     -0.638
     52 H        0.242      0.073      0.072      9.663      0.000     16.508
     53 H       -0.002     -0.002     -0.002     -0.638     16.508      0.000
     57 H        0.000      0.001      0.000      0.134     -2.767      4.419
     58 H        0.000      0.000     -0.000     -0.010      0.199     -0.409
     61 H        0.000      0.000      0.000      0.061     -0.100     -0.514
     62 H        0.000      0.000      0.000      0.110     -0.262     -0.585
     63 H        0.000      0.000      0.000      0.266     -0.167      0.883
     64 H        0.000     -0.000     -0.000     -0.003      0.033     -0.033
     65 H        0.000     -0.000     -0.000      0.000     -0.003      0.029
     66 H       -0.000      0.000     -0.000     -0.003      0.026      0.000
     67 H       -0.000     -0.000     -0.000     -0.003      0.104     -0.183
     68 H        0.000     -0.000     -0.000     -0.000     -0.011     -0.004
     69 H        0.000      0.000     -0.000     -0.005      0.152     -0.046
     70 H       -0.027     -0.015     -0.011      2.316     -0.155      0.106
     71 H       -0.049     -0.191     -0.017      4.440     -0.093     -0.385
     72 H       -0.031     -0.035      0.035     12.637     -0.267      0.098
                 57 H       58 H       61 H       62 H       63 H       64 H  
      3 H        0.000      0.000      0.000      0.000      0.000      0.000
      4 H        0.000      0.000      0.000      0.000      0.000      0.000
      8 H        0.000      0.000      0.000      0.000      0.000      0.000
      9 H        0.000      0.000      0.000      0.000      0.000      0.000
     10 H        0.000      0.000      0.000      0.000      0.000      0.000
     11 H        0.000      0.000      0.000      0.000      0.000      0.000
     13 H        0.000      0.000      0.000      0.000      0.000      0.000
     16 H        0.000      0.000      0.000      0.000      0.000      0.000
     17 H        0.000      0.000      0.000      0.000      0.000      0.000
     19 H        0.000      0.000      0.000      0.000      0.000      0.000
     21 H        0.000      0.000      0.000      0.000      0.000     -0.000
     24 H        0.000      0.000      0.000      0.000      0.000      0.000
     25 H        0.000      0.000      0.000      0.000      0.000      0.000
     27 H        0.000      0.000      0.000      0.000      0.000      0.000
     28 H        0.000      0.000      0.000      0.000      0.000      0.000
     30 H       -0.004      0.000      0.000      0.000      0.000      0.000
     31 H        0.001      0.000     -0.000     -0.000      0.000      0.000
     33 H        0.004      0.000     -0.000     -0.000      0.000     -0.000
     35 H        0.000      0.000      0.000      0.000      0.000      0.000
     37 H       -0.004     -0.001      0.000      0.000     -0.000     -0.000
     38 H       -0.003     -0.001      0.000      0.000      0.000      0.000
     40 H        0.161      0.032     -0.003     -0.000     -0.003     -0.009
     41 H       -0.018      0.013      0.001      0.000      0.002     -0.014
     42 H       -0.070     -0.005     -0.000     -0.000      0.008      0.001
     45 H        0.000      0.000      0.000      0.000      0.000      0.000
     46 H        0.001      0.000      0.000      0.000      0.000     -0.000
     47 H        0.000     -0.000      0.000      0.000      0.000     -0.000
     48 H        0.134     -0.010      0.061      0.110      0.266     -0.003
     52 H       -2.767      0.199     -0.100     -0.262     -0.167      0.033
     53 H        4.419     -0.409     -0.514     -0.585      0.883     -0.033
     57 H        0.000      3.211      4.055     13.059      3.162      0.710
     58 H        3.211      0.000     -0.121     -0.261     -0.338      3.264
     61 H        4.055     -0.121      0.000    -12.734    -12.953     -0.090
     62 H       13.059     -0.261    -12.734      0.000    -12.652     -0.107
     63 H        3.162     -0.338    -12.953    -12.652      0.000      0.056
     64 H        0.710      3.264     -0.090     -0.107      0.056      0.000
     65 H       -0.419      3.457     -0.102     -0.308      0.013    -13.018
     66 H       -0.441     13.108      0.070      0.042      0.043    -12.766
     67 H       -0.274     13.165     -0.055      0.038      0.048     -0.193
     68 H       -0.362      2.443      0.016      0.020      0.046      0.073
     69 H       -0.180      4.744      0.520     -0.043      0.000     -0.220
     70 H       -0.021     -0.001      0.000     -0.002     -0.002     -0.000
     71 H        0.816     -0.021     -0.008     -0.010     -0.019      0.000
     72 H       -0.118      0.002      0.003     -0.002      0.004      0.001
                 65 H       66 H       67 H       68 H       69 H       70 H  
      3 H        0.000      0.000      0.000      0.000      0.000      0.000
      4 H        0.000      0.000      0.000      0.000      0.000      0.000
      8 H        0.000      0.000      0.000      0.000      0.000      0.000
      9 H        0.000      0.000      0.000      0.000      0.000      0.000
     10 H        0.000      0.000      0.000      0.000      0.000      0.000
     11 H        0.000      0.000      0.000      0.000      0.000      0.000
     13 H        0.000      0.000      0.000      0.000      0.000      0.000
     16 H        0.000      0.000      0.000      0.000      0.000      0.000
     17 H        0.000      0.000      0.000      0.000      0.000      0.000
     19 H        0.000      0.000      0.000      0.000      0.000      0.000
     21 H       -0.000     -0.000      0.000      0.000      0.000      0.003
     24 H        0.000      0.000      0.000      0.000      0.000      0.036
     25 H        0.000      0.000      0.000      0.000      0.000      0.000
     27 H        0.000      0.000      0.000      0.000      0.000     -0.010
     28 H        0.000      0.000      0.000      0.000      0.000     -0.011
     30 H        0.000      0.000      0.000      0.000      0.000      0.081
     31 H       -0.000     -0.000      0.000      0.000      0.000     -0.043
     33 H       -0.000      0.000      0.000      0.000      0.000      0.003
     35 H        0.000      0.000      0.000      0.000      0.000      0.000
     37 H        0.002      0.002      0.000     -0.000      0.000      0.067
     38 H        0.004      0.003      0.000     -0.000     -0.000      0.009
     40 H       -0.012     -0.151     -0.001     -0.000      0.000     -0.025
     41 H       -0.027     -0.121     -0.002     -0.001     -0.001      0.006
     42 H        0.002      0.003      0.000     -0.001     -0.001     -0.431
     45 H        0.000     -0.000     -0.000      0.000      0.000     -0.027
     46 H       -0.000      0.000     -0.000     -0.000      0.000     -0.015
     47 H       -0.000     -0.000     -0.000     -0.000     -0.000     -0.011
     48 H        0.000     -0.003     -0.003     -0.000     -0.005      2.316
     52 H       -0.003      0.026      0.104     -0.011      0.152     -0.155
     53 H        0.029      0.000     -0.183     -0.004     -0.046      0.106
     57 H       -0.419     -0.441     -0.274     -0.362     -0.180     -0.021
     58 H        3.457     13.108     13.165      2.443      4.744     -0.001
     61 H       -0.102      0.070     -0.055      0.016      0.520      0.000
     62 H       -0.308      0.042      0.038      0.020     -0.043     -0.002
     63 H        0.013      0.043      0.048      0.046      0.000     -0.002
     64 H      -13.018    -12.766     -0.193      0.073     -0.220     -0.000
     65 H        0.000    -12.387     -0.196      2.908     -0.175     -0.001
     66 H      -12.387      0.000     -0.319     -0.284     -0.216      0.002
     67 H       -0.196     -0.319      0.000    -11.958    -13.142      0.000
     68 H        2.908     -0.284    -11.958      0.000    -12.780     -0.000
     69 H       -0.175     -0.216    -13.142    -12.780      0.000     -0.000
     70 H       -0.001      0.002      0.000     -0.000     -0.000      0.000
     71 H       -0.000      0.009     -0.002      0.001      0.000    -13.200
     72 H       -0.000     -0.000      0.000     -0.000      0.000    -12.513
                 71 H       72 H  
      3 H        0.000      0.000
      4 H        0.000      0.000
      8 H        0.000      0.000
      9 H        0.000      0.000
     10 H        0.000      0.000
     11 H        0.000      0.000
     13 H        0.000      0.000
     16 H        0.000      0.000
     17 H        0.000      0.000
     19 H       -0.000      0.000
     21 H        0.001      0.001
     24 H        0.020      0.009
     25 H        0.004      0.000
     27 H       -0.010     -0.001
     28 H       -0.009     -0.003
     30 H       -0.450      0.074
     31 H       -0.076      0.014
     33 H        0.004     -0.001
     35 H        0.000      0.000
     37 H       -0.006     -0.020
     38 H        0.004      0.036
     40 H        0.086      0.029
     41 H        0.023     -0.056
     42 H       -0.199     -0.347
     45 H       -0.049     -0.031
     46 H       -0.191     -0.035
     47 H       -0.017      0.035
     48 H        4.440     12.637
     52 H       -0.093     -0.267
     53 H       -0.385      0.098
     57 H        0.816     -0.118
     58 H       -0.021      0.002
     61 H       -0.008      0.003
     62 H       -0.010     -0.002
     63 H       -0.019      0.004
     64 H        0.000      0.001
     65 H       -0.000     -0.000
     66 H        0.009     -0.000
     67 H       -0.002      0.000
     68 H        0.001     -0.000
     69 H        0.000      0.000
     70 H      -13.200    -12.513
     71 H        0.000    -12.423
     72 H      -12.423      0.000

Maximum memory used throughout the entire EPRNMR-calculation: 970.6 MB

Timings for individual modules:

Sum of individual times         ...      391.991 sec (=   6.533 min)
GTO integral calculation        ...        0.633 sec (=   0.011 min)   0.2 %
SCF iterations                  ...      105.034 sec (=   1.751 min)  26.8 %
EPR/NMR calculation             ...      286.323 sec (=   4.772 min)  73.0 %
                             ****ORCA TERMINATED NORMALLY****
TOTAL RUN TIME: 0 days 0 hours 6 minutes 32 seconds 449 msec
