
                                 *****************
                                 * O   R   C   A *
                                 *****************

                                            #,                                       
                                            ###                                      
                                            ####                                     
                                            #####                                    
                                            ######                                   
                                           ########,                                 
                                     ,,################,,,,,                         
                               ,,#################################,,                 
                          ,,##########################################,,             
                       ,#########################################, ''#####,          
                    ,#############################################,,   '####,        
                  ,##################################################,,,,####,       
                ,###########''''           ''''###############################       
              ,#####''   ,,,,##########,,,,          '''####'''          '####       
            ,##' ,,,,###########################,,,                        '##       
           ' ,,###''''                  '''############,,,                           
         ,,##''                                '''############,,,,        ,,,,,,###''
      ,#''                                            '''#######################'''  
     '                                                          ''''####''''         
             ,#######,   #######,   ,#######,      ##                                
            ,#'     '#,  ##    ##  ,#'     '#,    #''#        ######   ,####,        
            ##       ##  ##   ,#'  ##            #'  '#       #        #'  '#        
            ##       ##  #######   ##           ,######,      #####,   #    #        
            '#,     ,#'  ##    ##  '#,     ,#' ,#      #,         ##   #,  ,#        
             '#######'   ##     ##  '#######'  #'      '#     #####' # '####'        



                  #######################################################
                  #                        -***-                        #
                  #          Department of theory and spectroscopy      #
                  #    Directorship and core code : Frank Neese         #
                  #        Max Planck Institute fuer Kohlenforschung    #
                  #                Kaiser Wilhelm Platz 1               #
                  #                 D-45470 Muelheim/Ruhr               #
                  #                      Germany                        #
                  #                                                     #
                  #                  All rights reserved                #
                  #                        -***-                        #
                  #######################################################


                         Program Version 5.0.2 -  RELEASE  -


 With contributions from (in alphabetic order):
   Daniel Aravena         : Magnetic Suceptibility
   Michael Atanasov       : Ab Initio Ligand Field Theory (pilot matlab implementation)
   Alexander A. Auer      : GIAO ZORA, VPT2 properties, NMR spectrum
   Ute Becker             : Parallelization
   Giovanni Bistoni       : ED, misc. LED, open-shell LED, HFLD
   Martin Brehm           : Molecular dynamics
   Dmytro Bykov           : SCF Hessian
   Vijay G. Chilkuri      : MRCI spin determinant printing, contributions to CSF-ICE
   Dipayan Datta          : RHF DLPNO-CCSD density
   Achintya Kumar Dutta   : EOM-CC, STEOM-CC
   Dmitry Ganyushin       : Spin-Orbit,Spin-Spin,Magnetic field MRCI
   Miquel Garcia          : C-PCM and meta-GGA Hessian, CC/C-PCM, Gaussian charge scheme
   Yang Guo               : DLPNO-NEVPT2, F12-NEVPT2, CIM, IAO-localization
   Andreas Hansen         : Spin unrestricted coupled pair/coupled cluster methods
   Benjamin Helmich-Paris : MC-RPA, TRAH-SCF, COSX integrals
   Lee Huntington         : MR-EOM, pCC
   Robert Izsak           : Overlap fitted RIJCOSX, COSX-SCS-MP3, EOM
   Marcus Kettner         : VPT2
   Christian Kollmar      : KDIIS, OOCD, Brueckner-CCSD(T), CCSD density, CASPT2, CASPT2-K
   Simone Kossmann        : Meta GGA functionals, TD-DFT gradient, OOMP2, MP2 Hessian
   Martin Krupicka        : Initial AUTO-CI
   Lucas Lang             : DCDCAS
   Marvin Lechner         : AUTO-CI (C++ implementation), FIC-MRCC
   Dagmar Lenk            : GEPOL surface, SMD
   Dimitrios Liakos       : Extrapolation schemes; Compound Job, initial MDCI parallelization
   Dimitrios Manganas     : Further ROCIS development; embedding schemes
   Dimitrios Pantazis     : SARC Basis sets
   Anastasios Papadopoulos: AUTO-CI, single reference methods and gradients
   Taras Petrenko         : DFT Hessian,TD-DFT gradient, ASA, ECA, R-Raman, ABS, FL, XAS/XES, NRVS
   Peter Pinski           : DLPNO-MP2, DLPNO-MP2 Gradient
   Christoph Reimann      : Effective Core Potentials
   Marius Retegan         : Local ZFS, SOC
   Christoph Riplinger    : Optimizer, TS searches, QM/MM, DLPNO-CCSD(T), (RO)-DLPNO pert. Triples
   Tobias Risthaus        : Range-separated hybrids, TD-DFT gradient, RPA, STAB
   Michael Roemelt        : Original ROCIS implementation
   Masaaki Saitow         : Open-shell DLPNO-CCSD energy and density
   Barbara Sandhoefer     : DKH picture change effects
   Avijit Sen             : IP-ROCIS
   Kantharuban Sivalingam : CASSCF convergence, NEVPT2, FIC-MRCI
   Bernardo de Souza      : ESD, SOC TD-DFT
   Georgi Stoychev        : AutoAux, RI-MP2 NMR, DLPNO-MP2 response
   Willem Van den Heuvel  : Paramagnetic NMR
   Boris Wezisla          : Elementary symmetry handling
   Frank Wennmohs         : Technical directorship


 We gratefully acknowledge several colleagues who have allowed us to
 interface, adapt or use parts of their codes:
   Stefan Grimme, W. Hujo, H. Kruse, P. Pracht,  : VdW corrections, initial TS optimization,
                  C. Bannwarth, S. Ehlert          DFT functionals, gCP, sTDA/sTD-DF
   Ed Valeev, F. Pavosevic, A. Kumar             : LibInt (2-el integral package), F12 methods
   Garnet Chan, S. Sharma, J. Yang, R. Olivares  : DMRG
   Ulf Ekstrom                                   : XCFun DFT Library
   Mihaly Kallay                                 : mrcc  (arbitrary order and MRCC methods)
   Jiri Pittner, Ondrej Demel                    : Mk-CCSD
   Frank Weinhold                                : gennbo (NPA and NBO analysis)
   Christopher J. Cramer and Donald G. Truhlar   : smd solvation model
   Lars Goerigk                                  : TD-DFT with DH, B97 family of functionals
   V. Asgeirsson, H. Jonsson                     : NEB implementation
   FAccTs GmbH                                   : IRC, NEB, NEB-TS, DLPNO-Multilevel, CI-OPT
                                                   MM, QMMM, 2- and 3-layer-ONIOM, Crystal-QMMM,
                                                   LR-CPCM, SF, NACMEs, symmetry and pop. for TD-DFT,
                                                   nearIR, NL-DFT gradient (VV10), updates on ESD,
                                                   ML-optimized integration grids
   S Lehtola, MJT Oliveira, MAL Marques          : LibXC Library
   Liviu Ungur et al                             : ANISO software


 Your calculation uses the libint2 library for the computation of 2-el integrals
 For citations please refer to: http://libint.valeyev.net

 Your ORCA version has been built with support for libXC version: 5.1.0
 For citations please refer to: https://tddft.org/programs/libxc/

 This ORCA versions uses:
   CBLAS   interface :  Fast vector & matrix operations
   LAPACKE interface :  Fast linear algebra routines
   SCALAPACK package :  Parallel linear algebra routines
   Shared memory     :  Shared parallel matrices
   BLAS/LAPACK       :  OpenBLAS 0.3.15  USE64BITINT DYNAMIC_ARCH NO_AFFINITY Zen SINGLE_THREADED
        Core in use  :  Zen
   Copyright (c) 2011-2014, The OpenBLAS Project


Your calculation utilizes the atom-pairwise dispersion correction
based on tight binding partial charges (D4)
Cite in your paper:
E.Caldeweyher, C.Bannwarth, S.Grimme, J.Chem.Phys., (2017), 147, 034112.
E.Caldeweyher, S.Ehlert, A.Hansen, H.Neugebauer, S.Grimme, J.Chem.Phys., (2018), in progress.
   

================================================================================

----- Orbital basis set information -----
Your calculation utilizes the basis: pcSseg-1
   F. Jensen, J. Chem. Theory Comput. 11, 132 (2015).

----- AuxJ basis set information -----
Your calculation utilizes the auxiliary basis: def2/J
   F. Weigend, Phys. Chem. Chem. Phys. 8, 1057 (2006).

================================================================================
                                        WARNINGS
                       Please study these warnings very carefully!
================================================================================



WARNING: Found flag for RIJCOSX approximation but no HF exchange needed!
  ===> : RIJCOSX  will be disabled and Split-RI-J is turned on

INFO   : the flag for use of the SHARK integral package has been found!

================================================================================
                                       INPUT FILE
================================================================================
NAME = inpS
|  1> ! revTPSS
|  2> ! D4
|  3> ! pcSseg-1
|  4> ! def2/J RIJCOSX
|  5> ! DEFGRID2
|  6> ! scfconv7
|  7> ! smallprint printgap noloewdin
|  8> ! NOSOSCF
|  9> %MaxCore 4000
| 10> %output
| 11>        print[P_BondOrder_M] 1
| 12>        print[P_Mayer] 1
| 13>        print[P_basis] 2
| 14> end
| 15> %pal
| 16>     nprocs 4
| 17> end
| 18> ! CPCM(chloroform)
| 19> *xyz 0 1
| 20> C   -5.0048251900   0.3546378800   0.3352610700
| 21> C   -6.4215642700  -0.0386852000  -0.0107683400
| 22> C   -6.9472907000   0.7414970100  -1.2218645000
| 23> H   -7.0843951100   0.1936421000   0.8400927500
| 24> H   -6.4887352900  -1.1152955500  -0.2022594100
| 25> C   -4.7938798600   1.8126338200   0.4590143900
| 26> C   -5.3658507200   2.6266023500  -0.6798217400
| 27> C   -6.8207919800   2.2414204600  -0.9799961200
| 28> H   -4.7629540800   2.4347586200  -1.5804543100
| 29> H   -5.2878919700   3.6959137200  -0.4567434300
| 30> H   -7.1853394900   2.7891332000  -1.8570191100
| 31> H   -7.4590883500   2.5153023900  -0.1263764700
| 32> O   -8.2936676100   0.3639438200  -1.5381265400
| 33> H   -6.3606714600   0.4639830700  -2.1088368500
| 34> C   -4.0356632100  -0.5821473000   0.4644119000
| 35> C   -4.1893972800   2.3825379500   1.5077776800
| 36> H   -3.8066926900   1.7879010200   2.3325796600
| 37> H   -4.0745135400   3.4622174900   1.5679887500
| 38> C   -2.6306794200  -0.3382712600   0.6955992900
| 39> H   -4.3491908900  -1.6176636700   0.3395154400
| 40> C   -1.6778221900  -1.2735890400   0.8971844700
| 41> H   -2.3230533200   0.7049307500   0.6930164000
| 42> C   -1.9086404400  -2.7611728400   0.9790603100
| 43> C   -0.9880801400  -3.5350452200   0.0171091000
| 44> H   -2.9519834600  -3.0307799000   0.7939361600
| 45> H   -1.6762796500  -3.0808052700   2.0075865000
| 46> C    0.4873051700  -3.1388470500   0.1632845300
| 47> H   -1.3187912800  -3.3588051500  -1.0142986900
| 48> H   -1.0986605900  -4.6109068900   0.2002335300
| 49> C    0.6883824500  -1.6230578300   0.0234133400
| 50> H    1.0772384300  -3.6905630500  -0.5755410000
| 51> H    0.8481230300  -3.4464416400   1.1564145000
| 52> C   -0.2306020100  -0.9323459500   1.0811443600
| 53> H    0.0732937000  -1.3802317400   2.0453391100
| 54> C    0.2389287600   0.5185185300   1.0926598300
| 55> H   -8.8475283400   0.5975863900  -0.7812080500
| 56> C    1.7679379200   0.4066468700   0.8748528200
| 57> H   -0.0212244000   1.0292652100   2.0257171400
| 58> H   -0.2240931000   1.0827427000   0.2755136200
| 59> C    2.0692173900  -1.0714662100   0.4781224900
| 60> H    2.3250213300   0.6879998300   1.7740851000
| 61> H    2.0928483800   1.0870888700   0.0783556200
| 62> H    2.3442006700  -1.6281197700   1.3886391100
| 63> C    3.2731107700  -1.1807378000  -0.4897646400
| 64> C    0.3468943100  -1.1470358600  -1.3948149900
| 65> H   -0.7203243300  -1.2607532600  -1.6088037000
| 66> H    0.9037530100  -1.7232221700  -2.1417513200
| 67> H    0.5969270300  -0.0909033300  -1.5369133700
| 68> H    3.0197996700  -0.5842194100  -1.3823946700
| 69> C    3.5628882100  -2.6110515900  -0.9407005700
| 70> C    4.4664284500  -0.5104327000   0.1519530700
| 71> C    5.6023854500  -1.1011377300   0.5252400200
| 72> H    4.3411497900   0.5554391300   0.3356525600
| 73> H    5.7231459100  -2.1707793800   0.3442355500
| 74> C    6.8003971400  -0.4633326300   1.1896874700
| 75> C    7.2558394300  -1.3529944400   2.3591407000
| 76> C    6.6150264900   1.0165485900   1.5880937400
| 77> H    7.6141647700  -0.4856061900   0.4441754500
| 78> H    6.1597518500   1.5231117600   0.7248901300
| 79> C    7.9609346400   1.7023311900   1.8440059900
| 80> C    5.6893035900   1.2026359000   2.7950522700
| 81> H    7.4971437200  -2.3587504800   1.9986334000
| 82> H    6.4658430500  -1.4509586600   3.1113587300
| 83> H    8.1485304000  -0.9510681800   2.8487496200
| 84> H    7.8167741300   2.7712818200   2.0372102100
| 85> H    8.6297873200   1.6011610600   0.9817024800
| 86> H    8.4669348000   1.2766514400   2.7180823500
| 87> H    6.1773948900   0.8619258200   3.7155450000
| 88> H    4.7547837000   0.6439298100   2.6833858000
| 89> H    5.4401688300   2.2615218400   2.9266956600
| 90> H    4.4877908400  -2.6521614000  -1.5260669000
| 91> H    2.7575677100  -2.9950081400  -1.5698801800
| 92> H    3.6728640600  -3.2855577900  -0.0832720800
| 93> *
| 94> %eprnmr
| 95>  Nuclei = all H { shift }
| 96>  origin giao
| 97>  giao_2el giao_2el_same_as_scf
| 98>  giao_1el giao_1el_analytic
| 99> end
|100> 
|101>                          ****END OF INPUT****
================================================================================

                       ****************************
                       * Single Point Calculation *
                       ****************************

---------------------------------
CARTESIAN COORDINATES (ANGSTROEM)
---------------------------------
  C     -5.004825    0.354638    0.335261
  C     -6.421564   -0.038685   -0.010768
  C     -6.947291    0.741497   -1.221864
  H     -7.084395    0.193642    0.840093
  H     -6.488735   -1.115296   -0.202259
  C     -4.793880    1.812634    0.459014
  C     -5.365851    2.626602   -0.679822
  C     -6.820792    2.241420   -0.979996
  H     -4.762954    2.434759   -1.580454
  H     -5.287892    3.695914   -0.456743
  H     -7.185339    2.789133   -1.857019
  H     -7.459088    2.515302   -0.126376
  O     -8.293668    0.363944   -1.538127
  H     -6.360671    0.463983   -2.108837
  C     -4.035663   -0.582147    0.464412
  C     -4.189397    2.382538    1.507778
  H     -3.806693    1.787901    2.332580
  H     -4.074514    3.462217    1.567989
  C     -2.630679   -0.338271    0.695599
  H     -4.349191   -1.617664    0.339515
  C     -1.677822   -1.273589    0.897184
  H     -2.323053    0.704931    0.693016
  C     -1.908640   -2.761173    0.979060
  C     -0.988080   -3.535045    0.017109
  H     -2.951983   -3.030780    0.793936
  H     -1.676280   -3.080805    2.007586
  C      0.487305   -3.138847    0.163285
  H     -1.318791   -3.358805   -1.014299
  H     -1.098661   -4.610907    0.200234
  C      0.688382   -1.623058    0.023413
  H      1.077238   -3.690563   -0.575541
  H      0.848123   -3.446442    1.156414
  C     -0.230602   -0.932346    1.081144
  H      0.073294   -1.380232    2.045339
  C      0.238929    0.518519    1.092660
  H     -8.847528    0.597586   -0.781208
  C      1.767938    0.406647    0.874853
  H     -0.021224    1.029265    2.025717
  H     -0.224093    1.082743    0.275514
  C      2.069217   -1.071466    0.478122
  H      2.325021    0.688000    1.774085
  H      2.092848    1.087089    0.078356
  H      2.344201   -1.628120    1.388639
  C      3.273111   -1.180738   -0.489765
  C      0.346894   -1.147036   -1.394815
  H     -0.720324   -1.260753   -1.608804
  H      0.903753   -1.723222   -2.141751
  H      0.596927   -0.090903   -1.536913
  H      3.019800   -0.584219   -1.382395
  C      3.562888   -2.611052   -0.940701
  C      4.466428   -0.510433    0.151953
  C      5.602385   -1.101138    0.525240
  H      4.341150    0.555439    0.335653
  H      5.723146   -2.170779    0.344236
  C      6.800397   -0.463333    1.189687
  C      7.255839   -1.352994    2.359141
  C      6.615026    1.016549    1.588094
  H      7.614165   -0.485606    0.444175
  H      6.159752    1.523112    0.724890
  C      7.960935    1.702331    1.844006
  C      5.689304    1.202636    2.795052
  H      7.497144   -2.358750    1.998633
  H      6.465843   -1.450959    3.111359
  H      8.148530   -0.951068    2.848750
  H      7.816774    2.771282    2.037210
  H      8.629787    1.601161    0.981702
  H      8.466935    1.276651    2.718082
  H      6.177395    0.861926    3.715545
  H      4.754784    0.643930    2.683386
  H      5.440169    2.261522    2.926696
  H      4.487791   -2.652161   -1.526067
  H      2.757568   -2.995008   -1.569880
  H      3.672864   -3.285558   -0.083272

----------------------------
CARTESIAN COORDINATES (A.U.)
----------------------------
  NO LB      ZA    FRAG     MASS         X           Y           Z
   0 C     6.0000    0    12.011   -9.457749    0.670168    0.633552
   1 C     6.0000    0    12.011  -12.134998   -0.073104   -0.020349
   2 C     6.0000    0    12.011  -13.128477    1.401226   -2.308989
   3 H     1.0000    0     1.008  -13.387567    0.365931    1.587545
   4 H     1.0000    0     1.008  -12.261933   -2.107603   -0.382215
   5 C     6.0000    0    12.011   -9.059120    3.425382    0.867411
   6 C     6.0000    0    12.011  -10.139988    4.963559   -1.284677
   7 C     6.0000    0    12.011  -12.889429    4.235671   -1.851924
   8 H     1.0000    0     1.008   -9.000679    4.601027   -2.986626
   9 H     1.0000    0     1.008   -9.992668    6.984265   -0.863120
  10 H     1.0000    0     1.008  -13.578324    5.270698   -3.509258
  11 H     1.0000    0     1.008  -14.095634    4.753233   -0.238817
  12 O     8.0000    0    15.999  -15.672760    0.687754   -2.906638
  13 H     1.0000    0     1.008  -12.019927    0.876801   -3.985124
  14 C     6.0000    0    12.011   -7.626298   -1.100099    0.877611
  15 C     6.0000    0    12.011   -7.916814    4.502344    2.849287
  16 H     1.0000    0     1.008   -7.193607    3.378643    4.407937
  17 H     1.0000    0     1.008   -7.699715    6.542643    2.963069
  18 C     6.0000    0    12.011   -4.971264   -0.639240    1.314492
  19 H     1.0000    0     1.008   -8.218780   -3.056941    0.641591
  20 C     6.0000    0    12.011   -3.170624   -2.406734    1.695433
  21 H     1.0000    0     1.008   -4.389935    1.332126    1.309611
  22 C     6.0000    0    12.011   -3.606808   -5.217860    1.850156
  23 C     6.0000    0    12.011   -1.867201   -6.680267    0.032332
  24 H     1.0000    0     1.008   -5.578440   -5.727344    1.500322
  25 H     1.0000    0     1.008   -3.167709   -5.821878    3.793789
  26 C     6.0000    0    12.011    0.920873   -5.931561    0.308563
  27 H     1.0000    0     1.008   -2.492154   -6.347222   -1.916747
  28 H     1.0000    0     1.008   -2.076168   -8.713351    0.378387
  29 C     6.0000    0    12.011    1.300854   -3.067135    0.044245
  30 H     1.0000    0     1.008    2.035686   -6.974153   -1.087615
  31 H     1.0000    0     1.008    1.602720   -6.512831    2.185307
  32 C     6.0000    0    12.011   -0.435775   -1.761879    2.043067
  33 H     1.0000    0     1.008    0.138505   -2.608260    3.865131
  34 C     6.0000    0    12.011    0.451510    0.979858    2.064828
  35 H     1.0000    0     1.008  -16.719406    1.129275   -1.476269
  36 C     6.0000    0    12.011    3.340918    0.768451    1.653232
  37 H     1.0000    0     1.008   -0.040108    1.945029    3.828051
  38 H     1.0000    0     1.008   -0.423475    2.046087    0.520645
  39 C     6.0000    0    12.011    3.910254   -2.024778    0.903521
  40 H     1.0000    0     1.008    4.393654    1.300131    3.352535
  41 H     1.0000    0     1.008    3.954910    2.054300    0.148071
  42 H     1.0000    0     1.008    4.429897   -3.076700    2.624148
  43 C     6.0000    0    12.011    6.185283   -2.231271   -0.925521
  44 C     6.0000    0    12.011    0.655535   -2.167584   -2.635818
  45 H     1.0000    0     1.008   -1.361216   -2.382478   -3.040198
  46 H     1.0000    0     1.008    1.707846   -3.256418   -4.047323
  47 H     1.0000    0     1.008    1.128029   -0.171782   -2.904345
  48 H     1.0000    0     1.008    5.706594   -1.104015   -2.612347
  49 C     6.0000    0    12.011    6.732883   -4.934172   -1.777666
  50 C     6.0000    0    12.011    8.440327   -0.964578    0.287150
  51 C     6.0000    0    12.011   10.586974   -2.080849    0.992560
  52 H     1.0000    0     1.008    8.203584    1.049628    0.634291
  53 H     1.0000    0     1.008   10.815178   -4.102179    0.650511
  54 C     6.0000    0    12.011   12.850888   -0.875572    2.248184
  55 C     6.0000    0    12.011   13.711549   -2.556789    4.458130
  56 C     6.0000    0    12.011   12.500588    1.920998    3.001062
  57 H     1.0000    0     1.008   14.388686   -0.917663    0.839370
  58 H     1.0000    0     1.008   11.640244    2.878264    1.369844
  59 C     6.0000    0    12.011   15.043986    3.216940    3.484666
  60 C     6.0000    0    12.011   10.751226    2.272652    5.281883
  61 H     1.0000    0     1.008   14.167548   -4.457392    3.776870
  62 H     1.0000    0     1.008   12.218673   -2.741914    5.879616
  63 H     1.0000    0     1.008   15.398491   -1.797258    5.383357
  64 H     1.0000    0     1.008   14.771562    5.236964    3.849769
  65 H     1.0000    0     1.008   16.307935    3.025756    1.855149
  66 H     1.0000    0     1.008   16.000188    2.412522    5.136431
  67 H     1.0000    0     1.008   11.673585    1.628804    7.021362
  68 H     1.0000    0     1.008    8.985239    1.216851    5.070864
  69 H     1.0000    0     1.008   10.280429    4.273657    5.530653
  70 H     1.0000    0     1.008    8.480696   -5.011859   -2.883849
  71 H     1.0000    0     1.008    5.211048   -5.659745   -2.966644
  72 H     1.0000    0     1.008    6.940707   -6.208804   -0.157361

--------------------------------
INTERNAL COORDINATES (ANGSTROEM)
--------------------------------
 C      0   0   0     0.000000000000     0.00000000     0.00000000
 C      1   0   0     1.510492972061     0.00000000     0.00000000
 C      2   1   0     1.533566584393   111.71415367     0.00000000
 H      2   1   3     1.103306526427   109.38895502   241.45405112
 H      2   1   3     1.095568629318   110.69754458   122.86718261
 C      1   2   3     1.478365644053   114.19316823    50.56250317
 C      6   1   2     1.512165058290   114.44686568   312.10162854
 C      3   2   1     1.524556524129   110.29073358   304.90755316
 H      7   6   1     1.100648627587   108.37549307   289.80386445
 H      7   6   1     1.095111092586   110.19764445   172.63203925
 H      8   3   2     1.096381985256   109.69398457   179.16835030
 H      8   3   2     1.100499920219   108.64973540   296.60673911
 O      3   2   1     1.433631358825   111.23446247   180.21386508
 H      3   2   1     1.099025053990   109.02065353    65.04428435
 C      1   2   3     1.354075830164   120.86485143   232.73756497
 C      6   1   2     1.337944074080   123.37862668   129.91742155
 H     16   6   1     1.086441065101   121.40628134     0.65469926
 H     16   6   1     1.087442667804   120.93377479   181.35210406
 C     15   1   2     1.444611567981   126.48231183   175.24590211
 H     15   1   2     1.089124824979   116.15466057   357.93030757
 C     19  15   1     1.350330639193   126.38785508   176.09486583
 H     19  15   1     1.087617084451   115.88899229   355.34971191
 C     21  19  15     1.507609458624   125.69914319   357.18994136
 C     23  21  19     1.540019433930   111.73980824   127.62274619
 H     23  21  19     1.093400006904   112.34603981     3.53122404
 H     23  21  19     1.101826914970   107.73698976   246.26535933
 C     24  23  21     1.534634177650   112.67170829    50.98817289
 H     24  23  21     1.097375254718   109.04065535   288.88561992
 H     24  23  21     1.096923391017   109.16688777   172.90413422
 C     27  24  23     1.535452044771   111.84448451   306.07369556
 H     27  24  23     1.094657462264   108.88714456   182.47821974
 H     27  24  23     1.100504928296   109.20841818    66.02480148
 C     21  19  15     1.498243750863   122.83248341   177.73538580
 H     33  21  19     1.105724106352   106.27745669   124.14446455
 C     33  21  19     1.524991635830   120.99902119     1.93930002
 H     13   3   2     0.966579618684   107.56133528    62.64826911
 C     35  33  21     1.548490934194   103.54571394   196.39762346
 H     35  33  21     1.095051497206   112.14982636    74.45178075
 H     35  33  21     1.095657832248   110.74362150   314.80623504
 C     30  27  24     1.554901558901   116.09481317   166.20542216
 H     37  35  33     1.094586728949   111.61801960   249.18563663
 H     37  35  33     1.096802585696   110.47706847   130.70964437
 H     40  30  27     1.102052405939   106.49991117   320.67978450
 C     40  30  27     1.548581624329   118.85396319    80.99009411
 C     30  27  24     1.534464943131   111.17991886   294.31228887
 H     45  30  27     1.094384959981   111.43883060    66.61206001
 H     45  30  27     1.095443360777   110.72643994   306.47416013
 H     45  30  27     1.094588612947   111.62135963   186.58547725
 H     44  40  30     1.103081625923   106.80334545    62.41592472
 C     44  40  30     1.527452688486   113.45810865   303.38755491
 C     44  40  30     1.511660554428   108.48667581   176.92788700
 C     51  44  40     1.333669331340   126.49838009   115.63848749
 H     51  44  40     1.088817249710   114.51119137   297.28066085
 H     52  51  44     1.091548884052   118.80604185     1.41016580
 C     52  51  44     1.511131287736   127.69008219   181.17054014
 C     55  52  51     1.538358434452   108.95826632   134.27486240
 C     55  52  51     1.543741642622   115.01727203     5.97671750
 H     55  52  51     1.103857798394   106.19876802   248.60117452
 H     57  55  52     1.099546140616   106.78361176   313.85730554
 C     57  55  52     1.532076239095   111.51351278   197.56393523
 C     57  55  52     1.532429531061   113.09227472    72.74832418
 H     56  55  52     1.095325744116   110.24557853    58.01262089
 H     56  55  52     1.095227480239   111.11821066   298.77306055
 H     56  55  52     1.094604394720   111.66159695   177.74494926
 H     60  57  55     1.095794493802   110.51974411   174.93636007
 H     60  57  55     1.095977484306   111.30793797    54.92351730
 H     60  57  55     1.096015006554   111.40364843   294.25133882
 H     61  57  55     1.096185815331   110.77223628    71.43667252
 H     61  57  55     1.094508711857   111.92816820   310.98122553
 H     61  57  55     1.095736074381   110.44596576   190.42650777
 H     50  44  40     1.095348634799   110.67738450   186.61595647
 H     50  44  40     1.091709998877   111.07153098    67.21070376
 H     50  44  40     1.096465647836   111.35897417   306.84913416

---------------------------
INTERNAL COORDINATES (A.U.)
---------------------------
 C      0   0   0     0.000000000000     0.00000000     0.00000000
 C      1   0   0     2.854418044408     0.00000000     0.00000000
 C      2   1   0     2.898020852636   111.71415367     0.00000000
 H      2   1   3     2.084947176715   109.38895502   241.45405112
 H      2   1   3     2.070324670326   110.69754458   122.86718261
 C      1   2   3     2.793706193058   114.19316823    50.56250317
 C      6   1   2     2.857577829453   114.44686568   312.10162854
 C      3   2   1     2.880994306287   110.29073358   304.90755316
 H      7   6   1     2.079924475815   108.37549307   289.80386445
 H      7   6   1     2.069460051207   110.19764445   172.63203925
 H      8   3   2     2.071861690299   109.69398457   179.16835030
 H      8   3   2     2.079643459616   108.64973540   296.60673911
 O      3   2   1     2.709170645180   111.23446247   180.21386508
 H      3   2   1     2.076856366359   109.02065353    65.04428435
 C      1   2   3     2.558832483572   120.86485143   232.73756497
 C      6   1   2     2.528347882514   123.37862668   129.91742155
 H     16   6   1     2.053076073687   121.40628134     0.65469926
 H     16   6   1     2.054968828491   120.93377479   181.35210406
 C     15   1   2     2.729920233378   126.48231183   175.24590211
 H     15   1   2     2.058147644864   116.15466057   357.93030757
 C     19  15   1     2.551755098317   126.38785508   176.09486583
 H     19  15   1     2.055298428187   115.88899229   355.34971191
 C     21  19  15     2.848968993708   125.69914319   357.18994136
 C     23  21  19     2.910214971045   111.73980824   127.62274619
 H     23  21  19     2.066226567876   112.34603981     3.53122404
 H     23  21  19     2.082151116277   107.73698976   246.26535933
 C     24  23  21     2.900038311514   112.67170829    50.98817289
 H     24  23  21     2.073738697558   109.04065535   288.88561992
 H     24  23  21     2.072884798914   109.16688777   172.90413422
 C     27  24  23     2.901583856387   111.84448451   306.07369556
 H     27  24  23     2.068602814132   108.88714456   182.47821974
 H     27  24  23     2.079652923511   109.20841818    66.02480148
 C     21  19  15     2.831270370990   122.83248341   177.73538580
 H     33  21  19     2.089515740680   106.27745669   124.14446455
 C     33  21  19     2.881816548239   120.99902119     1.93930002
 H     13   3   2     1.826570765944   107.56133528    62.64826911
 C     35  33  21     2.926223786486   103.54571394   196.39762346
 H     35  33  21     2.069347432260   112.14982636    74.45178075
 H     35  33  21     2.070493239435   110.74362150   314.80623504
 C     30  27  24     2.938338111530   116.09481317   166.20542216
 H     37  35  33     2.068469147539   111.61801960   249.18563663
 H     37  35  33     2.072656509942   110.47706847   130.70964437
 H     40  30  27     2.082577232454   106.49991117   320.67978450
 C     40  30  27     2.926395166004   118.85396319    80.99009411
 C     30  27  24     2.899718504621   111.17991886   294.31228887
 H     45  30  27     2.068087859447   111.43883060    66.61206001
 H     45  30  27     2.070087947091   110.72643994   306.47416013
 H     45  30  27     2.068472707779   111.62135963   186.58547725
 H     44  40  30     2.084522176355   106.80334545    62.41592472
 C     44  40  30     2.886467263760   113.45810865   303.38755491
 C     44  40  30     2.856624455321   108.48667581   176.92788700
 C     51  44  40     2.520269789442   126.49838009   115.63848749
 H     51  44  40     2.057566411841   114.51119137   297.28066085
 H     52  51  44     2.062728452645   118.80604185     1.41016580
 C     52  51  44     2.855624286220   127.69008219   181.17054014
 C     55  52  51     2.907076136923   108.95826632   134.27486240
 C     55  52  51     2.917248926085   115.01727203     5.97671750
 H     55  52  51     2.085988929758   106.19876802   248.60117452
 H     57  55  52     2.077841077375   106.78361176   313.85730554
 C     57  55  52     2.895204508177   111.51351278   197.56393523
 C     57  55  52     2.895872133238   113.09227472    72.74832418
 H     56  55  52     2.069865683812   110.24557853    58.01262089
 H     56  55  52     2.069679991996   111.11821066   298.77306055
 H     56  55  52     2.068502531008   111.66159695   177.74494926
 H     60  57  55     2.070751492345   110.51974411   174.93636007
 H     60  57  55     2.071097294282   111.30793797    54.92351730
 H     60  57  55     2.071168201054   111.40364843   294.25133882
 H     61  57  55     2.071490982864   110.77223628    71.43667252
 H     61  57  55     2.068321716601   111.92816820   310.98122553
 H     61  57  55     2.070641095639   110.44596576   190.42650777
 H     50  44  40     2.069908940935   110.67738450   186.61595647
 H     50  44  40     2.063032915541   111.07153098    67.21070376
 H     50  44  40     2.072019789663   111.35897417   306.84913416

---------------------
BASIS SET INFORMATION
---------------------
There are 3 groups of distinct atoms

 Group   1 Type C   : 8s5p1d contracted to 3s3p1d pattern {521/311/1}
 Group   2 Type H   : 4s2p contracted to 2s1p pattern {31/2}
 Group   3 Type O   : 8s5p1d contracted to 3s3p1d pattern {521/311/1}

Atom   0C    basis set group =>   1
Atom   1C    basis set group =>   1
Atom   2C    basis set group =>   1
Atom   3H    basis set group =>   2
Atom   4H    basis set group =>   2
Atom   5C    basis set group =>   1
Atom   6C    basis set group =>   1
Atom   7C    basis set group =>   1
Atom   8H    basis set group =>   2
Atom   9H    basis set group =>   2
Atom  10H    basis set group =>   2
Atom  11H    basis set group =>   2
Atom  12O    basis set group =>   3
Atom  13H    basis set group =>   2
Atom  14C    basis set group =>   1
Atom  15C    basis set group =>   1
Atom  16H    basis set group =>   2
Atom  17H    basis set group =>   2
Atom  18C    basis set group =>   1
Atom  19H    basis set group =>   2
Atom  20C    basis set group =>   1
Atom  21H    basis set group =>   2
Atom  22C    basis set group =>   1
Atom  23C    basis set group =>   1
Atom  24H    basis set group =>   2
Atom  25H    basis set group =>   2
Atom  26C    basis set group =>   1
Atom  27H    basis set group =>   2
Atom  28H    basis set group =>   2
Atom  29C    basis set group =>   1
Atom  30H    basis set group =>   2
Atom  31H    basis set group =>   2
Atom  32C    basis set group =>   1
Atom  33H    basis set group =>   2
Atom  34C    basis set group =>   1
Atom  35H    basis set group =>   2
Atom  36C    basis set group =>   1
Atom  37H    basis set group =>   2
Atom  38H    basis set group =>   2
Atom  39C    basis set group =>   1
Atom  40H    basis set group =>   2
Atom  41H    basis set group =>   2
Atom  42H    basis set group =>   2
Atom  43C    basis set group =>   1
Atom  44C    basis set group =>   1
Atom  45H    basis set group =>   2
Atom  46H    basis set group =>   2
Atom  47H    basis set group =>   2
Atom  48H    basis set group =>   2
Atom  49C    basis set group =>   1
Atom  50C    basis set group =>   1
Atom  51C    basis set group =>   1
Atom  52H    basis set group =>   2
Atom  53H    basis set group =>   2
Atom  54C    basis set group =>   1
Atom  55C    basis set group =>   1
Atom  56C    basis set group =>   1
Atom  57H    basis set group =>   2
Atom  58H    basis set group =>   2
Atom  59C    basis set group =>   1
Atom  60C    basis set group =>   1
Atom  61H    basis set group =>   2
Atom  62H    basis set group =>   2
Atom  63H    basis set group =>   2
Atom  64H    basis set group =>   2
Atom  65H    basis set group =>   2
Atom  66H    basis set group =>   2
Atom  67H    basis set group =>   2
Atom  68H    basis set group =>   2
Atom  69H    basis set group =>   2
Atom  70H    basis set group =>   2
Atom  71H    basis set group =>   2
Atom  72H    basis set group =>   2

-------------------------
BASIS SET IN INPUT FORMAT
-------------------------

 # Basis set for element : H 
 NewGTO H 
 S 3 
   1      12.2518000000      0.0372173893
   2       1.8687100000      0.2538082070
   3       0.4182080000      0.7973867639
 S 1 
   1       0.1061000000      1.0000000000
 P 2 
   1       9.0000000000      0.0402678705
   2       1.0000000000      0.9880231245
  end;

 # Basis set for element : C 
 NewGTO C 
 S 5 
   1    1243.2000000000      0.0056300977
   2     187.1450000000      0.0419506039
   3      42.5126000000      0.1846643605
   4      11.7393000000      0.4665574214
   5       3.5054800000      0.4482347783
 S 2 
   1       5.3908900000     -0.1481148174
   2       0.4933410000      1.0519817143
 S 1 
   1       0.1497410000      1.0000000000
 P 3 
   1      59.6736000000      0.0113906672
   2       9.1805600000      0.1672414929
   3       1.9365800000      0.9041087436
 P 1 
   1       0.5262960000      1.0000000000
 P 1 
   1       0.1363190000      1.0000000000
 D 1 
   1       0.8000000000      1.0000000000
  end;

 # Basis set for element : O 
 NewGTO O 
 S 5 
   1    2288.6400000000      0.0054511382
   2     344.4160000000      0.0407189228
   3      78.2538000000      0.1813694209
   4      21.7195000000      0.4655368202
   5       6.5590700000      0.4512113212
 S 2 
   1      10.4656000000     -0.1502112012
   2       0.9643510000      1.0528679834
 S 1 
   1       0.2851270000      1.0000000000
 P 3 
   1     110.8840000000      0.0113058003
   2      17.0590000000      0.1699226452
   3       3.6899900000      0.9008060328
 P 1 
   1       0.9929960000      1.0000000000
 P 1 
   1       0.2449240000      1.0000000000
 D 1 
   1       1.0000000000      1.0000000000
  end;

---------------------------------
AUXILIARY/J BASIS SET INFORMATION
---------------------------------
There are 3 groups of distinct atoms

 Group   1 Type C   : 12s5p4d2f1g contracted to 6s4p3d1f1g pattern {711111/2111/211/2/1}
 Group   2 Type H   : 5s2p1d contracted to 3s1p1d pattern {311/2/1}
 Group   3 Type O   : 12s5p4d2f1g contracted to 6s4p3d1f1g pattern {711111/2111/211/2/1}

Atom   0C    basis set group =>   1
Atom   1C    basis set group =>   1
Atom   2C    basis set group =>   1
Atom   3H    basis set group =>   2
Atom   4H    basis set group =>   2
Atom   5C    basis set group =>   1
Atom   6C    basis set group =>   1
Atom   7C    basis set group =>   1
Atom   8H    basis set group =>   2
Atom   9H    basis set group =>   2
Atom  10H    basis set group =>   2
Atom  11H    basis set group =>   2
Atom  12O    basis set group =>   3
Atom  13H    basis set group =>   2
Atom  14C    basis set group =>   1
Atom  15C    basis set group =>   1
Atom  16H    basis set group =>   2
Atom  17H    basis set group =>   2
Atom  18C    basis set group =>   1
Atom  19H    basis set group =>   2
Atom  20C    basis set group =>   1
Atom  21H    basis set group =>   2
Atom  22C    basis set group =>   1
Atom  23C    basis set group =>   1
Atom  24H    basis set group =>   2
Atom  25H    basis set group =>   2
Atom  26C    basis set group =>   1
Atom  27H    basis set group =>   2
Atom  28H    basis set group =>   2
Atom  29C    basis set group =>   1
Atom  30H    basis set group =>   2
Atom  31H    basis set group =>   2
Atom  32C    basis set group =>   1
Atom  33H    basis set group =>   2
Atom  34C    basis set group =>   1
Atom  35H    basis set group =>   2
Atom  36C    basis set group =>   1
Atom  37H    basis set group =>   2
Atom  38H    basis set group =>   2
Atom  39C    basis set group =>   1
Atom  40H    basis set group =>   2
Atom  41H    basis set group =>   2
Atom  42H    basis set group =>   2
Atom  43C    basis set group =>   1
Atom  44C    basis set group =>   1
Atom  45H    basis set group =>   2
Atom  46H    basis set group =>   2
Atom  47H    basis set group =>   2
Atom  48H    basis set group =>   2
Atom  49C    basis set group =>   1
Atom  50C    basis set group =>   1
Atom  51C    basis set group =>   1
Atom  52H    basis set group =>   2
Atom  53H    basis set group =>   2
Atom  54C    basis set group =>   1
Atom  55C    basis set group =>   1
Atom  56C    basis set group =>   1
Atom  57H    basis set group =>   2
Atom  58H    basis set group =>   2
Atom  59C    basis set group =>   1
Atom  60C    basis set group =>   1
Atom  61H    basis set group =>   2
Atom  62H    basis set group =>   2
Atom  63H    basis set group =>   2
Atom  64H    basis set group =>   2
Atom  65H    basis set group =>   2
Atom  66H    basis set group =>   2
Atom  67H    basis set group =>   2
Atom  68H    basis set group =>   2
Atom  69H    basis set group =>   2
Atom  70H    basis set group =>   2
Atom  71H    basis set group =>   2
Atom  72H    basis set group =>   2

-------------------------------------
AUXILIARY/J BASIS SET IN INPUT FORMAT
-------------------------------------

 # Auxiliary/J basis set for element : H 
 NewAuxJGTO H 
 S 3 
   1      15.6752927000      0.1007184237
   2       3.6063578000      0.3404257499
   3       1.2080016000      0.6491996172
 S 1 
   1       0.4726794000      1.0000000000
 S 1 
   1       0.2018100000      1.0000000000
 P 2 
   1       2.0281365000      0.5596620919
   2       0.5358730000      0.5596620919
 D 1 
   1       2.2165124000      1.0000000000
  end;

 # Auxiliary/J basis set for element : C 
 NewAuxJGTO C 
 S 7 
   1    1861.0916331000      0.0134602335
   2     642.9939764000      0.0299160374
   3     235.1105725000      0.1008649584
   4      90.7028894000      0.2370970548
   5      36.7794552000      0.3924037254
   6      15.6046273000      0.3195862154
   7       6.8907294000      0.0530104441
 S 1 
   1       3.1478850000     -1.0000000000
 S 1 
   1       1.4777287000      1.0000000000
 S 1 
   1       0.7076466000      1.0000000000
 S 1 
   1       0.3430122000      1.0000000000
 S 1 
   1       0.1669453000      1.0000000000
 P 2 
   1      13.5472892000     -0.6769313712
   2       5.4669419000     -0.3779500978
 P 1 
   1       2.1751721000      1.0000000000
 P 1 
   1       0.8582194000      1.0000000000
 P 1 
   1       0.3376720000      1.0000000000
 D 2 
   1       5.9287253000     -0.3533329857
   2       1.9809209000     -0.7456525731
 D 1 
   1       0.8055417000     -1.0000000000
 D 1 
   1       0.3531244000     -1.0000000000
 F 2 
   1       1.6755626000      0.6311076882
   2       0.5997536000      0.4968166032
 G 1 
   1       1.0024600000     -1.0000000000
  end;

 # Auxiliary/J basis set for element : O 
 NewAuxJGTO O 
 S 7 
   1    2876.8216605000      0.0168151159
   2    1004.7443032000      0.0340137548
   3     369.7579954000      0.1194951309
   4     142.9442404000      0.2664627624
   5      57.8366425000      0.4202764046
   6      24.3864983000      0.2765077335
   7      10.6622662000      0.0057008815
 S 1 
   1       4.8070437000     -1.0000000000
 S 1 
   1       2.2210770000      1.0000000000
 S 1 
   1       1.0447795000      1.0000000000
 S 1 
   1       0.4968425000      1.0000000000
 S 1 
   1       0.2371384000      1.0000000000
 P 2 
   1      64.2613382000     -0.2731534179
   2      16.3006076000     -0.8168011598
 P 1 
   1       4.3550542000      1.0000000000
 P 1 
   1       1.2019554000      1.0000000000
 P 1 
   1       0.3354196000      1.0000000000
 D 2 
   1       9.2146611000     -0.4661230638
   2       2.8435251000     -0.6600908911
 D 1 
   1       0.9955759000     -1.0000000000
 D 1 
   1       0.3649441000     -1.0000000000
 F 2 
   1       2.6420115000      0.5931563945
   2       0.7345613000      0.5931563945
 G 1 
   1       1.3931000000     -1.0000000000
  end;



           ************************************************************
           *        Program running with 4 parallel MPI-processes     *
           *              working on a common directory               *
           ************************************************************
------------------------------------------------------------------------------
                           ORCA GTO INTEGRAL CALCULATION
                           -- RI-GTO INTEGRALS CHOSEN --
------------------------------------------------------------------------------
------------------------------------------------------------------------------
                   ___                                                        
                  /   \      - P O W E R E D   B Y -                         
                 /     \                                                     
                 |  |  |   _    _      __       _____    __    __             
                 |  |  |  | |  | |    /  \     |  _  \  |  |  /  |          
                  \  \/   | |  | |   /    \    | | | |  |  | /  /          
                 / \  \   | |__| |  /  /\  \   | |_| |  |  |/  /          
                |  |  |   |  __  | /  /__\  \  |    /   |      \           
                |  |  |   | |  | | |   __   |  |    \   |  |\   \          
                \     /   | |  | | |  |  |  |  | |\  \  |  | \   \       
                 \___/    |_|  |_| |__|  |__|  |_| \__\ |__|  \__/        
                                                                              
                      - O R C A' S   B I G   F R I E N D -                    
                                      &                                       
                       - I N T E G R A L  F E E D E R -                       
                                                                              
 v1 FN, 2020, v2 2021                                                         
------------------------------------------------------------------------------


Reading SHARK input file inpS.SHARKINP.tmp ... ok
----------------------
SHARK INTEGRAL PACKAGE
----------------------

Number of atoms                             ...     73
Number of basis functions                   ...    713
Number of shells                            ...    335
Maximum angular momentum                    ...      2
Integral batch strategy                     ... SHARK/LIBINT Hybrid
RI-J (if used) integral strategy            ... SPLIT-RIJ (Revised 2003 algorithm where possible)
Printlevel                                  ...      1
Contraction scheme used                     ... SEGMENTED contraction
Coulomb Range Separation                    ... NOT USED
Exchange Range Separation                   ... NOT USED
Finite Nucleus Model                        ... NOT USED
Auxiliary Coulomb fitting basis             ... AVAILABLE
   # of basis functions in Aux-J            ...   1905
   # of shells in Aux-J                     ...    655
   Maximum angular momentum in Aux-J        ...      4
Auxiliary J/K fitting basis                 ... NOT available
Auxiliary Correlation fitting basis         ... NOT available
Auxiliary 'external' fitting basis          ... NOT available
Integral threshold                          ...     3.000000e-11
Primitive cut-off                           ...     1.000000e-12
Primitive pair pre-selection threshold      ...     1.000000e-12

Calculating pre-screening integrals         ... done (  0.0 sec) Dimension = 335
Organizing shell pair data                  ... done (  0.1 sec)
Shell pair information
Total number of shell pairs                 ...     56280
Shell pairs after pre-screening             ...     31561
Total number of primitive shell pairs       ...    225367
Primitive shell pairs kept                  ...     74338
          la=0 lb=0:   9657 shell pairs
          la=1 lb=0:  12974 shell pairs
          la=1 lb=1:   4233 shell pairs
          la=2 lb=0:   2760 shell pairs
          la=2 lb=1:   1742 shell pairs
          la=2 lb=2:    195 shell pairs

Calculating one electron integrals          ... done (  0.1 sec)
Calculating RI/J V-Matrix + Cholesky decomp.... done (  0.1 sec)
Calculating Nuclear repulsion               ... done (  0.0 sec) ENN=   2770.269770540025 Eh

SHARK setup successfully completed in   0.6 seconds

Maximum memory used throughout the entire GTOINT-calculation: 61.1 MB


           ************************************************************
           *        Program running with 4 parallel MPI-processes     *
           *              working on a common directory               *
           ************************************************************
-------------------------------------------------------------------------------
                                 ORCA SCF
-------------------------------------------------------------------------------

------------
SCF SETTINGS
------------
Hamiltonian:
 Density Functional     Method          .... DFT(GTOs)
 Exchange Functional    Exchange        .... revTPSS
 Correlation Functional Correlation     .... revTPSS
 LDA part of GGA corr.  LDAOpt          .... PW91-LDA
 Gradients option       PostSCFGGA      .... off
   Density functional embedding theory  .... OFF
 RI-approximation to the Coulomb term is turned on
   Number of AuxJ basis functions       .... 1905


General Settings:
 Integral files         IntName         .... inpS
 Hartree-Fock type      HFTyp           .... RHF
 Total Charge           Charge          ....    0
 Multiplicity           Mult            ....    1
 Number of Electrons    NEL             ....  220
 Basis Dimension        Dim             ....  713
 Nuclear Repulsion      ENuc            ....   2770.2697705400 Eh

Convergence Acceleration:
 DIIS                   CNVDIIS         .... on
   Start iteration      DIISMaxIt       ....    12
   Startup error        DIISStart       ....  0.200000
   # of expansion vecs  DIISMaxEq       ....     5
   Bias factor          DIISBfac        ....   1.050
   Max. coefficient     DIISMaxC        ....  10.000
 Trust-Rad. Augm. Hess. CNVTRAH         .... auto
   Auto Start mean grad. ratio tolernc. ....  1.125000
   Auto Start start iteration           ....    20
   Auto Start num. interpolation iter.  ....    10
   Max. Number of Micro iterations      ....    16
   Max. Number of Macro iterations      .... Maxiter - #DIIS iter
   Number of Davidson start vectors     ....     2
   Converg. threshold I  (grad. norm)   ....   1.000e-04
   Converg. threshold II (energy diff.) ....   1.000e-07
   Grad. Scal. Fac. for Micro threshold ....   0.100
   Minimum threshold for Micro iter.    ....   0.010
   NR start threshold (gradient norm)   ....   0.001
   Initial trust radius                 ....   0.400
   Minimum AH scaling param. (alpha)    ....   1.000
   Maximum AH scaling param. (alpha)    .... 1000.000
   Orbital update algorithm             .... Taylor
   White noise on init. David. guess    .... on
   Maximum white noise                  ....   0.010
   Quad. conv. algorithm                .... NR
 SOSCF                  CNVSOSCF        .... off
 Level Shifting         CNVShift        .... on
   Level shift para.    LevelShift      ....    0.2500
   Turn off err/grad.   ShiftErr        ....    0.0010
 Zerner damping         CNVZerner       .... off
 Static damping         CNVDamp         .... on
   Fraction old density DampFac         ....    0.7000
   Max. Damping (<1)    DampMax         ....    0.9800
   Min. Damping (>=0)   DampMin         ....    0.0000
   Turn off err/grad.   DampErr         ....    0.1000
 Fernandez-Rico         CNVRico         .... off

SCF Procedure:
 Maximum # iterations   MaxIter         ....   125
 SCF integral mode      SCFMode         .... Direct
   Integral package                     .... SHARK and LIBINT hybrid scheme
 Reset frequency        DirectResetFreq ....    20
 Integral Threshold     Thresh          ....  3.000e-11 Eh
 Primitive CutOff       TCut            ....  1.000e-12 Eh

Convergence Tolerance:
 Convergence Check Mode ConvCheckMode   .... Total+1el-Energy
 Convergence forced     ConvForced      .... 0
 Energy Change          TolE            ....  1.000e-07 Eh
 1-El. energy change                    ....  1.000e-04 Eh
 DIIS Error             TolErr          ....  1.000e-07


Diagonalization of the overlap matrix:
Smallest eigenvalue                        ... 5.064e-04
Time for diagonalization                   ...    0.080 sec
Threshold for overlap eigenvalues          ... 1.000e-08
Number of eigenvalues below threshold      ... 0
Time for construction of square roots      ...    0.066 sec
Total time needed                          ...    0.149 sec

Time for model grid setup =    0.851 sec

------------------------------
INITIAL GUESS: MODEL POTENTIAL
------------------------------
Loading Hartree-Fock densities                     ... done
Calculating cut-offs                               ... done
Initializing the effective Hamiltonian             ... done
Setting up the integral package (SHARK)            ... done
Starting the Coulomb interaction                   ... done (   1.1 sec)
Reading the grid                                   ... done
Mapping shells                                     ... done
Starting the XC term evaluation                    ... done (   0.5 sec)
  promolecular density results
     # of electrons  =    219.975671429
     EX              =   -164.434963966
     EC              =     -7.328764805
     EX+EC           =   -171.763728772
Transforming the Hamiltonian                       ... done (   0.0 sec)
Diagonalizing the Hamiltonian                      ... done (   0.1 sec)
Back transforming the eigenvectors                 ... done (   0.0 sec)
Now organizing SCF variables                       ... done
                      ------------------
                      INITIAL GUESS DONE (   2.6 sec)
                      ------------------
-------------------
DFT GRID GENERATION
-------------------

General Integration Accuracy     IntAcc      ... 4.388
Radial Grid Type                 RadialGrid  ... OptM3 with GC (2021)
Angular Grid (max. ang.)         AngularGrid ... 4 (Lebedev-302)
Angular grid pruning method      GridPruning ... 4 (adaptive)
Weight generation scheme         WeightScheme... Becke
Basis function cutoff            BFCut       ... 1.0000e-11
Integration weight cutoff        WCut        ... 1.0000e-14
Angular grids for H and He will be reduced by one unit
Partially contracted basis set               ... off
Rotationally invariant grid construction     ... off

Total number of grid points                  ...   309876
Total number of batches                      ...     4874
Average number of points per batch           ...       63
Average number of grid points per atom       ...     4245
Time for grid setup =    2.920 sec


--------------------
CPCM SOLVATION MODEL
--------------------
CPCM parameters:
  Epsilon                                         ...       4.9000
  Refrac                                          ...       1.4500
  Rsolv                                           ...       1.3000
  Surface type                                    ... GAUSSIAN VDW
  Epsilon function type                           ...         CPCM
Radii:
 Radius for C  used is    3.8550 Bohr (=   2.0400 Ang.)
 Radius for H  used is    2.4944 Bohr (=   1.3200 Ang.)
 Radius for O  used is    3.4469 Bohr (=   1.8240 Ang.)
Calculating surface                               ...        done! (  0.0s)
GEPOL surface points                              ...         3603
GEPOL Volume                                      ...    3582.3619
GEPOL Surface-area                                ...    1774.8322
Calculating surface distance matrix               ...        done! (  0.1s)
Performing Cholesky decomposition & store         ...        done! (  0.4s)
Overall time for CPCM initialization              ...                 0.5s
--------------
SCF ITERATIONS
--------------
ITER       Energy         Delta-E        Max-DP      RMS-DP      [F,P]     Damp
               ***  Starting incremental Fock matrix formation  ***

  HOMO= 109 E= -1.866 eV LUMO=  7.828 eV gap=   9.694 eV
  0  -1167.5227324731   0.000000000000 0.05318516  0.00083115  0.2613164 0.7000

  HOMO= 109 E= -3.349 eV LUMO=  6.713 eV gap=  10.063 eV
  1  -1167.8952733053  -0.372540832112 0.02903591  0.00061372  0.1018133 0.7000
                               ***Turning on DIIS***

  HOMO= 109 E= -4.326 eV LUMO=  5.822 eV gap=  10.148 eV
  2  -1168.0413553794  -0.146082074140 0.05172066  0.00101258  0.0307631 0.0000

  HOMO= 109 E= -4.955 eV LUMO=  5.229 eV gap=  10.184 eV
  3  -1168.2383283548  -0.196972975410 0.02327823  0.00047328  0.0544934 0.0000

  HOMO= 109 E= -4.991 eV LUMO=  5.193 eV gap=  10.184 eV
  4  -1168.3051902266  -0.066861871775 0.00759555  0.00015245  0.0103818 0.0000

  HOMO= 109 E= -4.941 eV LUMO=  5.250 eV gap=  10.191 eV
  5  -1168.3082405682  -0.003050341662 0.00307213  0.00005656  0.0091204 0.0000

  HOMO= 109 E= -4.923 eV LUMO=  5.266 eV gap=  10.188 eV
  6  -1168.3085021496  -0.000261581354 0.00124411  0.00001914  0.0029215 0.0000

  HOMO= 109 E= -4.924 eV LUMO= -1.539 eV gap=   3.385 eV
  7  -1168.3085224954  -0.000020345833 0.00072548  0.00001164  0.0005599 0.0000

  HOMO= 109 E= -4.922 eV LUMO= -1.537 eV gap=   3.386 eV
  8  -1168.3085254085  -0.000002913062 0.00027511  0.00000294  0.0003873 0.0000

  HOMO= 109 E= -4.920 eV LUMO= -1.535 eV gap=   3.386 eV
  9  -1168.3085260496  -0.000000641066 0.00017354  0.00000157  0.0002772 0.0000

  HOMO= 109 E= -4.921 eV LUMO= -1.535 eV gap=   3.385 eV
 10  -1168.3085263075  -0.000000257911 0.00005847  0.00000069  0.0001083 0.0000

  HOMO= 109 E= -4.921 eV LUMO= -1.536 eV gap=   3.385 eV
 11  -1168.3085263431  -0.000000035593 0.00002360  0.00000026  0.0000306 0.0000

  HOMO= 109 E= -4.921 eV LUMO= -1.535 eV gap=   3.385 eV
 12  -1168.3085263123   0.000000030808 0.00000963  0.00000011  0.0000153 0.0000

  HOMO= 109 E= -4.921 eV LUMO= -1.535 eV gap=   3.385 eV
 13  -1168.3085263562  -0.000000043899 0.00000505  0.00000005  0.0000087 0.0000
                 **** Energy Check signals convergence ****

               *****************************************************
               *                     SUCCESS                       *
               *           SCF CONVERGED AFTER  14 CYCLES          *
               *****************************************************


----------------
TOTAL SCF ENERGY
----------------

Total Energy       :        -1168.30852636 Eh          -31791.29124 eV

Components:
Nuclear Repulsion  :         2770.26977054 Eh           75382.87285 eV
Electronic Energy  :        -3938.57829690 Eh         -107174.16409 eV
One Electron Energy:        -7086.86479013 Eh         -192843.39491 eV
Two Electron Energy:         3148.28649323 Eh           85669.23082 eV
CPCM Dielectric    :           -0.01047346 Eh              -0.28500 eV

Virial components:
Potential Energy   :        -2330.40834312 Eh          -63413.63490 eV
Kinetic Energy     :         1162.09981675 Eh           31622.34366 eV
Virial Ratio       :            2.00534266


DFT components:
N(Alpha)           :      110.000172567993 electrons
N(Beta)            :      110.000172567993 electrons
N(Total)           :      220.000345135985 electrons
E(X)               :     -169.584754503489 Eh       
E(C)               :       -7.443792527290 Eh       
E(XC)              :     -177.028547030778 Eh       
DFET-embed. en.    :        0.000000000000 Eh       
CPCM Solvation Model Properties:
Surface-charge          :           -0.04529031
Charge-correction       :           -0.00002358 Eh              -0.00064 eV
Free-energy (cav+disp)  :  This term is not implemented in the current solvation scheme

---------------
SCF CONVERGENCE
---------------

  Last Energy change         ...   -8.4269e-09  Tolerance :   1.0000e-07
  Last MAX-Density change    ...    2.9219e-06  Tolerance :   1.0000e-05
  Last RMS-Density change    ...    2.5806e-08  Tolerance :   1.0000e-06
  Last DIIS Error            ...    3.1191e-06  Tolerance :   1.0000e-07

             **** THE GBW FILE WAS UPDATED (inpS.gbw) ****
             **** DENSITY inpS.scfp WAS UPDATED ****
             **** ENERGY FILE WAS UPDATED (inpS.en.tmp) ****
             **** THE GBW FILE WAS UPDATED (inpS.gbw) ****
             **** DENSITY inpS.scfp WAS UPDATED ****
----------------
ORBITAL ENERGIES
----------------

  NO   OCC          E(Eh)            E(eV) 
   0   2.0000     -18.905673      -514.4495 
   1   2.0000     -10.057148      -273.6689 
   2   2.0000     -10.015997      -272.5491 
   3   2.0000     -10.013540      -272.4823 
   4   2.0000     -10.013477      -272.4806 
   5   2.0000     -10.011889      -272.4374 
   6   2.0000     -10.011795      -272.4348 
   7   2.0000     -10.010517      -272.4000 
   8   2.0000     -10.010302      -272.3942 
   9   2.0000     -10.008552      -272.3466 
  10   2.0000     -10.007889      -272.3285 
  11   2.0000     -10.007028      -272.3051 
  12   2.0000     -10.006750      -272.2975 
  13   2.0000     -10.006674      -272.2954 
  14   2.0000     -10.006231      -272.2834 
  15   2.0000     -10.005970      -272.2763 
  16   2.0000     -10.004186      -272.2277 
  17   2.0000     -10.001094      -272.1436 
  18   2.0000     -10.000503      -272.1275 
  19   2.0000     -10.000230      -272.1201 
  20   2.0000      -9.999766      -272.1075 
  21   2.0000      -9.998628      -272.0765 
  22   2.0000      -9.997574      -272.0478 
  23   2.0000      -9.997328      -272.0411 
  24   2.0000      -9.996412      -272.0162 
  25   2.0000      -9.995748      -271.9981 
  26   2.0000      -9.995581      -271.9936 
  27   2.0000      -9.995215      -271.9836 
  28   2.0000      -9.993884      -271.9474 
  29   2.0000      -0.955925       -26.0121 
  30   2.0000      -0.807522       -21.9738 
  31   2.0000      -0.791133       -21.5278 
  32   2.0000      -0.770360       -20.9626 
  33   2.0000      -0.756608       -20.5883 
  34   2.0000      -0.734096       -19.9758 
  35   2.0000      -0.727906       -19.8073 
  36   2.0000      -0.708480       -19.2787 
  37   2.0000      -0.708104       -19.2685 
  38   2.0000      -0.692162       -18.8347 
  39   2.0000      -0.675988       -18.3946 
  40   2.0000      -0.659056       -17.9338 
  41   2.0000      -0.653103       -17.7718 
  42   2.0000      -0.635886       -17.3033 
  43   2.0000      -0.628279       -17.0964 
  44   2.0000      -0.623460       -16.9652 
  45   2.0000      -0.616526       -16.7765 
  46   2.0000      -0.591133       -16.0856 
  47   2.0000      -0.587982       -15.9998 
  48   2.0000      -0.561852       -15.2888 
  49   2.0000      -0.549195       -14.9444 
  50   2.0000      -0.547740       -14.9048 
  51   2.0000      -0.538763       -14.6605 
  52   2.0000      -0.527456       -14.3528 
  53   2.0000      -0.512623       -13.9492 
  54   2.0000      -0.487995       -13.2790 
  55   2.0000      -0.474130       -12.9017 
  56   2.0000      -0.466697       -12.6995 
  57   2.0000      -0.463987       -12.6257 
  58   2.0000      -0.451317       -12.2810 
  59   2.0000      -0.445089       -12.1115 
  60   2.0000      -0.435861       -11.8604 
  61   2.0000      -0.430318       -11.7095 
  62   2.0000      -0.425705       -11.5840 
  63   2.0000      -0.415322       -11.3015 
  64   2.0000      -0.413763       -11.2591 
  65   2.0000      -0.408873       -11.1260 
  66   2.0000      -0.403868       -10.9898 
  67   2.0000      -0.396149       -10.7798 
  68   2.0000      -0.395344       -10.7578 
  69   2.0000      -0.392926       -10.6921 
  70   2.0000      -0.386607       -10.5201 
  71   2.0000      -0.381952       -10.3934 
  72   2.0000      -0.376553       -10.2465 
  73   2.0000      -0.374241       -10.1836 
  74   2.0000      -0.371670       -10.1137 
  75   2.0000      -0.360857        -9.8194 
  76   2.0000      -0.357644        -9.7320 
  77   2.0000      -0.357058        -9.7161 
  78   2.0000      -0.353531        -9.6201 
  79   2.0000      -0.349062        -9.4985 
  80   2.0000      -0.347091        -9.4448 
  81   2.0000      -0.343882        -9.3575 
  82   2.0000      -0.340869        -9.2755 
  83   2.0000      -0.335667        -9.1340 
  84   2.0000      -0.334628        -9.1057 
  85   2.0000      -0.330470        -8.9926 
  86   2.0000      -0.325105        -8.8466 
  87   2.0000      -0.320579        -8.7234 
  88   2.0000      -0.316857        -8.6221 
  89   2.0000      -0.314201        -8.5498 
  90   2.0000      -0.310134        -8.4392 
  91   2.0000      -0.305213        -8.3053 
  92   2.0000      -0.304553        -8.2873 
  93   2.0000      -0.294906        -8.0248 
  94   2.0000      -0.289746        -7.8844 
  95   2.0000      -0.288541        -7.8516 
  96   2.0000      -0.284816        -7.7502 
  97   2.0000      -0.284399        -7.7389 
  98   2.0000      -0.279807        -7.6139 
  99   2.0000      -0.277813        -7.5597 
 100   2.0000      -0.274595        -7.4721 
 101   2.0000      -0.274099        -7.4586 
 102   2.0000      -0.269697        -7.3388 
 103   2.0000      -0.265438        -7.2229 
 104   2.0000      -0.261204        -7.1077 
 105   2.0000      -0.250716        -6.8223 
 106   2.0000      -0.233536        -6.3548 
 107   2.0000      -0.227398        -6.1878 
 108   2.0000      -0.212275        -5.7763 
 109   2.0000      -0.180841        -4.9209 
 110   0.0000      -0.056426        -1.5354 
 111   0.0000      -0.013136        -0.3574 
 112   0.0000      -0.003317        -0.0903 
 113   0.0000       0.030792         0.8379 
 114   0.0000       0.040687         1.1072 
 115   0.0000       0.043798         1.1918 
 116   0.0000       0.047940         1.3045 
 117   0.0000       0.049888         1.3575 
 118   0.0000       0.050902         1.3851 
 119   0.0000       0.054855         1.4927 
 120   0.0000       0.060868         1.6563 
 121   0.0000       0.069307         1.8859 
 122   0.0000       0.071788         1.9535 
 123   0.0000       0.073250         1.9932 
 124   0.0000       0.074748         2.0340 
 125   0.0000       0.078170         2.1271 
 126   0.0000       0.083826         2.2810 
 127   0.0000       0.085926         2.3382 
 128   0.0000       0.089598         2.4381 
 129   0.0000       0.092730         2.5233 
 130   0.0000       0.096794         2.6339 
 131   0.0000       0.101561         2.7636 
 132   0.0000       0.104243         2.8366 
 133   0.0000       0.105672         2.8755 
 134   0.0000       0.109109         2.9690 
 135   0.0000       0.112200         3.0531 
 136   0.0000       0.115250         3.1361 
 137   0.0000       0.118809         3.2329 
 138   0.0000       0.122381         3.3302 
 139   0.0000       0.124201         3.3797 
 140   0.0000       0.127828         3.4784 
 141   0.0000       0.130128         3.5410 
 142   0.0000       0.131634         3.5819 
 143   0.0000       0.133514         3.6331 
 144   0.0000       0.136433         3.7125 
 145   0.0000       0.140013         3.8099 
 146   0.0000       0.143932         3.9166 
 147   0.0000       0.145508         3.9595 
 148   0.0000       0.147291         4.0080 
 149   0.0000       0.150544         4.0965 
 150   0.0000       0.152632         4.1533 
 151   0.0000       0.158319         4.3081 
 152   0.0000       0.161099         4.3837 
 153   0.0000       0.167030         4.5451 
 154   0.0000       0.170686         4.6446 
 155   0.0000       0.172973         4.7068 
 156   0.0000       0.176981         4.8159 
 157   0.0000       0.179051         4.8722 
 158   0.0000       0.180824         4.9205 
 159   0.0000       0.183895         5.0040 
 160   0.0000       0.190596         5.1864 
 161   0.0000       0.193646         5.2694 
 162   0.0000       0.195504         5.3199 
 163   0.0000       0.198238         5.3943 
 164   0.0000       0.200417         5.4536 
 165   0.0000       0.202435         5.5085 
 166   0.0000       0.204445         5.5632 
 167   0.0000       0.213951         5.8219 
 168   0.0000       0.218248         5.9388 
 169   0.0000       0.220671         6.0048 
 170   0.0000       0.224993         6.1224 
 171   0.0000       0.229462         6.2440 
 172   0.0000       0.229916         6.2563 
 173   0.0000       0.233510         6.3541 
 174   0.0000       0.240915         6.5556 
 175   0.0000       0.243936         6.6378 
 176   0.0000       0.249491         6.7890 
 177   0.0000       0.257832         7.0160 
 178   0.0000       0.266515         7.2523 
 179   0.0000       0.267838         7.2882 
 180   0.0000       0.273257         7.4357 
 181   0.0000       0.286984         7.8092 
 182   0.0000       0.291647         7.9361 
 183   0.0000       0.294179         8.0050 
 184   0.0000       0.298787         8.1304 
 185   0.0000       0.332907         9.0589 
 186   0.0000       0.337944         9.1959 
 187   0.0000       0.341546         9.2939 
 188   0.0000       0.345152         9.3921 
 189   0.0000       0.352220         9.5844 
 190   0.0000       0.358059         9.7433 
 191   0.0000       0.366246         9.9661 
 192   0.0000       0.370811        10.0903 
 193   0.0000       0.372003        10.1227 
 194   0.0000       0.378560        10.3011 
 195   0.0000       0.381598        10.3838 
 196   0.0000       0.385275        10.4839 
 197   0.0000       0.389506        10.5990 
 198   0.0000       0.395760        10.7692 
 199   0.0000       0.397992        10.8299 
 200   0.0000       0.404216        10.9993 
 201   0.0000       0.407431        11.0868 
 202   0.0000       0.415857        11.3160 
 203   0.0000       0.420273        11.4362 
 204   0.0000       0.426868        11.6157 
 205   0.0000       0.429658        11.6916 
 206   0.0000       0.434998        11.8369 
 207   0.0000       0.442411        12.0386 
 208   0.0000       0.448870        12.2144 
 209   0.0000       0.454486        12.3672 
 210   0.0000       0.457240        12.4421 
 211   0.0000       0.466914        12.7054 
 212   0.0000       0.470925        12.8145 
 213   0.0000       0.477046        12.9811 
 214   0.0000       0.478147        13.0110 
 215   0.0000       0.483207        13.1487 
 216   0.0000       0.490747        13.3539 
 217   0.0000       0.492513        13.4020 
 218   0.0000       0.504784        13.7359 
 219   0.0000       0.505210        13.7475 
 220   0.0000       0.510349        13.8873 
 221   0.0000       0.514917        14.0116 
 222   0.0000       0.522271        14.2117 
 223   0.0000       0.528397        14.3784 
 224   0.0000       0.533012        14.5040 
 225   0.0000       0.535571        14.5736 
 226   0.0000       0.538385        14.6502 
 227   0.0000       0.541866        14.7449 
 228   0.0000       0.545798        14.8519 
 229   0.0000       0.547814        14.9068 
 230   0.0000       0.550383        14.9767 
 231   0.0000       0.554412        15.0863 
 232   0.0000       0.555994        15.1294 
 233   0.0000       0.559896        15.2356 
 234   0.0000       0.566074        15.4037 
 235   0.0000       0.569675        15.5017 
 236   0.0000       0.571943        15.5634 
 237   0.0000       0.576066        15.6756 
 238   0.0000       0.577506        15.7147 
 239   0.0000       0.581419        15.8212 
 240   0.0000       0.583494        15.8777 
 241   0.0000       0.583870        15.8879 
 242   0.0000       0.586627        15.9629 
 243   0.0000       0.590788        16.0761 
 244   0.0000       0.592030        16.1100 
 245   0.0000       0.595393        16.2015 
 246   0.0000       0.596002        16.2180 
 247   0.0000       0.597780        16.2664 
 248   0.0000       0.601144        16.3580 
 249   0.0000       0.604644        16.4532 
 250   0.0000       0.606282        16.4978 
 251   0.0000       0.608241        16.5511 
 252   0.0000       0.612407        16.6644 
 253   0.0000       0.614402        16.7187 
 254   0.0000       0.617982        16.8162 
 255   0.0000       0.620296        16.8791 
 256   0.0000       0.627123        17.0649 
 257   0.0000       0.627870        17.0852 
 258   0.0000       0.630667        17.1613 
 259   0.0000       0.631534        17.1849 
 260   0.0000       0.634797        17.2737 
 261   0.0000       0.635754        17.2998 
 262   0.0000       0.639446        17.4002 
 263   0.0000       0.641093        17.4450 
 264   0.0000       0.642851        17.4929 
 265   0.0000       0.646173        17.5833 
 266   0.0000       0.650998        17.7145 
 267   0.0000       0.652213        17.7476 
 268   0.0000       0.657097        17.8805 
 269   0.0000       0.662431        18.0257 
 270   0.0000       0.663132        18.0447 
 271   0.0000       0.667245        18.1566 
 272   0.0000       0.668709        18.1965 
 273   0.0000       0.672578        18.3018 
 274   0.0000       0.675509        18.3815 
 275   0.0000       0.676732        18.4148 
 276   0.0000       0.683815        18.6075 
 277   0.0000       0.685522        18.6540 
 278   0.0000       0.689277        18.7562 
 279   0.0000       0.693126        18.8609 
 280   0.0000       0.697389        18.9769 
 281   0.0000       0.700368        19.0580 
 282   0.0000       0.705622        19.2009 
 283   0.0000       0.708178        19.2705 
 284   0.0000       0.708548        19.2806 
 285   0.0000       0.713116        19.4049 
 286   0.0000       0.721096        19.6220 
 287   0.0000       0.726074        19.7575 
 288   0.0000       0.729955        19.8631 
 289   0.0000       0.731342        19.9008 
 290   0.0000       0.742511        20.2048 
 291   0.0000       0.746595        20.3159 
 292   0.0000       0.752634        20.4802 
 293   0.0000       0.757195        20.6043 
 294   0.0000       0.764262        20.7966 
 295   0.0000       0.768711        20.9177 
 296   0.0000       0.770729        20.9726 
 297   0.0000       0.781595        21.2683 
 298   0.0000       0.783570        21.3220 
 299   0.0000       0.792619        21.5683 
 300   0.0000       0.796133        21.6639 
 301   0.0000       0.817072        22.2337 
 302   0.0000       0.821210        22.3463 
 303   0.0000       0.834752        22.7147 
 304   0.0000       0.836614        22.7654 
 305   0.0000       0.849387        23.1130 
 306   0.0000       0.860343        23.4111 
 307   0.0000       0.883121        24.0310 
 308   0.0000       0.890678        24.2366 
 309   0.0000       0.904703        24.6182 
 310   0.0000       0.915704        24.9176 
 311   0.0000       0.925066        25.1723 
 312   0.0000       0.943599        25.6766 
 313   0.0000       0.954003        25.9597 
 314   0.0000       0.961711        26.1695 
 315   0.0000       0.976760        26.5790 
 316   0.0000       0.989717        26.9316 
 317   0.0000       1.027473        27.9590 
 318   0.0000       1.035171        28.1684 
 319   0.0000       1.039581        28.2884 
 320   0.0000       1.050454        28.5843 
 321   0.0000       1.064261        28.9600 
 322   0.0000       1.069219        29.0949 
 323   0.0000       1.105013        30.0689 
 324   0.0000       1.125272        30.6202 
 325   0.0000       1.134099        30.8604 
 326   0.0000       1.144659        31.1478 
 327   0.0000       1.162310        31.6281 
 328   0.0000       1.174716        31.9656 
 329   0.0000       1.181369        32.1467 
 330   0.0000       1.199075        32.6285 
 331   0.0000       1.211962        32.9792 
 332   0.0000       1.231205        33.5028 
 333   0.0000       1.238378        33.6980 
 334   0.0000       1.252282        34.0763 
 335   0.0000       1.267536        34.4914 
 336   0.0000       1.274308        34.6757 
 337   0.0000       1.282338        34.8942 
 338   0.0000       1.287113        35.0241 
 339   0.0000       1.312206        35.7069 
 340   0.0000       1.322314        35.9820 
 341   0.0000       1.329807        36.1859 
 342   0.0000       1.351343        36.7719 
 343   0.0000       1.361100        37.0374 
 344   0.0000       1.372934        37.3594 
 345   0.0000       1.376872        37.4666 
 346   0.0000       1.383766        37.6542 
 347   0.0000       1.389514        37.8106 
 348   0.0000       1.404001        38.2048 
 349   0.0000       1.412886        38.4466 
 350   0.0000       1.431036        38.9405 
 351   0.0000       1.434298        39.0292 
 352   0.0000       1.442936        39.2643 
 353   0.0000       1.452435        39.5228 
 354   0.0000       1.455314        39.6011 
 355   0.0000       1.464040        39.8386 
 356   0.0000       1.481499        40.3137 
 357   0.0000       1.487909        40.4881 
 358   0.0000       1.500808        40.8391 
 359   0.0000       1.506463        40.9929 
 360   0.0000       1.515417        41.2366 
 361   0.0000       1.520255        41.3682 
 362   0.0000       1.535051        41.7709 
 363   0.0000       1.549056        42.1520 
 364   0.0000       1.557822        42.3905 
 365   0.0000       1.565953        42.6118 
 366   0.0000       1.574490        42.8440 
 367   0.0000       1.577787        42.9338 
 368   0.0000       1.602362        43.6025 
 369   0.0000       1.608294        43.7639 
 370   0.0000       1.614015        43.9196 
 371   0.0000       1.616427        43.9852 
 372   0.0000       1.627530        44.2874 
 373   0.0000       1.635619        44.5075 
 374   0.0000       1.650424        44.9103 
 375   0.0000       1.651193        44.9313 
 376   0.0000       1.665527        45.3213 
 377   0.0000       1.674400        45.5627 
 378   0.0000       1.682844        45.7925 
 379   0.0000       1.684219        45.8299 
 380   0.0000       1.692684        46.0603 
 381   0.0000       1.696049        46.1518 
 382   0.0000       1.702383        46.3242 
 383   0.0000       1.709819        46.5266 
 384   0.0000       1.715639        46.6849 
 385   0.0000       1.722016        46.8584 
 386   0.0000       1.728078        47.0234 
 387   0.0000       1.729799        47.0702 
 388   0.0000       1.736564        47.2543 
 389   0.0000       1.739027        47.3213 
 390   0.0000       1.744117        47.4598 
 391   0.0000       1.749855        47.6160 
 392   0.0000       1.761092        47.9217 
 393   0.0000       1.767996        48.1096 
 394   0.0000       1.771266        48.1986 
 395   0.0000       1.775027        48.3009 
 396   0.0000       1.779188        48.4142 
 397   0.0000       1.782176        48.4955 
 398   0.0000       1.788841        48.6768 
 399   0.0000       1.795842        48.8674 
 400   0.0000       1.799210        48.9590 
 401   0.0000       1.801509        49.0215 
 402   0.0000       1.805605        49.1330 
 403   0.0000       1.811451        49.2921 
 404   0.0000       1.816676        49.4343 
 405   0.0000       1.822679        49.5976 
 406   0.0000       1.827618        49.7320 
 407   0.0000       1.835876        49.9567 
 408   0.0000       1.841611        50.1128 
 409   0.0000       1.853166        50.4272 
 410   0.0000       1.860607        50.6297 
 411   0.0000       1.861500        50.6540 
 412   0.0000       1.870754        50.9058 
 413   0.0000       1.880724        51.1771 
 414   0.0000       1.884648        51.2839 
 415   0.0000       1.894001        51.5384 
 416   0.0000       1.899894        51.6987 
 417   0.0000       1.903664        51.8013 
 418   0.0000       1.906190        51.8701 
 419   0.0000       1.912916        52.0531 
 420   0.0000       1.926063        52.4108 
 421   0.0000       1.936666        52.6994 
 422   0.0000       1.941992        52.8443 
 423   0.0000       1.945948        52.9519 
 424   0.0000       1.949689        53.0537 
 425   0.0000       1.952237        53.1231 
 426   0.0000       1.965455        53.4828 
 427   0.0000       1.969640        53.5966 
 428   0.0000       1.973511        53.7020 
 429   0.0000       1.979802        53.8731 
 430   0.0000       1.983629        53.9773 
 431   0.0000       1.988813        54.1183 
 432   0.0000       1.994016        54.2599 
 433   0.0000       1.995118        54.2899 
 434   0.0000       2.000468        54.4355 
 435   0.0000       2.008977        54.6670 
 436   0.0000       2.012772        54.7703 
 437   0.0000       2.016020        54.8587 
 438   0.0000       2.017028        54.8861 
 439   0.0000       2.022395        55.0322 
 440   0.0000       2.025147        55.1070 
 441   0.0000       2.037006        55.4298 
 442   0.0000       2.037639        55.4470 
 443   0.0000       2.042846        55.5887 
[...]

 --------------
 Nucleus  47H :
 --------------

Diamagnetic contribution to the shielding tensor (ppm) : 
            31.294          3.899        -0.773
             1.521         46.667        -4.955
            -0.659         -4.611        43.151

Paramagnetic contribution to the shielding tensor (ppm): 
            -2.848         -3.561         1.528
            -0.825        -13.086         1.688
             0.866          1.246       -11.447

Total shielding tensor (ppm): 
            28.446          0.338         0.755
             0.695         33.581        -3.267
             0.207         -3.364        31.704


 Diagonalized sT*s matrix:
 
 sDSO            32.524           38.496           50.091  iso=      40.371
 sPSO            -4.494           -8.885          -14.001  iso=      -9.127
        ---------------  ---------------  ---------------
 Total           28.030           29.611           36.090  iso=      31.244

 --------------
 Nucleus  48H :
 --------------

Diamagnetic contribution to the shielding tensor (ppm) : 
            36.274         -0.387        -2.248
            -0.521         31.470        -8.036
            -7.303         -7.166        48.833

Paramagnetic contribution to the shielding tensor (ppm): 
            -5.782          0.964         2.243
             0.447         -3.278         5.882
             8.696          4.679       -18.196

Total shielding tensor (ppm): 
            30.492          0.577        -0.005
            -0.074         28.192        -2.154
             1.393         -2.487        30.636


 Diagonalized sT*s matrix:
 
 sDSO            30.545           38.294           47.737  iso=      38.859
 sPSO            -3.842           -7.847          -15.567  iso=      -9.085
        ---------------  ---------------  ---------------
 Total           26.703           30.447           32.170  iso=      29.773

 --------------
 Nucleus  52H :
 --------------

Diamagnetic contribution to the shielding tensor (ppm) : 
            41.447         -1.336        -0.797
             0.909         49.693         1.567
             1.004          4.396        28.265

Paramagnetic contribution to the shielding tensor (ppm): 
            -7.885          3.115         4.143
             1.962        -28.191        -0.851
             1.959         -3.697        -5.290

Total shielding tensor (ppm): 
            33.562          1.779         3.346
             2.871         21.502         0.716
             2.963          0.699        22.975


 Diagonalized sT*s matrix:
 
 sDSO            48.720           29.676           41.008  iso=      39.801
 sPSO           -27.662           -7.566           -6.138  iso=     -13.789
        ---------------  ---------------  ---------------
 Total           21.058           22.110           34.870  iso=      26.013

 --------------
 Nucleus  53H :
 --------------

Diamagnetic contribution to the shielding tensor (ppm) : 
            38.456         -4.904        -1.480
            -6.298         48.033        -4.124
            -6.110         -2.918        34.969

Paramagnetic contribution to the shielding tensor (ppm): 
            -7.402          5.026         5.362
             7.291        -24.615         6.092
            10.380          3.864        -9.985

Total shielding tensor (ppm): 
            31.053          0.122         3.882
             0.993         23.418         1.968
             4.270          0.946        24.984


 Diagonalized sT*s matrix:
 
 sDSO            43.410           44.657           33.391  iso=      40.486
 sPSO           -21.359          -20.488           -0.155  iso=     -14.001
        ---------------  ---------------  ---------------
 Total           22.050           24.169           33.236  iso=      26.485

 --------------
 Nucleus  57H :
 --------------

Diamagnetic contribution to the shielding tensor (ppm) : 
            42.440          0.312        -4.640
            -8.473         26.658        -1.796
           -15.160         -3.433        26.104

Paramagnetic contribution to the shielding tensor (ppm): 
           -10.894          0.112         1.378
             8.906          0.543         3.366
            10.701          4.874         4.289

Total shielding tensor (ppm): 
            31.546          0.425        -3.262
             0.432         27.202         1.570
            -4.459          1.441        30.393


 Diagonalized sT*s matrix:
 
 sDSO            28.971           20.951           45.280  iso=      31.734
 sPSO            -3.282            7.570          -10.350  iso=      -2.020
        ---------------  ---------------  ---------------
 Total           25.690           28.521           34.930  iso=      29.714

 --------------
 Nucleus  58H :
 --------------

Diamagnetic contribution to the shielding tensor (ppm) : 
            35.507         -1.065         3.971
             3.373         43.334        -2.044
            -1.292         -5.913        30.850

Paramagnetic contribution to the shielding tensor (ppm): 
            -5.376          2.068        -0.123
            -2.918        -13.940        -0.748
             4.822          2.962        -0.732

Total shielding tensor (ppm): 
            30.131          1.004         3.848
             0.456         29.394        -2.792
             3.530         -2.950        30.118


 Diagonalized sT*s matrix:
 
 sDSO            31.170           41.970           36.551  iso=      36.564
 sPSO            -6.267          -11.595           -2.187  iso=      -6.683
        ---------------  ---------------  ---------------
 Total           24.903           30.376           34.364  iso=      29.881

 --------------
 Nucleus  61H :
 --------------

Diamagnetic contribution to the shielding tensor (ppm) : 
            28.492         -7.288         1.201
           -19.218         34.392        -8.320
             1.221          1.569        19.486

Paramagnetic contribution to the shielding tensor (ppm): 
             0.477          3.790        -0.265
            15.741          1.638         9.622
            -0.108         -1.228         8.121

Total shielding tensor (ppm): 
            28.969         -3.499         0.935
            -3.476         36.029         1.302
             1.113          0.341        27.608


 Diagonalized sT*s matrix:
 
 sDSO            19.789           20.173           42.408  iso=      27.457
 sPSO             6.517            8.651           -4.933  iso=       3.412
        ---------------  ---------------  ---------------
 Total           26.306           28.824           37.475  iso=      30.869

 --------------
 Nucleus  62H :
 --------------

Diamagnetic contribution to the shielding tensor (ppm) : 
            32.958          0.327        -5.909
            -6.703         28.054        -4.763
             0.409         -6.364        37.157

Paramagnetic contribution to the shielding tensor (ppm): 
            -2.644         -0.527         3.361
             6.689          2.290         1.997
            -2.483          3.689        -4.018

Total shielding tensor (ppm): 
            30.313         -0.200        -2.548
            -0.013         30.344        -2.766
            -2.075         -2.675        33.139


 Diagonalized sT*s matrix:
 
 sDSO            24.610           33.982           39.576  iso=      32.723
 sPSO             3.217           -3.550           -4.038  iso=      -1.457
        ---------------  ---------------  ---------------
 Total           27.827           30.432           35.538  iso=      31.265

 --------------
 Nucleus  63H :
 --------------

Diamagnetic contribution to the shielding tensor (ppm) : 
            38.715         -0.387         7.770
            -9.411         13.351         1.225
             4.843          2.103        28.645

Paramagnetic contribution to the shielding tensor (ppm): 
            -5.255          0.937        -2.361
             9.224         16.531        -2.171
             1.449         -2.341         0.118

Total shielding tensor (ppm): 
            33.461          0.550         5.410
            -0.188         29.881        -0.947
             6.293         -0.238        28.763


 Diagonalized sT*s matrix:
 
 sDSO            26.695           12.483           41.533  iso=      26.904
 sPSO            -1.957           17.462           -4.112  iso=       3.798
        ---------------  ---------------  ---------------
 Total           24.739           29.946           37.420  iso=      30.702

 --------------
 Nucleus  64H :
 --------------

Diamagnetic contribution to the shielding tensor (ppm) : 
            24.608          4.341         4.770
            22.624         34.552         2.451
             5.139         -0.218        13.981

Paramagnetic contribution to the shielding tensor (ppm): 
             4.831         -1.051        -4.267
           -20.172          2.001        -1.093
            -5.229          2.105        12.115

Total shielding tensor (ppm): 
            29.440          3.290         0.503
             2.452         36.553         1.358
            -0.090          1.887        26.096


 Diagonalized sT*s matrix:
 
 sDSO            14.629           16.573           41.939  iso=      24.380
 sPSO            11.203           11.898           -4.154  iso=       6.316
        ---------------  ---------------  ---------------
 Total           25.832           28.471           37.786  iso=      30.696

 --------------
 Nucleus  65H :
 --------------

Diamagnetic contribution to the shielding tensor (ppm) : 
            37.857          6.188        -2.994
             8.167         13.941         0.280
           -13.231         -9.101        20.579

Paramagnetic contribution to the shielding tensor (ppm): 
            -3.327         -3.650        -2.229
            -5.109         13.938        -1.031
             8.816          8.357         9.685

Total shielding tensor (ppm): 
            34.530          2.538        -5.223
             3.059         27.879        -0.750
            -4.415         -0.745        30.264


 Diagonalized sT*s matrix:
 
 sDSO            15.835           13.835           42.707  iso=      24.126
 sPSO            10.434           14.176           -4.314  iso=       6.765
        ---------------  ---------------  ---------------
 Total           26.269           28.011           38.392  iso=      30.891

 --------------
 Nucleus  66H :
 --------------

Diamagnetic contribution to the shielding tensor (ppm) : 
            33.423          2.435         8.638
             2.357         12.628        -2.195
            11.532         -1.962        28.975

Paramagnetic contribution to the shielding tensor (ppm): 
            -0.734         -1.685        -3.774
            -1.208         16.795         1.699
            -7.255          1.084         1.129

Total shielding tensor (ppm): 
            32.689          0.750         4.864
             1.149         29.422        -0.496
             4.277         -0.878        30.103


 Diagonalized sT*s matrix:
 
 sDSO            17.996           15.526           41.504  iso=      25.008
 sPSO             8.253           14.277           -5.340  iso=       5.730
        ---------------  ---------------  ---------------
 Total           26.249           29.802           36.164  iso=      30.738

 --------------
 Nucleus  67H :
 --------------

Diamagnetic contribution to the shielding tensor (ppm) : 
            26.612         -2.734         1.626
             5.102         32.816         5.469
            13.115          0.165        43.961

Paramagnetic contribution to the shielding tensor (ppm): 
             2.327          1.701        -1.016
            -6.127         -4.118        -5.817
           -11.501         -0.468        -7.652

Total shielding tensor (ppm): 
            28.939         -1.033         0.610
            -1.025         28.699        -0.349
             1.613         -0.304        36.309


 Diagonalized sT*s matrix:
 
 sDSO            30.182           27.762           45.445  iso=      34.463
 sPSO            -2.429            1.930           -8.944  iso=      -3.148
        ---------------  ---------------  ---------------
 Total           27.753           29.692           36.501  iso=      31.315

 --------------
 Nucleus  68H :
 --------------

Diamagnetic contribution to the shielding tensor (ppm) : 
            40.012          2.109        -4.632
             9.688         38.888         9.069
             8.051         13.691        37.462

Paramagnetic contribution to the shielding tensor (ppm): 
            -3.108          1.206         5.106
            -6.560        -12.139        -6.800
            -8.704        -10.663        -9.201

Total shielding tensor (ppm): 
            36.904          3.315         0.474
             3.128         26.749         2.269
            -0.653          3.028        28.261


 Diagonalized sT*s matrix:
 
 sDSO            26.852           45.527           43.982  iso=      38.787
 sPSO            -2.668          -15.683           -6.096  iso=      -8.149
        ---------------  ---------------  ---------------
 Total           24.184           29.844           37.886  iso=      30.638

 --------------
 Nucleus  69H :
 --------------

Diamagnetic contribution to the shielding tensor (ppm) : 
            24.789         -6.271        -4.594
             8.446         47.416         5.770
             9.149          9.514        35.842

Paramagnetic contribution to the shielding tensor (ppm): 
             5.419          3.367         3.235
           -11.144        -12.679        -2.921
           -10.192         -5.733        -7.730

Total shielding tensor (ppm): 
            30.208         -2.904        -1.360
            -2.698         34.737         2.850
            -1.043          3.781        28.113


 Diagonalized sT*s matrix:
 
 sDSO            32.227           30.000           45.821  iso=      36.016
 sPSO            -5.489           -1.082           -8.419  iso=      -4.997
        ---------------  ---------------  ---------------
 Total           26.738           28.918           37.402  iso=      31.019

 --------------
 Nucleus  70H :
 --------------

Diamagnetic contribution to the shielding tensor (ppm) : 
            35.529         -7.621        -9.217
            -7.782         25.194         3.605
           -18.286          2.250        37.549

Paramagnetic contribution to the shielding tensor (ppm): 
            -1.562          6.066         5.278
             5.906          2.566        -0.544
            14.049          1.755        -7.170

Total shielding tensor (ppm): 
            33.967         -1.555        -3.939
            -1.876         27.759         3.061
            -4.238          4.004        30.379


 Diagonalized sT*s matrix:
 
 sDSO            26.748           19.779           51.744  iso=      32.757
 sPSO            -1.581            9.347          -13.931  iso=      -2.055
        ---------------  ---------------  ---------------
 Total           25.167           29.126           37.813  iso=      30.702

 --------------
 Nucleus  71H :
 --------------

Diamagnetic contribution to the shielding tensor (ppm) : 
            32.253          2.383         4.838
            -3.904         36.683         8.635
            -2.434          6.108        41.320

Paramagnetic contribution to the shielding tensor (ppm): 
             0.915         -1.869        -3.924
             4.907         -7.511        -3.752
             3.638         -1.347       -12.772

Total shielding tensor (ppm): 
            33.168          0.514         0.914
             1.003         29.172         4.883
             1.204          4.761        28.548


 Diagonalized sT*s matrix:
 
 sDSO            31.730           37.606           40.921  iso=      36.752
 sPSO            -7.709           -5.475           -6.184  iso=      -6.456
        ---------------  ---------------  ---------------
 Total           24.021           32.130           34.737  iso=      30.296

 --------------
 Nucleus  72H :
 --------------

Diamagnetic contribution to the shielding tensor (ppm) : 
            28.102         -5.679        -1.073
            -7.936         41.008        -3.562
            -1.373         -9.147        41.392

Paramagnetic contribution to the shielding tensor (ppm): 
             3.023          4.439         2.055
             6.327         -7.527         0.816
             1.911          6.428       -13.201

Total shielding tensor (ppm): 
            31.124         -1.239         0.982
            -1.609         33.480        -2.747
             0.537         -2.719        28.190


 Diagonalized sT*s matrix:
 
 sDSO            37.146           26.072           47.283  iso=      36.834
 sPSO           -10.119            4.433          -12.020  iso=      -5.902
        ---------------  ---------------  ---------------
 Total           27.027           30.505           35.263  iso=      30.932



--------------------------------
CHEMICAL SHIELDING SUMMARY (ppm)
--------------------------------


  Nucleus  Element    Isotropic     Anisotropy
  -------  -------  ------------   ------------
      3       H           29.636          5.426 
      4       H           29.131          5.315 
      8       H           29.560          6.407 
      9       H           29.419          7.768 
     10       H           29.627          8.800 
     11       H           30.527          6.234 
     13       H           28.184          2.729 
     16       H           26.850          5.132 
     17       H           26.511          5.021 
     19       H           25.444         10.790 
     21       H           25.688         15.035 
     24       H           28.885         10.009 
     25       H           30.000          9.355 
     27       H           30.223          7.173 
     28       H           30.145         11.771 
     30       H           29.704          8.305 
     31       H           30.440          6.724 
     33       H           29.837          3.973 
     35       H           31.115         14.869 
     37       H           30.330         10.706 
     38       H           30.217          9.569 
     40       H           29.784         11.176 
     41       H           30.212          7.903 
     42       H           30.762          5.361 
     45       H           31.042          8.316 
     46       H           31.263          9.285 
     47       H           31.244          7.269 
     48       H           29.773          3.595 
     52       H           26.013         13.286 
     53       H           26.485         10.126 
     57       H           29.714          7.825 
     58       H           29.881          6.725 
     61       H           30.869          9.910 
     62       H           31.265          6.409 
     63       H           30.702         10.078 
     64       H           30.696         10.634 
     65       H           30.891         11.252 
     66       H           30.738          8.138 
     67       H           31.315          7.779 
     68       H           30.638         10.872 
     69       H           31.019          9.574 
     70       H           30.702         10.667 
     71       H           30.296          6.661 
     72       H           30.932          6.498 



Maximum memory used throughout the entire EPRNMR-calculation: 140.7 MB

Timings for individual modules:

Sum of individual times         ...      140.108 sec (=   2.335 min)
GTO integral calculation        ...        0.783 sec (=   0.013 min)   0.6 %
SCF iterations                  ...       92.733 sec (=   1.546 min)  66.2 %
EPR/NMR calculation             ...       46.592 sec (=   0.777 min)  33.3 %
                             ****ORCA TERMINATED NORMALLY****
TOTAL RUN TIME: 0 days 0 hours 2 minutes 20 seconds 613 msec
