
                                 *****************
                                 * O   R   C   A *
                                 *****************

                                            #,                                       
                                            ###                                      
                                            ####                                     
                                            #####                                    
                                            ######                                   
                                           ########,                                 
                                     ,,################,,,,,                         
                               ,,#################################,,                 
                          ,,##########################################,,             
                       ,#########################################, ''#####,          
                    ,#############################################,,   '####,        
                  ,##################################################,,,,####,       
                ,###########''''           ''''###############################       
              ,#####''   ,,,,##########,,,,          '''####'''          '####       
            ,##' ,,,,###########################,,,                        '##       
           ' ,,###''''                  '''############,,,                           
         ,,##''                                '''############,,,,        ,,,,,,###''
      ,#''                                            '''#######################'''  
     '                                                          ''''####''''         
             ,#######,   #######,   ,#######,      ##                                
            ,#'     '#,  ##    ##  ,#'     '#,    #''#        ######   ,####,        
            ##       ##  ##   ,#'  ##            #'  '#       #        #'  '#        
            ##       ##  #######   ##           ,######,      #####,   #    #        
            '#,     ,#'  ##    ##  '#,     ,#' ,#      #,         ##   #,  ,#        
             '#######'   ##     ##  '#######'  #'      '#     #####' # '####'        



                  #######################################################
                  #                        -***-                        #
                  #          Department of theory and spectroscopy      #
                  #    Directorship and core code : Frank Neese         #
                  #        Max Planck Institute fuer Kohlenforschung    #
                  #                Kaiser Wilhelm Platz 1               #
                  #                 D-45470 Muelheim/Ruhr               #
                  #                      Germany                        #
                  #                                                     #
                  #                  All rights reserved                #
                  #                        -***-                        #
                  #######################################################


                         Program Version 5.0.2 -  RELEASE  -


 With contributions from (in alphabetic order):
   Daniel Aravena         : Magnetic Suceptibility
   Michael Atanasov       : Ab Initio Ligand Field Theory (pilot matlab implementation)
   Alexander A. Auer      : GIAO ZORA, VPT2 properties, NMR spectrum
   Ute Becker             : Parallelization
   Giovanni Bistoni       : ED, misc. LED, open-shell LED, HFLD
   Martin Brehm           : Molecular dynamics
   Dmytro Bykov           : SCF Hessian
   Vijay G. Chilkuri      : MRCI spin determinant printing, contributions to CSF-ICE
   Dipayan Datta          : RHF DLPNO-CCSD density
   Achintya Kumar Dutta   : EOM-CC, STEOM-CC
   Dmitry Ganyushin       : Spin-Orbit,Spin-Spin,Magnetic field MRCI
   Miquel Garcia          : C-PCM and meta-GGA Hessian, CC/C-PCM, Gaussian charge scheme
   Yang Guo               : DLPNO-NEVPT2, F12-NEVPT2, CIM, IAO-localization
   Andreas Hansen         : Spin unrestricted coupled pair/coupled cluster methods
   Benjamin Helmich-Paris : MC-RPA, TRAH-SCF, COSX integrals
   Lee Huntington         : MR-EOM, pCC
   Robert Izsak           : Overlap fitted RIJCOSX, COSX-SCS-MP3, EOM
   Marcus Kettner         : VPT2
   Christian Kollmar      : KDIIS, OOCD, Brueckner-CCSD(T), CCSD density, CASPT2, CASPT2-K
   Simone Kossmann        : Meta GGA functionals, TD-DFT gradient, OOMP2, MP2 Hessian
   Martin Krupicka        : Initial AUTO-CI
   Lucas Lang             : DCDCAS
   Marvin Lechner         : AUTO-CI (C++ implementation), FIC-MRCC
   Dagmar Lenk            : GEPOL surface, SMD
   Dimitrios Liakos       : Extrapolation schemes; Compound Job, initial MDCI parallelization
   Dimitrios Manganas     : Further ROCIS development; embedding schemes
   Dimitrios Pantazis     : SARC Basis sets
   Anastasios Papadopoulos: AUTO-CI, single reference methods and gradients
   Taras Petrenko         : DFT Hessian,TD-DFT gradient, ASA, ECA, R-Raman, ABS, FL, XAS/XES, NRVS
   Peter Pinski           : DLPNO-MP2, DLPNO-MP2 Gradient
   Christoph Reimann      : Effective Core Potentials
   Marius Retegan         : Local ZFS, SOC
   Christoph Riplinger    : Optimizer, TS searches, QM/MM, DLPNO-CCSD(T), (RO)-DLPNO pert. Triples
   Tobias Risthaus        : Range-separated hybrids, TD-DFT gradient, RPA, STAB
   Michael Roemelt        : Original ROCIS implementation
   Masaaki Saitow         : Open-shell DLPNO-CCSD energy and density
   Barbara Sandhoefer     : DKH picture change effects
   Avijit Sen             : IP-ROCIS
   Kantharuban Sivalingam : CASSCF convergence, NEVPT2, FIC-MRCI
   Bernardo de Souza      : ESD, SOC TD-DFT
   Georgi Stoychev        : AutoAux, RI-MP2 NMR, DLPNO-MP2 response
   Willem Van den Heuvel  : Paramagnetic NMR
   Boris Wezisla          : Elementary symmetry handling
   Frank Wennmohs         : Technical directorship


 We gratefully acknowledge several colleagues who have allowed us to
 interface, adapt or use parts of their codes:
   Stefan Grimme, W. Hujo, H. Kruse, P. Pracht,  : VdW corrections, initial TS optimization,
                  C. Bannwarth, S. Ehlert          DFT functionals, gCP, sTDA/sTD-DF
   Ed Valeev, F. Pavosevic, A. Kumar             : LibInt (2-el integral package), F12 methods
   Garnet Chan, S. Sharma, J. Yang, R. Olivares  : DMRG
   Ulf Ekstrom                                   : XCFun DFT Library
   Mihaly Kallay                                 : mrcc  (arbitrary order and MRCC methods)
   Jiri Pittner, Ondrej Demel                    : Mk-CCSD
   Frank Weinhold                                : gennbo (NPA and NBO analysis)
   Christopher J. Cramer and Donald G. Truhlar   : smd solvation model
   Lars Goerigk                                  : TD-DFT with DH, B97 family of functionals
   V. Asgeirsson, H. Jonsson                     : NEB implementation
   FAccTs GmbH                                   : IRC, NEB, NEB-TS, DLPNO-Multilevel, CI-OPT
                                                   MM, QMMM, 2- and 3-layer-ONIOM, Crystal-QMMM,
                                                   LR-CPCM, SF, NACMEs, symmetry and pop. for TD-DFT,
                                                   nearIR, NL-DFT gradient (VV10), updates on ESD,
                                                   ML-optimized integration grids
   S Lehtola, MJT Oliveira, MAL Marques          : LibXC Library
   Liviu Ungur et al                             : ANISO software


 Your calculation uses the libint2 library for the computation of 2-el integrals
 For citations please refer to: http://libint.valeyev.net

 Your ORCA version has been built with support for libXC version: 5.1.0
 For citations please refer to: https://tddft.org/programs/libxc/

 This ORCA versions uses:
   CBLAS   interface :  Fast vector & matrix operations
   LAPACKE interface :  Fast linear algebra routines
   SCALAPACK package :  Parallel linear algebra routines
   Shared memory     :  Shared parallel matrices
   BLAS/LAPACK       :  OpenBLAS 0.3.15  USE64BITINT DYNAMIC_ARCH NO_AFFINITY Zen SINGLE_THREADED
        Core in use  :  Zen
   Copyright (c) 2011-2014, The OpenBLAS Project


Your calculation utilizes the atom-pairwise dispersion correction
based on tight binding partial charges (D4)
Cite in your paper:
E.Caldeweyher, C.Bannwarth, S.Grimme, J.Chem.Phys., (2017), 147, 034112.
E.Caldeweyher, S.Ehlert, A.Hansen, H.Neugebauer, S.Grimme, J.Chem.Phys., (2018), in progress.
   

================================================================================

----- Orbital basis set information -----
Your calculation utilizes the basis: pcJ-0
   F. Jensen, Theor. Chem. Acc. 126, 371 (2010).

----- AuxJ basis set information -----
Your calculation utilizes the auxiliary basis: def2/J
   F. Weigend, Phys. Chem. Chem. Phys. 8, 1057 (2006).

================================================================================
                                        WARNINGS
                       Please study these warnings very carefully!
================================================================================


INFO   : the flag for use of the SHARK integral package has been found!

================================================================================
                                       INPUT FILE
================================================================================
NAME = inpJ
|  1> ! pbe0
|  2> ! D4
|  3> ! pcJ-0
|  4> ! def2/J RIJCOSX
|  5> ! DEFGRID2
|  6> ! scfconv7
|  7> ! smallprint printgap noloewdin
|  8> ! NOSOSCF
|  9> %MaxCore 4000
| 10> %output
| 11>        print[P_BondOrder_M] 1
| 12>        print[P_Mayer] 1
| 13>        print[P_basis] 2
| 14> end
| 15> %pal
| 16>     nprocs 4
| 17> end
| 18> ! CPCM(chloroform)
| 19> *xyz 0 1
| 20> C   -5.0048251900   0.3546378800   0.3352610700
| 21> C   -6.4215642700  -0.0386852000  -0.0107683400
| 22> C   -6.9472907000   0.7414970100  -1.2218645000
| 23> H   -7.0843951100   0.1936421000   0.8400927500
| 24> H   -6.4887352900  -1.1152955500  -0.2022594100
| 25> C   -4.7938798600   1.8126338200   0.4590143900
| 26> C   -5.3658507200   2.6266023500  -0.6798217400
| 27> C   -6.8207919800   2.2414204600  -0.9799961200
| 28> H   -4.7629540800   2.4347586200  -1.5804543100
| 29> H   -5.2878919700   3.6959137200  -0.4567434300
| 30> H   -7.1853394900   2.7891332000  -1.8570191100
| 31> H   -7.4590883500   2.5153023900  -0.1263764700
| 32> O   -8.2936676100   0.3639438200  -1.5381265400
| 33> H   -6.3606714600   0.4639830700  -2.1088368500
| 34> C   -4.0356632100  -0.5821473000   0.4644119000
| 35> C   -4.1893972800   2.3825379500   1.5077776800
| 36> H   -3.8066926900   1.7879010200   2.3325796600
| 37> H   -4.0745135400   3.4622174900   1.5679887500
| 38> C   -2.6306794200  -0.3382712600   0.6955992900
| 39> H   -4.3491908900  -1.6176636700   0.3395154400
| 40> C   -1.6778221900  -1.2735890400   0.8971844700
| 41> H   -2.3230533200   0.7049307500   0.6930164000
| 42> C   -1.9086404400  -2.7611728400   0.9790603100
| 43> C   -0.9880801400  -3.5350452200   0.0171091000
| 44> H   -2.9519834600  -3.0307799000   0.7939361600
| 45> H   -1.6762796500  -3.0808052700   2.0075865000
| 46> C    0.4873051700  -3.1388470500   0.1632845300
| 47> H   -1.3187912800  -3.3588051500  -1.0142986900
| 48> H   -1.0986605900  -4.6109068900   0.2002335300
| 49> C    0.6883824500  -1.6230578300   0.0234133400
| 50> H    1.0772384300  -3.6905630500  -0.5755410000
| 51> H    0.8481230300  -3.4464416400   1.1564145000
| 52> C   -0.2306020100  -0.9323459500   1.0811443600
| 53> H    0.0732937000  -1.3802317400   2.0453391100
| 54> C    0.2389287600   0.5185185300   1.0926598300
| 55> H   -8.8475283400   0.5975863900  -0.7812080500
| 56> C    1.7679379200   0.4066468700   0.8748528200
| 57> H   -0.0212244000   1.0292652100   2.0257171400
| 58> H   -0.2240931000   1.0827427000   0.2755136200
| 59> C    2.0692173900  -1.0714662100   0.4781224900
| 60> H    2.3250213300   0.6879998300   1.7740851000
| 61> H    2.0928483800   1.0870888700   0.0783556200
| 62> H    2.3442006700  -1.6281197700   1.3886391100
| 63> C    3.2731107700  -1.1807378000  -0.4897646400
| 64> C    0.3468943100  -1.1470358600  -1.3948149900
| 65> H   -0.7203243300  -1.2607532600  -1.6088037000
| 66> H    0.9037530100  -1.7232221700  -2.1417513200
| 67> H    0.5969270300  -0.0909033300  -1.5369133700
| 68> H    3.0197996700  -0.5842194100  -1.3823946700
| 69> C    3.5628882100  -2.6110515900  -0.9407005700
| 70> C    4.4664284500  -0.5104327000   0.1519530700
| 71> C    5.6023854500  -1.1011377300   0.5252400200
| 72> H    4.3411497900   0.5554391300   0.3356525600
| 73> H    5.7231459100  -2.1707793800   0.3442355500
| 74> C    6.8003971400  -0.4633326300   1.1896874700
| 75> C    7.2558394300  -1.3529944400   2.3591407000
| 76> C    6.6150264900   1.0165485900   1.5880937400
| 77> H    7.6141647700  -0.4856061900   0.4441754500
| 78> H    6.1597518500   1.5231117600   0.7248901300
| 79> C    7.9609346400   1.7023311900   1.8440059900
| 80> C    5.6893035900   1.2026359000   2.7950522700
| 81> H    7.4971437200  -2.3587504800   1.9986334000
| 82> H    6.4658430500  -1.4509586600   3.1113587300
| 83> H    8.1485304000  -0.9510681800   2.8487496200
| 84> H    7.8167741300   2.7712818200   2.0372102100
| 85> H    8.6297873200   1.6011610600   0.9817024800
| 86> H    8.4669348000   1.2766514400   2.7180823500
| 87> H    6.1773948900   0.8619258200   3.7155450000
| 88> H    4.7547837000   0.6439298100   2.6833858000
| 89> H    5.4401688300   2.2615218400   2.9266956600
| 90> H    4.4877908400  -2.6521614000  -1.5260669000
| 91> H    2.7575677100  -2.9950081400  -1.5698801800
| 92> H    3.6728640600  -3.2855577900  -0.0832720800
| 93> *
| 94> %eprnmr
| 95>  Nuclei = all H { ssfc }
| 96>  SpinSpinRThresh 8.0
| 97> end
| 98> 
| 99>                          ****END OF INPUT****
================================================================================

                       ****************************
                       * Single Point Calculation *
                       ****************************

---------------------------------
CARTESIAN COORDINATES (ANGSTROEM)
---------------------------------
  C     -5.004825    0.354638    0.335261
  C     -6.421564   -0.038685   -0.010768
  C     -6.947291    0.741497   -1.221864
  H     -7.084395    0.193642    0.840093
  H     -6.488735   -1.115296   -0.202259
  C     -4.793880    1.812634    0.459014
  C     -5.365851    2.626602   -0.679822
  C     -6.820792    2.241420   -0.979996
  H     -4.762954    2.434759   -1.580454
  H     -5.287892    3.695914   -0.456743
  H     -7.185339    2.789133   -1.857019
  H     -7.459088    2.515302   -0.126376
  O     -8.293668    0.363944   -1.538127
  H     -6.360671    0.463983   -2.108837
  C     -4.035663   -0.582147    0.464412
  C     -4.189397    2.382538    1.507778
  H     -3.806693    1.787901    2.332580
  H     -4.074514    3.462217    1.567989
  C     -2.630679   -0.338271    0.695599
  H     -4.349191   -1.617664    0.339515
  C     -1.677822   -1.273589    0.897184
  H     -2.323053    0.704931    0.693016
  C     -1.908640   -2.761173    0.979060
  C     -0.988080   -3.535045    0.017109
  H     -2.951983   -3.030780    0.793936
  H     -1.676280   -3.080805    2.007586
  C      0.487305   -3.138847    0.163285
  H     -1.318791   -3.358805   -1.014299
  H     -1.098661   -4.610907    0.200234
  C      0.688382   -1.623058    0.023413
  H      1.077238   -3.690563   -0.575541
  H      0.848123   -3.446442    1.156414
  C     -0.230602   -0.932346    1.081144
  H      0.073294   -1.380232    2.045339
  C      0.238929    0.518519    1.092660
  H     -8.847528    0.597586   -0.781208
  C      1.767938    0.406647    0.874853
  H     -0.021224    1.029265    2.025717
  H     -0.224093    1.082743    0.275514
  C      2.069217   -1.071466    0.478122
  H      2.325021    0.688000    1.774085
  H      2.092848    1.087089    0.078356
  H      2.344201   -1.628120    1.388639
  C      3.273111   -1.180738   -0.489765
  C      0.346894   -1.147036   -1.394815
  H     -0.720324   -1.260753   -1.608804
  H      0.903753   -1.723222   -2.141751
  H      0.596927   -0.090903   -1.536913
  H      3.019800   -0.584219   -1.382395
  C      3.562888   -2.611052   -0.940701
  C      4.466428   -0.510433    0.151953
  C      5.602385   -1.101138    0.525240
  H      4.341150    0.555439    0.335653
  H      5.723146   -2.170779    0.344236
  C      6.800397   -0.463333    1.189687
  C      7.255839   -1.352994    2.359141
  C      6.615026    1.016549    1.588094
  H      7.614165   -0.485606    0.444175
  H      6.159752    1.523112    0.724890
  C      7.960935    1.702331    1.844006
  C      5.689304    1.202636    2.795052
  H      7.497144   -2.358750    1.998633
  H      6.465843   -1.450959    3.111359
  H      8.148530   -0.951068    2.848750
  H      7.816774    2.771282    2.037210
  H      8.629787    1.601161    0.981702
  H      8.466935    1.276651    2.718082
  H      6.177395    0.861926    3.715545
  H      4.754784    0.643930    2.683386
  H      5.440169    2.261522    2.926696
  H      4.487791   -2.652161   -1.526067
  H      2.757568   -2.995008   -1.569880
  H      3.672864   -3.285558   -0.083272

----------------------------
CARTESIAN COORDINATES (A.U.)
----------------------------
  NO LB      ZA    FRAG     MASS         X           Y           Z
   0 C     6.0000    0    12.011   -9.457749    0.670168    0.633552
   1 C     6.0000    0    12.011  -12.134998   -0.073104   -0.020349
   2 C     6.0000    0    12.011  -13.128477    1.401226   -2.308989
   3 H     1.0000    0     1.008  -13.387567    0.365931    1.587545
   4 H     1.0000    0     1.008  -12.261933   -2.107603   -0.382215
   5 C     6.0000    0    12.011   -9.059120    3.425382    0.867411
   6 C     6.0000    0    12.011  -10.139988    4.963559   -1.284677
   7 C     6.0000    0    12.011  -12.889429    4.235671   -1.851924
   8 H     1.0000    0     1.008   -9.000679    4.601027   -2.986626
   9 H     1.0000    0     1.008   -9.992668    6.984265   -0.863120
  10 H     1.0000    0     1.008  -13.578324    5.270698   -3.509258
  11 H     1.0000    0     1.008  -14.095634    4.753233   -0.238817
  12 O     8.0000    0    15.999  -15.672760    0.687754   -2.906638
  13 H     1.0000    0     1.008  -12.019927    0.876801   -3.985124
  14 C     6.0000    0    12.011   -7.626298   -1.100099    0.877611
  15 C     6.0000    0    12.011   -7.916814    4.502344    2.849287
  16 H     1.0000    0     1.008   -7.193607    3.378643    4.407937
  17 H     1.0000    0     1.008   -7.699715    6.542643    2.963069
  18 C     6.0000    0    12.011   -4.971264   -0.639240    1.314492
  19 H     1.0000    0     1.008   -8.218780   -3.056941    0.641591
  20 C     6.0000    0    12.011   -3.170624   -2.406734    1.695433
  21 H     1.0000    0     1.008   -4.389935    1.332126    1.309611
  22 C     6.0000    0    12.011   -3.606808   -5.217860    1.850156
  23 C     6.0000    0    12.011   -1.867201   -6.680267    0.032332
  24 H     1.0000    0     1.008   -5.578440   -5.727344    1.500322
  25 H     1.0000    0     1.008   -3.167709   -5.821878    3.793789
  26 C     6.0000    0    12.011    0.920873   -5.931561    0.308563
  27 H     1.0000    0     1.008   -2.492154   -6.347222   -1.916747
  28 H     1.0000    0     1.008   -2.076168   -8.713351    0.378387
  29 C     6.0000    0    12.011    1.300854   -3.067135    0.044245
  30 H     1.0000    0     1.008    2.035686   -6.974153   -1.087615
  31 H     1.0000    0     1.008    1.602720   -6.512831    2.185307
  32 C     6.0000    0    12.011   -0.435775   -1.761879    2.043067
  33 H     1.0000    0     1.008    0.138505   -2.608260    3.865131
  34 C     6.0000    0    12.011    0.451510    0.979858    2.064828
  35 H     1.0000    0     1.008  -16.719406    1.129275   -1.476269
  36 C     6.0000    0    12.011    3.340918    0.768451    1.653232
  37 H     1.0000    0     1.008   -0.040108    1.945029    3.828051
  38 H     1.0000    0     1.008   -0.423475    2.046087    0.520645
  39 C     6.0000    0    12.011    3.910254   -2.024778    0.903521
  40 H     1.0000    0     1.008    4.393654    1.300131    3.352535
  41 H     1.0000    0     1.008    3.954910    2.054300    0.148071
  42 H     1.0000    0     1.008    4.429897   -3.076700    2.624148
  43 C     6.0000    0    12.011    6.185283   -2.231271   -0.925521
  44 C     6.0000    0    12.011    0.655535   -2.167584   -2.635818
  45 H     1.0000    0     1.008   -1.361216   -2.382478   -3.040198
  46 H     1.0000    0     1.008    1.707846   -3.256418   -4.047323
  47 H     1.0000    0     1.008    1.128029   -0.171782   -2.904345
  48 H     1.0000    0     1.008    5.706594   -1.104015   -2.612347
  49 C     6.0000    0    12.011    6.732883   -4.934172   -1.777666
  50 C     6.0000    0    12.011    8.440327   -0.964578    0.287150
  51 C     6.0000    0    12.011   10.586974   -2.080849    0.992560
  52 H     1.0000    0     1.008    8.203584    1.049628    0.634291
  53 H     1.0000    0     1.008   10.815178   -4.102179    0.650511
  54 C     6.0000    0    12.011   12.850888   -0.875572    2.248184
  55 C     6.0000    0    12.011   13.711549   -2.556789    4.458130
  56 C     6.0000    0    12.011   12.500588    1.920998    3.001062
  57 H     1.0000    0     1.008   14.388686   -0.917663    0.839370
  58 H     1.0000    0     1.008   11.640244    2.878264    1.369844
  59 C     6.0000    0    12.011   15.043986    3.216940    3.484666
  60 C     6.0000    0    12.011   10.751226    2.272652    5.281883
  61 H     1.0000    0     1.008   14.167548   -4.457392    3.776870
  62 H     1.0000    0     1.008   12.218673   -2.741914    5.879616
  63 H     1.0000    0     1.008   15.398491   -1.797258    5.383357
  64 H     1.0000    0     1.008   14.771562    5.236964    3.849769
  65 H     1.0000    0     1.008   16.307935    3.025756    1.855149
  66 H     1.0000    0     1.008   16.000188    2.412522    5.136431
  67 H     1.0000    0     1.008   11.673585    1.628804    7.021362
  68 H     1.0000    0     1.008    8.985239    1.216851    5.070864
  69 H     1.0000    0     1.008   10.280429    4.273657    5.530653
  70 H     1.0000    0     1.008    8.480696   -5.011859   -2.883849
  71 H     1.0000    0     1.008    5.211048   -5.659745   -2.966644
  72 H     1.0000    0     1.008    6.940707   -6.208804   -0.157361

--------------------------------
INTERNAL COORDINATES (ANGSTROEM)
--------------------------------
 C      0   0   0     0.000000000000     0.00000000     0.00000000
 C      1   0   0     1.510492972061     0.00000000     0.00000000
 C      2   1   0     1.533566584393   111.71415367     0.00000000
 H      2   1   3     1.103306526427   109.38895502   241.45405112
 H      2   1   3     1.095568629318   110.69754458   122.86718261
 C      1   2   3     1.478365644053   114.19316823    50.56250317
 C      6   1   2     1.512165058290   114.44686568   312.10162854
 C      3   2   1     1.524556524129   110.29073358   304.90755316
 H      7   6   1     1.100648627587   108.37549307   289.80386445
 H      7   6   1     1.095111092586   110.19764445   172.63203925
 H      8   3   2     1.096381985256   109.69398457   179.16835030
 H      8   3   2     1.100499920219   108.64973540   296.60673911
 O      3   2   1     1.433631358825   111.23446247   180.21386508
 H      3   2   1     1.099025053990   109.02065353    65.04428435
 C      1   2   3     1.354075830164   120.86485143   232.73756497
 C      6   1   2     1.337944074080   123.37862668   129.91742155
 H     16   6   1     1.086441065101   121.40628134     0.65469926
 H     16   6   1     1.087442667804   120.93377479   181.35210406
 C     15   1   2     1.444611567981   126.48231183   175.24590211
 H     15   1   2     1.089124824979   116.15466057   357.93030757
 C     19  15   1     1.350330639193   126.38785508   176.09486583
 H     19  15   1     1.087617084451   115.88899229   355.34971191
 C     21  19  15     1.507609458624   125.69914319   357.18994136
 C     23  21  19     1.540019433930   111.73980824   127.62274619
 H     23  21  19     1.093400006904   112.34603981     3.53122404
 H     23  21  19     1.101826914970   107.73698976   246.26535933
 C     24  23  21     1.534634177650   112.67170829    50.98817289
 H     24  23  21     1.097375254718   109.04065535   288.88561992
 H     24  23  21     1.096923391017   109.16688777   172.90413422
 C     27  24  23     1.535452044771   111.84448451   306.07369556
 H     27  24  23     1.094657462264   108.88714456   182.47821974
 H     27  24  23     1.100504928296   109.20841818    66.02480148
 C     21  19  15     1.498243750863   122.83248341   177.73538580
 H     33  21  19     1.105724106352   106.27745669   124.14446455
 C     33  21  19     1.524991635830   120.99902119     1.93930002
 H     13   3   2     0.966579618684   107.56133528    62.64826911
 C     35  33  21     1.548490934194   103.54571394   196.39762346
 H     35  33  21     1.095051497206   112.14982636    74.45178075
 H     35  33  21     1.095657832248   110.74362150   314.80623504
 C     30  27  24     1.554901558901   116.09481317   166.20542216
 H     37  35  33     1.094586728949   111.61801960   249.18563663
 H     37  35  33     1.096802585696   110.47706847   130.70964437
 H     40  30  27     1.102052405939   106.49991117   320.67978450
 C     40  30  27     1.548581624329   118.85396319    80.99009411
 C     30  27  24     1.534464943131   111.17991886   294.31228887
 H     45  30  27     1.094384959981   111.43883060    66.61206001
 H     45  30  27     1.095443360777   110.72643994   306.47416013
 H     45  30  27     1.094588612947   111.62135963   186.58547725
 H     44  40  30     1.103081625923   106.80334545    62.41592472
 C     44  40  30     1.527452688486   113.45810865   303.38755491
 C     44  40  30     1.511660554428   108.48667581   176.92788700
 C     51  44  40     1.333669331340   126.49838009   115.63848749
 H     51  44  40     1.088817249710   114.51119137   297.28066085
 H     52  51  44     1.091548884052   118.80604185     1.41016580
 C     52  51  44     1.511131287736   127.69008219   181.17054014
 C     55  52  51     1.538358434452   108.95826632   134.27486240
 C     55  52  51     1.543741642622   115.01727203     5.97671750
 H     55  52  51     1.103857798394   106.19876802   248.60117452
 H     57  55  52     1.099546140616   106.78361176   313.85730554
 C     57  55  52     1.532076239095   111.51351278   197.56393523
 C     57  55  52     1.532429531061   113.09227472    72.74832418
 H     56  55  52     1.095325744116   110.24557853    58.01262089
 H     56  55  52     1.095227480239   111.11821066   298.77306055
 H     56  55  52     1.094604394720   111.66159695   177.74494926
 H     60  57  55     1.095794493802   110.51974411   174.93636007
 H     60  57  55     1.095977484306   111.30793797    54.92351730
 H     60  57  55     1.096015006554   111.40364843   294.25133882
 H     61  57  55     1.096185815331   110.77223628    71.43667252
 H     61  57  55     1.094508711857   111.92816820   310.98122553
 H     61  57  55     1.095736074381   110.44596576   190.42650777
 H     50  44  40     1.095348634799   110.67738450   186.61595647
 H     50  44  40     1.091709998877   111.07153098    67.21070376
 H     50  44  40     1.096465647836   111.35897417   306.84913416

---------------------------
INTERNAL COORDINATES (A.U.)
---------------------------
 C      0   0   0     0.000000000000     0.00000000     0.00000000
 C      1   0   0     2.854418044408     0.00000000     0.00000000
 C      2   1   0     2.898020852636   111.71415367     0.00000000
 H      2   1   3     2.084947176715   109.38895502   241.45405112
 H      2   1   3     2.070324670326   110.69754458   122.86718261
 C      1   2   3     2.793706193058   114.19316823    50.56250317
 C      6   1   2     2.857577829453   114.44686568   312.10162854
 C      3   2   1     2.880994306287   110.29073358   304.90755316
 H      7   6   1     2.079924475815   108.37549307   289.80386445
 H      7   6   1     2.069460051207   110.19764445   172.63203925
 H      8   3   2     2.071861690299   109.69398457   179.16835030
 H      8   3   2     2.079643459616   108.64973540   296.60673911
 O      3   2   1     2.709170645180   111.23446247   180.21386508
 H      3   2   1     2.076856366359   109.02065353    65.04428435
 C      1   2   3     2.558832483572   120.86485143   232.73756497
 C      6   1   2     2.528347882514   123.37862668   129.91742155
 H     16   6   1     2.053076073687   121.40628134     0.65469926
 H     16   6   1     2.054968828491   120.93377479   181.35210406
 C     15   1   2     2.729920233378   126.48231183   175.24590211
 H     15   1   2     2.058147644864   116.15466057   357.93030757
 C     19  15   1     2.551755098317   126.38785508   176.09486583
 H     19  15   1     2.055298428187   115.88899229   355.34971191
 C     21  19  15     2.848968993708   125.69914319   357.18994136
 C     23  21  19     2.910214971045   111.73980824   127.62274619
 H     23  21  19     2.066226567876   112.34603981     3.53122404
 H     23  21  19     2.082151116277   107.73698976   246.26535933
 C     24  23  21     2.900038311514   112.67170829    50.98817289
 H     24  23  21     2.073738697558   109.04065535   288.88561992
 H     24  23  21     2.072884798914   109.16688777   172.90413422
 C     27  24  23     2.901583856387   111.84448451   306.07369556
 H     27  24  23     2.068602814132   108.88714456   182.47821974
 H     27  24  23     2.079652923511   109.20841818    66.02480148
 C     21  19  15     2.831270370990   122.83248341   177.73538580
 H     33  21  19     2.089515740680   106.27745669   124.14446455
 C     33  21  19     2.881816548239   120.99902119     1.93930002
 H     13   3   2     1.826570765944   107.56133528    62.64826911
 C     35  33  21     2.926223786486   103.54571394   196.39762346
 H     35  33  21     2.069347432260   112.14982636    74.45178075
 H     35  33  21     2.070493239435   110.74362150   314.80623504
 C     30  27  24     2.938338111530   116.09481317   166.20542216
 H     37  35  33     2.068469147539   111.61801960   249.18563663
 H     37  35  33     2.072656509942   110.47706847   130.70964437
 H     40  30  27     2.082577232454   106.49991117   320.67978450
 C     40  30  27     2.926395166004   118.85396319    80.99009411
 C     30  27  24     2.899718504621   111.17991886   294.31228887
 H     45  30  27     2.068087859447   111.43883060    66.61206001
 H     45  30  27     2.070087947091   110.72643994   306.47416013
 H     45  30  27     2.068472707779   111.62135963   186.58547725
 H     44  40  30     2.084522176355   106.80334545    62.41592472
 C     44  40  30     2.886467263760   113.45810865   303.38755491
 C     44  40  30     2.856624455321   108.48667581   176.92788700
 C     51  44  40     2.520269789442   126.49838009   115.63848749
 H     51  44  40     2.057566411841   114.51119137   297.28066085
 H     52  51  44     2.062728452645   118.80604185     1.41016580
 C     52  51  44     2.855624286220   127.69008219   181.17054014
 C     55  52  51     2.907076136923   108.95826632   134.27486240
 C     55  52  51     2.917248926085   115.01727203     5.97671750
 H     55  52  51     2.085988929758   106.19876802   248.60117452
 H     57  55  52     2.077841077375   106.78361176   313.85730554
 C     57  55  52     2.895204508177   111.51351278   197.56393523
 C     57  55  52     2.895872133238   113.09227472    72.74832418
 H     56  55  52     2.069865683812   110.24557853    58.01262089
 H     56  55  52     2.069679991996   111.11821066   298.77306055
 H     56  55  52     2.068502531008   111.66159695   177.74494926
 H     60  57  55     2.070751492345   110.51974411   174.93636007
 H     60  57  55     2.071097294282   111.30793797    54.92351730
 H     60  57  55     2.071168201054   111.40364843   294.25133882
 H     61  57  55     2.071490982864   110.77223628    71.43667252
 H     61  57  55     2.068321716601   111.92816820   310.98122553
 H     61  57  55     2.070641095639   110.44596576   190.42650777
 H     50  44  40     2.069908940935   110.67738450   186.61595647
 H     50  44  40     2.063032915541   111.07153098    67.21070376
 H     50  44  40     2.072019789663   111.35897417   306.84913416

---------------------
BASIS SET INFORMATION
---------------------
There are 3 groups of distinct atoms

 Group   1 Type C   : 7s4p contracted to 4s3p pattern {4111/211}
 Group   2 Type H   : 5s contracted to 3s pattern {311}
 Group   3 Type O   : 7s4p contracted to 4s3p pattern {4111/211}

Atom   0C    basis set group =>   1
Atom   1C    basis set group =>   1
Atom   2C    basis set group =>   1
Atom   3H    basis set group =>   2
Atom   4H    basis set group =>   2
Atom   5C    basis set group =>   1
Atom   6C    basis set group =>   1
Atom   7C    basis set group =>   1
Atom   8H    basis set group =>   2
Atom   9H    basis set group =>   2
Atom  10H    basis set group =>   2
Atom  11H    basis set group =>   2
Atom  12O    basis set group =>   3
Atom  13H    basis set group =>   2
Atom  14C    basis set group =>   1
Atom  15C    basis set group =>   1
Atom  16H    basis set group =>   2
Atom  17H    basis set group =>   2
Atom  18C    basis set group =>   1
Atom  19H    basis set group =>   2
Atom  20C    basis set group =>   1
Atom  21H    basis set group =>   2
Atom  22C    basis set group =>   1
Atom  23C    basis set group =>   1
Atom  24H    basis set group =>   2
Atom  25H    basis set group =>   2
Atom  26C    basis set group =>   1
Atom  27H    basis set group =>   2
Atom  28H    basis set group =>   2
Atom  29C    basis set group =>   1
Atom  30H    basis set group =>   2
Atom  31H    basis set group =>   2
Atom  32C    basis set group =>   1
Atom  33H    basis set group =>   2
Atom  34C    basis set group =>   1
Atom  35H    basis set group =>   2
Atom  36C    basis set group =>   1
Atom  37H    basis set group =>   2
Atom  38H    basis set group =>   2
Atom  39C    basis set group =>   1
Atom  40H    basis set group =>   2
Atom  41H    basis set group =>   2
Atom  42H    basis set group =>   2
Atom  43C    basis set group =>   1
Atom  44C    basis set group =>   1
Atom  45H    basis set group =>   2
Atom  46H    basis set group =>   2
Atom  47H    basis set group =>   2
Atom  48H    basis set group =>   2
Atom  49C    basis set group =>   1
Atom  50C    basis set group =>   1
Atom  51C    basis set group =>   1
Atom  52H    basis set group =>   2
Atom  53H    basis set group =>   2
Atom  54C    basis set group =>   1
Atom  55C    basis set group =>   1
Atom  56C    basis set group =>   1
Atom  57H    basis set group =>   2
Atom  58H    basis set group =>   2
Atom  59C    basis set group =>   1
Atom  60C    basis set group =>   1
Atom  61H    basis set group =>   2
Atom  62H    basis set group =>   2
Atom  63H    basis set group =>   2
Atom  64H    basis set group =>   2
Atom  65H    basis set group =>   2
Atom  66H    basis set group =>   2
Atom  67H    basis set group =>   2
Atom  68H    basis set group =>   2
Atom  69H    basis set group =>   2
Atom  70H    basis set group =>   2
Atom  71H    basis set group =>   2
Atom  72H    basis set group =>   2

-------------------------
BASIS SET IN INPUT FORMAT
-------------------------

 # Basis set for element : H 
 NewGTO H 
 S 3 
   1    1357.7500000000      0.0012928364
   2      54.3100000000      0.0588280685
   3       4.3448000000      0.9761499708
 S 1 
   1       0.6604910000      1.0000000000
 S 1 
   1       0.1366870000      1.0000000000
  end;

 # Basis set for element : C 
 NewGTO C 
 S 4 
   1  139534.0000000000      0.0001655246
   2    5581.3600000000      0.0074486101
   3     446.5090000000      0.1285821065
   4      67.4620000000      0.9218029311
 S 1 
   1      15.0674000000      1.0000000000
 S 1 
   1       3.9387600000      1.0000000000
 S 1 
   1       0.2999150000      1.0000000000
 P 2 
   1      28.3900000000      0.0816325586
   2       4.3676900000      0.9660360576
 P 1 
   1       0.8698170000      1.0000000000
 P 1 
   1       0.1889340000      1.0000000000
  end;

 # Basis set for element : O 
 NewGTO O 
 S 4 
   1  253789.0000000000      0.0001641076
   2   10151.6000000000      0.0074010921
   3     812.1250000000      0.1277711901
   4     122.6930000000      0.9223372164
 S 1 
   1      27.5608000000      1.0000000000
 S 1 
   1       7.3172600000      1.0000000000
 S 1 
   1       0.5792400000      1.0000000000
 P 2 
   1      53.4157000000      0.0793786106
   2       8.2177900000      0.9670506337
 P 1 
   1       1.6754400000      1.0000000000
 P 1 
   1       0.3506720000      1.0000000000
  end;

---------------------------------
AUXILIARY/J BASIS SET INFORMATION
---------------------------------
There are 3 groups of distinct atoms

 Group   1 Type C   : 12s5p4d2f1g contracted to 6s4p3d1f1g pattern {711111/2111/211/2/1}
 Group   2 Type H   : 5s2p1d contracted to 3s1p1d pattern {311/2/1}
 Group   3 Type O   : 12s5p4d2f1g contracted to 6s4p3d1f1g pattern {711111/2111/211/2/1}

Atom   0C    basis set group =>   1
Atom   1C    basis set group =>   1
Atom   2C    basis set group =>   1
Atom   3H    basis set group =>   2
Atom   4H    basis set group =>   2
Atom   5C    basis set group =>   1
Atom   6C    basis set group =>   1
Atom   7C    basis set group =>   1
Atom   8H    basis set group =>   2
Atom   9H    basis set group =>   2
Atom  10H    basis set group =>   2
Atom  11H    basis set group =>   2
Atom  12O    basis set group =>   3
Atom  13H    basis set group =>   2
Atom  14C    basis set group =>   1
Atom  15C    basis set group =>   1
Atom  16H    basis set group =>   2
Atom  17H    basis set group =>   2
Atom  18C    basis set group =>   1
Atom  19H    basis set group =>   2
Atom  20C    basis set group =>   1
Atom  21H    basis set group =>   2
Atom  22C    basis set group =>   1
Atom  23C    basis set group =>   1
Atom  24H    basis set group =>   2
Atom  25H    basis set group =>   2
Atom  26C    basis set group =>   1
Atom  27H    basis set group =>   2
Atom  28H    basis set group =>   2
Atom  29C    basis set group =>   1
Atom  30H    basis set group =>   2
Atom  31H    basis set group =>   2
Atom  32C    basis set group =>   1
Atom  33H    basis set group =>   2
Atom  34C    basis set group =>   1
Atom  35H    basis set group =>   2
Atom  36C    basis set group =>   1
Atom  37H    basis set group =>   2
Atom  38H    basis set group =>   2
Atom  39C    basis set group =>   1
Atom  40H    basis set group =>   2
Atom  41H    basis set group =>   2
Atom  42H    basis set group =>   2
Atom  43C    basis set group =>   1
Atom  44C    basis set group =>   1
Atom  45H    basis set group =>   2
Atom  46H    basis set group =>   2
Atom  47H    basis set group =>   2
Atom  48H    basis set group =>   2
Atom  49C    basis set group =>   1
Atom  50C    basis set group =>   1
Atom  51C    basis set group =>   1
Atom  52H    basis set group =>   2
Atom  53H    basis set group =>   2
Atom  54C    basis set group =>   1
Atom  55C    basis set group =>   1
Atom  56C    basis set group =>   1
Atom  57H    basis set group =>   2
Atom  58H    basis set group =>   2
Atom  59C    basis set group =>   1
Atom  60C    basis set group =>   1
Atom  61H    basis set group =>   2
Atom  62H    basis set group =>   2
Atom  63H    basis set group =>   2
Atom  64H    basis set group =>   2
Atom  65H    basis set group =>   2
Atom  66H    basis set group =>   2
Atom  67H    basis set group =>   2
Atom  68H    basis set group =>   2
Atom  69H    basis set group =>   2
Atom  70H    basis set group =>   2
Atom  71H    basis set group =>   2
Atom  72H    basis set group =>   2

-------------------------------------
AUXILIARY/J BASIS SET IN INPUT FORMAT
-------------------------------------

 # Auxiliary/J basis set for element : H 
 NewAuxJGTO H 
 S 3 
   1      15.6752927000      0.1007184237
   2       3.6063578000      0.3404257499
   3       1.2080016000      0.6491996172
 S 1 
   1       0.4726794000      1.0000000000
 S 1 
   1       0.2018100000      1.0000000000
 P 2 
   1       2.0281365000      0.5596620919
   2       0.5358730000      0.5596620919
 D 1 
   1       2.2165124000      1.0000000000
  end;

 # Auxiliary/J basis set for element : C 
 NewAuxJGTO C 
 S 7 
   1    1861.0916331000      0.0134602335
   2     642.9939764000      0.0299160374
   3     235.1105725000      0.1008649584
   4      90.7028894000      0.2370970548
   5      36.7794552000      0.3924037254
   6      15.6046273000      0.3195862154
   7       6.8907294000      0.0530104441
 S 1 
   1       3.1478850000     -1.0000000000
 S 1 
   1       1.4777287000      1.0000000000
 S 1 
   1       0.7076466000      1.0000000000
 S 1 
   1       0.3430122000      1.0000000000
 S 1 
   1       0.1669453000      1.0000000000
 P 2 
   1      13.5472892000     -0.6769313712
   2       5.4669419000     -0.3779500978
 P 1 
   1       2.1751721000      1.0000000000
 P 1 
   1       0.8582194000      1.0000000000
 P 1 
   1       0.3376720000      1.0000000000
 D 2 
   1       5.9287253000     -0.3533329857
   2       1.9809209000     -0.7456525731
 D 1 
   1       0.8055417000     -1.0000000000
 D 1 
   1       0.3531244000     -1.0000000000
 F 2 
   1       1.6755626000      0.6311076882
   2       0.5997536000      0.4968166032
 G 1 
   1       1.0024600000     -1.0000000000
  end;

 # Auxiliary/J basis set for element : O 
 NewAuxJGTO O 
 S 7 
   1    2876.8216605000      0.0168151159
   2    1004.7443032000      0.0340137548
   3     369.7579954000      0.1194951309
   4     142.9442404000      0.2664627624
   5      57.8366425000      0.4202764046
   6      24.3864983000      0.2765077335
   7      10.6622662000      0.0057008815
 S 1 
   1       4.8070437000     -1.0000000000
 S 1 
   1       2.2210770000      1.0000000000
 S 1 
   1       1.0447795000      1.0000000000
 S 1 
   1       0.4968425000      1.0000000000
 S 1 
   1       0.2371384000      1.0000000000
 P 2 
   1      64.2613382000     -0.2731534179
   2      16.3006076000     -0.8168011598
 P 1 
   1       4.3550542000      1.0000000000
 P 1 
   1       1.2019554000      1.0000000000
 P 1 
   1       0.3354196000      1.0000000000
 D 2 
   1       9.2146611000     -0.4661230638
   2       2.8435251000     -0.6600908911
 D 1 
   1       0.9955759000     -1.0000000000
 D 1 
   1       0.3649441000     -1.0000000000
 F 2 
   1       2.6420115000      0.5931563945
   2       0.7345613000      0.5931563945
 G 1 
   1       1.3931000000     -1.0000000000
  end;



           ************************************************************
           *        Program running with 4 parallel MPI-processes     *
           *              working on a common directory               *
           ************************************************************
------------------------------------------------------------------------------
                           ORCA GTO INTEGRAL CALCULATION
                           -- RI-GTO INTEGRALS CHOSEN --
------------------------------------------------------------------------------
------------------------------------------------------------------------------
                   ___                                                        
                  /   \      - P O W E R E D   B Y -                         
                 /     \                                                     
                 |  |  |   _    _      __       _____    __    __             
                 |  |  |  | |  | |    /  \     |  _  \  |  |  /  |          
                  \  \/   | |  | |   /    \    | | | |  |  | /  /          
                 / \  \   | |__| |  /  /\  \   | |_| |  |  |/  /          
                |  |  |   |  __  | /  /__\  \  |    /   |      \           
                |  |  |   | |  | | |   __   |  |    \   |  |\   \          
                \     /   | |  | | |  |  |  |  | |\  \  |  | \   \       
                 \___/    |_|  |_| |__|  |__|  |_| \__\ |__|  \__/        
                                                                              
                      - O R C A' S   B I G   F R I E N D -                    
                                      &                                       
                       - I N T E G R A L  F E E D E R -                       
                                                                              
 v1 FN, 2020, v2 2021                                                         
------------------------------------------------------------------------------


Reading SHARK input file inpJ.SHARKINP.tmp ... ok
----------------------
SHARK INTEGRAL PACKAGE
----------------------

Number of atoms                             ...     73
Number of basis functions                   ...    509
Number of shells                            ...    335
Maximum angular momentum                    ...      1
Integral batch strategy                     ... SHARK/LIBINT Hybrid
RI-J (if used) integral strategy            ... SPLIT-RIJ (Revised 2003 algorithm where possible)
Printlevel                                  ...      1
Contraction scheme used                     ... SEGMENTED contraction
Coulomb Range Separation                    ... NOT USED
Exchange Range Separation                   ... NOT USED
Finite Nucleus Model                        ... NOT USED
Auxiliary Coulomb fitting basis             ... AVAILABLE
   # of basis functions in Aux-J            ...   1905
   # of shells in Aux-J                     ...    655
   Maximum angular momentum in Aux-J        ...      4
Auxiliary J/K fitting basis                 ... NOT available
Auxiliary Correlation fitting basis         ... NOT available
Auxiliary 'external' fitting basis          ... NOT available
Integral threshold                          ...     3.000000e-11
Primitive cut-off                           ...     1.000000e-12
Primitive pair pre-selection threshold      ...     1.000000e-12

Calculating pre-screening integrals         ... done (  0.0 sec) Dimension = 335
Organizing shell pair data                  ... done (  0.1 sec)
Shell pair information
Total number of shell pairs                 ...     56280
Shell pairs after pre-screening             ...     21780
Total number of primitive shell pairs       ...    145865
Primitive shell pairs kept                  ...     37439
          la=0 lb=0:  10970 shell pairs
          la=1 lb=0:   8941 shell pairs
          la=1 lb=1:   1869 shell pairs

Calculating one electron integrals          ... done (  0.0 sec)
Calculating RI/J V-Matrix + Cholesky decomp.... done (  0.2 sec)
Calculating Nuclear repulsion               ... done (  0.0 sec) ENN=   2770.269770540025 Eh

SHARK setup successfully completed in   0.4 seconds

Maximum memory used throughout the entire GTOINT-calculation: 46.2 MB


           ************************************************************
           *        Program running with 4 parallel MPI-processes     *
           *              working on a common directory               *
           ************************************************************
-------------------------------------------------------------------------------
                                 ORCA SCF
-------------------------------------------------------------------------------

------------
SCF SETTINGS
------------
Hamiltonian:
 Density Functional     Method          .... DFT(GTOs)
 Exchange Functional    Exchange        .... PBE
   PBE kappa parameter   XKappa         ....  0.804000
   PBE mue parameter    XMuePBE         ....  0.219520
 Correlation Functional Correlation     .... PBE
   PBE beta parameter  CBetaPBE         ....  0.066725
 LDA part of GGA corr.  LDAOpt          .... PW91-LDA
 Gradients option       PostSCFGGA      .... off
 Hybrid DFT is turned on
   Fraction HF Exchange ScalHFX         ....  0.250000
   Scaling of DF-GGA-X  ScalDFX         ....  0.750000
   Scaling of DF-GGA-C  ScalDFC         ....  1.000000
   Scaling of DF-LDA-C  ScalLDAC        ....  1.000000
   Perturbative correction              ....  0.000000
   Density functional embedding theory  .... OFF
   NL short-range parameter             ....  6.900000
 RI-approximation to the Coulomb term is turned on
   Number of AuxJ basis functions       .... 1905
   RIJ-COSX (HFX calculated with COS-X)).... on


General Settings:
 Integral files         IntName         .... inpJ
 Hartree-Fock type      HFTyp           .... RHF
 Total Charge           Charge          ....    0
 Multiplicity           Mult            ....    1
 Number of Electrons    NEL             ....  220
 Basis Dimension        Dim             ....  509
 Nuclear Repulsion      ENuc            ....   2770.2697705400 Eh

Convergence Acceleration:
 DIIS                   CNVDIIS         .... on
   Start iteration      DIISMaxIt       ....    12
   Startup error        DIISStart       ....  0.200000
   # of expansion vecs  DIISMaxEq       ....     5
   Bias factor          DIISBfac        ....   1.050
   Max. coefficient     DIISMaxC        ....  10.000
 Trust-Rad. Augm. Hess. CNVTRAH         .... auto
   Auto Start mean grad. ratio tolernc. ....  1.125000
   Auto Start start iteration           ....    20
   Auto Start num. interpolation iter.  ....    10
   Max. Number of Micro iterations      ....    16
   Max. Number of Macro iterations      .... Maxiter - #DIIS iter
   Number of Davidson start vectors     ....     2
   Converg. threshold I  (grad. norm)   ....   1.000e-04
   Converg. threshold II (energy diff.) ....   1.000e-07
   Grad. Scal. Fac. for Micro threshold ....   0.100
   Minimum threshold for Micro iter.    ....   0.010
   NR start threshold (gradient norm)   ....   0.001
   Initial trust radius                 ....   0.400
   Minimum AH scaling param. (alpha)    ....   1.000
   Maximum AH scaling param. (alpha)    .... 1000.000
   Orbital update algorithm             .... Taylor
   White noise on init. David. guess    .... on
   Maximum white noise                  ....   0.010
   Quad. conv. algorithm                .... NR
 SOSCF                  CNVSOSCF        .... off
 Level Shifting         CNVShift        .... on
   Level shift para.    LevelShift      ....    0.2500
   Turn off err/grad.   ShiftErr        ....    0.0010
 Zerner damping         CNVZerner       .... off
 Static damping         CNVDamp         .... on
   Fraction old density DampFac         ....    0.7000
   Max. Damping (<1)    DampMax         ....    0.9800
   Min. Damping (>=0)   DampMin         ....    0.0000
   Turn off err/grad.   DampErr         ....    0.1000
 Fernandez-Rico         CNVRico         .... off

SCF Procedure:
 Maximum # iterations   MaxIter         ....   125
 SCF integral mode      SCFMode         .... Direct
   Integral package                     .... SHARK and LIBINT hybrid scheme
 Reset frequency        DirectResetFreq ....    20
 Integral Threshold     Thresh          ....  3.000e-11 Eh
 Primitive CutOff       TCut            ....  1.000e-12 Eh

Convergence Tolerance:
 Convergence Check Mode ConvCheckMode   .... Total+1el-Energy
 Convergence forced     ConvForced      .... 0
 Energy Change          TolE            ....  1.000e-07 Eh
 1-El. energy change                    ....  1.000e-04 Eh
 DIIS Error             TolErr          ....  1.000e-07


Diagonalization of the overlap matrix:
Smallest eigenvalue                        ... 7.551e-03
Time for diagonalization                   ...    0.030 sec
Threshold for overlap eigenvalues          ... 1.000e-08
Number of eigenvalues below threshold      ... 0
Time for construction of square roots      ...    0.036 sec
Total time needed                          ...    0.068 sec

Time for model grid setup =    0.748 sec

------------------------------
INITIAL GUESS: MODEL POTENTIAL
------------------------------
Loading Hartree-Fock densities                     ... done
Calculating cut-offs                               ... done
Initializing the effective Hamiltonian             ... done
Setting up the integral package (SHARK)            ... done
Starting the Coulomb interaction                   ... done (   0.3 sec)
Reading the grid                                   ... done
Mapping shells                                     ... done
Starting the XC term evaluation                    ... done (   0.1 sec)
  promolecular density results
     # of electrons  =    219.975671429
     EX              =   -164.434963966
     EC              =     -7.328764805
     EX+EC           =   -171.763728772
Transforming the Hamiltonian                       ... done (   0.0 sec)
Diagonalizing the Hamiltonian                      ... done (   0.0 sec)
Back transforming the eigenvectors                 ... done (   0.0 sec)
Now organizing SCF variables                       ... done
                      ------------------
                      INITIAL GUESS DONE (   1.3 sec)
                      ------------------
-------------------
DFT GRID GENERATION
-------------------

General Integration Accuracy     IntAcc      ... 4.388
Radial Grid Type                 RadialGrid  ... OptM3 with GC (2021)
Angular Grid (max. ang.)         AngularGrid ... 4 (Lebedev-302)
Angular grid pruning method      GridPruning ... 4 (adaptive)
Weight generation scheme         WeightScheme... Becke
Basis function cutoff            BFCut       ... 1.0000e-11
Integration weight cutoff        WCut        ... 1.0000e-14
Angular grids for H and He will be reduced by one unit
Partially contracted basis set               ... off
Rotationally invariant grid construction     ... off

Total number of grid points                  ...   309876
Total number of batches                      ...     4874
Average number of points per batch           ...       63
Average number of grid points per atom       ...     4245
Time for grid setup =    2.820 sec

--------------------
COSX GRID GENERATION
--------------------

GRIDX 1
-------
General Integration Accuracy     IntAcc      ... 3.816
Radial Grid Type                 RadialGrid  ... OptM3 with GC (2021)
Angular Grid (max. ang.)         AngularGrid ... 1 (Lebedev-50)
Angular grid pruning method      GridPruning ... 4 (adaptive)
Weight generation scheme         WeightScheme... Becke
Basis function cutoff            BFCut       ... 1.0000e-11
Integration weight cutoff        WCut        ... 1.0000e-14
Angular grids for H and He will be reduced by one unit
Partially contracted basis set               ... on
Rotationally invariant grid construction     ... off

Total number of grid points                  ...    39394
Total number of batches                      ...      659
Average number of points per batch           ...       59
Average number of grid points per atom       ...      540
UseSFitting                                  ... on

GRIDX 2
-------
General Integration Accuracy     IntAcc      ... 4.020
Radial Grid Type                 RadialGrid  ... OptM3 with GC (2021)
Angular Grid (max. ang.)         AngularGrid ... 2 (Lebedev-110)
Angular grid pruning method      GridPruning ... 4 (adaptive)
Weight generation scheme         WeightScheme... Becke
Basis function cutoff            BFCut       ... 1.0000e-11
Integration weight cutoff        WCut        ... 1.0000e-14
Angular grids for H and He will be reduced by one unit
Partially contracted basis set               ... on
Rotationally invariant grid construction     ... off

Total number of grid points                  ...    81424
Total number of batches                      ...     1310
Average number of points per batch           ...       62
Average number of grid points per atom       ...     1115
UseSFitting                                  ... on

GRIDX 3
-------
General Integration Accuracy     IntAcc      ... 4.338
Radial Grid Type                 RadialGrid  ... OptM3 with GC (2021)
Angular Grid (max. ang.)         AngularGrid ... 3 (Lebedev-194)
Angular grid pruning method      GridPruning ... 4 (adaptive)
Weight generation scheme         WeightScheme... Becke
Basis function cutoff            BFCut       ... 1.0000e-11
Integration weight cutoff        WCut        ... 1.0000e-14
Angular grids for H and He will be reduced by one unit
Partially contracted basis set               ... on
Rotationally invariant grid construction     ... off

Total number of grid points                  ...   176311
Total number of batches                      ...     2794
Average number of points per batch           ...       63
Average number of grid points per atom       ...     2415
UseSFitting                                  ... on

Time for X-Grid setup             =    2.728 sec


--------------------
CPCM SOLVATION MODEL
--------------------
CPCM parameters:
  Epsilon                                         ...       4.9000
  Refrac                                          ...       1.4500
  Rsolv                                           ...       1.3000
  Surface type                                    ... GAUSSIAN VDW
  Epsilon function type                           ...         CPCM
Radii:
 Radius for C  used is    3.8550 Bohr (=   2.0400 Ang.)
 Radius for H  used is    2.4944 Bohr (=   1.3200 Ang.)
 Radius for O  used is    3.4469 Bohr (=   1.8240 Ang.)
Calculating surface                               ...        done! (  0.0s)
GEPOL surface points                              ...         3603
GEPOL Volume                                      ...    3582.3619
GEPOL Surface-area                                ...    1774.8322
Calculating surface distance matrix               ...        done! (  0.1s)
Performing Cholesky decomposition & store         ...        done! (  0.5s)
Overall time for CPCM initialization              ...                 0.6s
--------------
SCF ITERATIONS
--------------
ITER       Energy         Delta-E        Max-DP      RMS-DP      [F,P]     Damp
               ***  Starting incremental Fock matrix formation  ***

  HOMO= 109 E= -3.890 eV LUMO=  7.785 eV gap=  11.675 eV
  0  -1165.0070506993   0.000000000000 0.09747198  0.00106453  0.1935111 0.7000

  HOMO= 109 E= -4.740 eV LUMO=  7.088 eV gap=  11.828 eV
  1  -1165.2256326041  -0.218581904805 0.06540701  0.00078305  0.0941179 0.7000
                               ***Turning on DIIS***

  HOMO= 109 E= -5.340 eV LUMO=  6.530 eV gap=  11.870 eV
  2  -1165.3264099847  -0.100777380664 0.10342702  0.00138635  0.0376732 0.0000

  HOMO= 109 E= -5.907 eV LUMO=  5.987 eV gap=  11.894 eV
  3  -1165.4705721539  -0.144162169217 0.05150482  0.00057112  0.0453829 0.0000

  HOMO= 109 E= -5.987 eV LUMO=  5.907 eV gap=  11.894 eV
  4  -1165.5060999664  -0.035527812457 0.01170655  0.00013428  0.0061502 0.0000

  HOMO= 109 E= -5.933 eV LUMO=  5.969 eV gap=  11.901 eV
  5  -1165.5069581207  -0.000858154295 0.00284267  0.00003808  0.0043438 0.0000

  HOMO= 109 E= -5.920 eV LUMO=  5.982 eV gap=  11.902 eV
  6  -1165.5070338537  -0.000075733017 0.00116049  0.00001160  0.0010799 0.0000

  HOMO= 109 E= -5.921 eV LUMO= -0.822 eV gap=   5.099 eV
  7  -1165.5070385823  -0.000004728616 0.00048932  0.00000594  0.0002220 0.0000
               *** Restarting incremental Fock matrix formation ***
                                   *** Resetting DIIS ***

  HOMO= 109 E= -5.921 eV LUMO= -0.821 eV gap=   5.100 eV
  8  -1165.5071758366  -0.000137254279 0.00040469  0.00000275  0.0001108 0.0000

  HOMO= 109 E= -5.921 eV LUMO= -0.821 eV gap=   5.100 eV
  9  -1165.5071758932  -0.000000056643 0.00013058  0.00000123  0.0001446 0.0000

  HOMO= 109 E= -5.921 eV LUMO= -0.821 eV gap=   5.100 eV
 10  -1165.5071759958  -0.000000102556 0.00006560  0.00000042  0.0000419 0.0000

  HOMO= 109 E= -5.921 eV LUMO= -0.821 eV gap=   5.100 eV
 11  -1165.5071760314  -0.000000035579 0.00002480  0.00000018  0.0000219 0.0000

  HOMO= 109 E= -5.921 eV LUMO= -0.821 eV gap=   5.100 eV
 12  -1165.5071760168   0.000000014573 0.00000722  0.00000005  0.0000037 0.0000
                 **** Energy Check signals convergence ****

               *****************************************************
               *                     SUCCESS                       *
               *           SCF CONVERGED AFTER  13 CYCLES          *
               *****************************************************

Old exchange energy                            =    -42.068011128 Eh
New exchange energy                            =    -42.068058496 Eh
Exchange energy change after final integration =     -0.000047367 Eh
Total energy after final integration           =  -1165.507223395 Eh
Final COS-X integration done in                =    13.521 sec

----------------
TOTAL SCF ENERGY
----------------

Total Energy       :        -1165.50722339 Eh          -31715.06391 eV

Components:
Nuclear Repulsion  :         2770.26977054 Eh           75382.87285 eV
Electronic Energy  :        -3935.77699393 Eh         -107097.93676 eV
One Electron Energy:        -7082.51427050 Eh         -192725.01125 eV
Two Electron Energy:         3146.73727656 Eh           85627.07449 eV
Max COSX asymmetry :            0.00000170 Eh               0.00005 eV
CPCM Dielectric    :           -0.01540925 Eh              -0.41931 eV

Virial components:
Potential Energy   :        -2322.40787685 Eh          -63195.93115 eV
Kinetic Energy     :         1156.90065346 Eh           31480.86724 eV
Virial Ratio       :            2.00743933


DFT components:
N(Alpha)           :      110.000148601113 electrons
N(Beta)            :      110.000148601113 electrons
N(Total)           :      220.000297202226 electrons
E(X)               :     -125.747120109352 Eh       
E(C)               :       -7.328141868941 Eh       
E(XC)              :     -133.075261978292 Eh       
DFET-embed. en.    :        0.000000000000 Eh       
CPCM Solvation Model Properties:
Surface-charge          :           -0.03437612
Charge-correction       :           -0.00005122 Eh              -0.00139 eV
Free-energy (cav+disp)  :  This term is not implemented in the current solvation scheme

---------------
SCF CONVERGENCE
---------------

  Last Energy change         ...   -1.0639e-08  Tolerance :   1.0000e-07
  Last MAX-Density change    ...    0.0000e+00  Tolerance :   1.0000e-05
  Last RMS-Density change    ...    0.0000e+00  Tolerance :   1.0000e-06
  Last DIIS Error            ...    2.6795e-06  Tolerance :   1.0000e-07

             **** THE GBW FILE WAS UPDATED (inpJ.gbw) ****
             **** DENSITY inpJ.scfp WAS UPDATED ****
             **** ENERGY FILE WAS UPDATED (inpJ.en.tmp) ****
             **** THE GBW FILE WAS UPDATED (inpJ.gbw) ****
             **** DENSITY inpJ.scfp WAS UPDATED ****
----------------
ORBITAL ENERGIES
----------------

  NO   OCC          E(Eh)            E(eV) 
   0   2.0000     -19.215096      -522.8694 
   1   2.0000     -10.301382      -280.3149 
   2   2.0000     -10.269537      -279.4483 
   3   2.0000     -10.266767      -279.3729 
   4   2.0000     -10.261899      -279.2405 
   5   2.0000     -10.256580      -279.0957 
   6   2.0000     -10.253410      -279.0095 
   7   2.0000     -10.251946      -278.9696 
   8   2.0000     -10.251160      -278.9483 
   9   2.0000     -10.249274      -278.8969 
  10   2.0000     -10.246984      -278.8346 
  11   2.0000     -10.246440      -278.8198 
  12   2.0000     -10.246079      -278.8100 
  13   2.0000     -10.245635      -278.7979 
  14   2.0000     -10.243902      -278.7507 
  15   2.0000     -10.243209      -278.7319 
  16   2.0000     -10.242879      -278.7229 
  17   2.0000     -10.241843      -278.6947 
  18   2.0000     -10.241508      -278.6856 
  19   2.0000     -10.241090      -278.6742 
  20   2.0000     -10.239051      -278.6187 
  21   2.0000     -10.235341      -278.5178 
  22   2.0000     -10.234752      -278.5018 
  23   2.0000     -10.233505      -278.4678 
  24   2.0000     -10.226092      -278.2661 
  25   2.0000     -10.224499      -278.2228 
  26   2.0000     -10.223905      -278.2066 
  27   2.0000     -10.221762      -278.1483 
  28   2.0000     -10.220588      -278.1163 
  29   2.0000      -1.045830       -28.4585 
  30   2.0000      -0.901059       -24.5191 
  31   2.0000      -0.883688       -24.0464 
  32   2.0000      -0.859635       -23.3919 
  33   2.0000      -0.845620       -23.0105 
  34   2.0000      -0.821784       -22.3619 
  35   2.0000      -0.814059       -22.1517 
  36   2.0000      -0.794868       -21.6295 
  37   2.0000      -0.794785       -21.6272 
  38   2.0000      -0.775013       -21.0892 
  39   2.0000      -0.758100       -20.6290 
  40   2.0000      -0.741252       -20.1705 
  41   2.0000      -0.733264       -19.9531 
  42   2.0000      -0.714284       -19.4366 
  43   2.0000      -0.701661       -19.0932 
  44   2.0000      -0.699287       -19.0286 
  45   2.0000      -0.694038       -18.8857 
  46   2.0000      -0.669273       -18.2118 
  47   2.0000      -0.662793       -18.0355 
  48   2.0000      -0.635839       -17.3021 
  49   2.0000      -0.622060       -16.9271 
  50   2.0000      -0.619509       -16.8577 
  51   2.0000      -0.609826       -16.5942 
  52   2.0000      -0.597682       -16.2638 
  53   2.0000      -0.583157       -15.8685 
  54   2.0000      -0.557769       -15.1777 
  55   2.0000      -0.541391       -14.7320 
  56   2.0000      -0.531311       -14.4577 
  57   2.0000      -0.529170       -14.3995 
  58   2.0000      -0.515068       -14.0157 
  59   2.0000      -0.509199       -13.8560 
  60   2.0000      -0.502446       -13.6723 
  61   2.0000      -0.492821       -13.4103 
  62   2.0000      -0.486950       -13.2506 
  63   2.0000      -0.480164       -13.0659 
  64   2.0000      -0.475956       -12.9514 
  65   2.0000      -0.471047       -12.8178 
  66   2.0000      -0.465822       -12.6757 
  67   2.0000      -0.457988       -12.4625 
  68   2.0000      -0.457014       -12.4360 
  69   2.0000      -0.452728       -12.3194 
  70   2.0000      -0.448185       -12.1957 
  71   2.0000      -0.440708       -11.9923 
  72   2.0000      -0.434130       -11.8133 
  73   2.0000      -0.431628       -11.7452 
  74   2.0000      -0.430462       -11.7135 
  75   2.0000      -0.417760       -11.3678 
  76   2.0000      -0.413964       -11.2645 
  77   2.0000      -0.410940       -11.1823 
  78   2.0000      -0.409101       -11.1322 
  79   2.0000      -0.403301       -10.9744 
  80   2.0000      -0.402012       -10.9393 
  81   2.0000      -0.400624       -10.9015 
  82   2.0000      -0.394659       -10.7392 
  83   2.0000      -0.389867       -10.6088 
  84   2.0000      -0.386147       -10.5076 
  85   2.0000      -0.384748       -10.4695 
  86   2.0000      -0.378945       -10.3116 
  87   2.0000      -0.370790       -10.0897 
  88   2.0000      -0.367633       -10.0038 
  89   2.0000      -0.366345        -9.9687 
  90   2.0000      -0.363263        -9.8849 
  91   2.0000      -0.357679        -9.7329 
  92   2.0000      -0.355789        -9.6815 
  93   2.0000      -0.343328        -9.3424 
  94   2.0000      -0.342268        -9.3136 
  95   2.0000      -0.340486        -9.2651 
  96   2.0000      -0.335629        -9.1329 
  97   2.0000      -0.333758        -9.0820 
  98   2.0000      -0.329627        -8.9696 
  99   2.0000      -0.327759        -8.9188 
 100   2.0000      -0.326504        -8.8846 
 101   2.0000      -0.321607        -8.7514 
 102   2.0000      -0.317501        -8.6396 
 103   2.0000      -0.315689        -8.5903 
 104   2.0000      -0.311611        -8.4794 
 105   2.0000      -0.300925        -8.1886 
 106   2.0000      -0.280076        -7.6212 
 107   2.0000      -0.274762        -7.4766 
 108   2.0000      -0.254581        -6.9275 
 109   2.0000      -0.217596        -5.9211 
 110   0.0000      -0.030175        -0.8211 
 111   0.0000       0.021312         0.5799 
 112   0.0000       0.031091         0.8460 
 113   0.0000       0.081663         2.2222 
 114   0.0000       0.093376         2.5409 
 115   0.0000       0.099927         2.7191 
 116   0.0000       0.102168         2.7801 
 117   0.0000       0.107342         2.9209 
 118   0.0000       0.110511         3.0072 
 119   0.0000       0.114638         3.1195 
 120   0.0000       0.118541         3.2257 
 121   0.0000       0.123424         3.3585 
 122   0.0000       0.126197         3.4340 
 123   0.0000       0.129703         3.5294 
 124   0.0000       0.132953         3.6178 
 125   0.0000       0.138277         3.7627 
 126   0.0000       0.139982         3.8091 
 127   0.0000       0.141873         3.8606 
 128   0.0000       0.148096         4.0299 
 129   0.0000       0.151865         4.1325 
 130   0.0000       0.152598         4.1524 
 131   0.0000       0.157789         4.2937 
 132   0.0000       0.160263         4.3610 
 133   0.0000       0.162501         4.4219 
 134   0.0000       0.165299         4.4980 
 135   0.0000       0.169746         4.6190 
 136   0.0000       0.170976         4.6525 
 137   0.0000       0.172758         4.7010 
 138   0.0000       0.177214         4.8223 
 139   0.0000       0.181923         4.9504 
 140   0.0000       0.182817         4.9747 
 141   0.0000       0.185911         5.0589 
 142   0.0000       0.186874         5.0851 
 143   0.0000       0.187202         5.0940 
 144   0.0000       0.192945         5.2503 
 145   0.0000       0.194092         5.2815 
 146   0.0000       0.198662         5.4059 
 147   0.0000       0.201700         5.4885 
 148   0.0000       0.204035         5.5521 
 149   0.0000       0.208171         5.6646 
 150   0.0000       0.213611         5.8126 
 151   0.0000       0.221307         6.0221 
 152   0.0000       0.225345         6.1320 
 153   0.0000       0.229073         6.2334 
 154   0.0000       0.232947         6.3388 
 155   0.0000       0.236127         6.4253 
 156   0.0000       0.241726         6.5777 
 157   0.0000       0.244572         6.6551 
 158   0.0000       0.250019         6.8034 
 159   0.0000       0.252834         6.8800 
 160   0.0000       0.256948         6.9919 
 161   0.0000       0.261030         7.1030 
 162   0.0000       0.263647         7.1742 
 163   0.0000       0.267089         7.2679 
 164   0.0000       0.272510         7.4154 
 165   0.0000       0.277439         7.5495 
 166   0.0000       0.280627         7.6362 
 167   0.0000       0.285915         7.7801 
 168   0.0000       0.290824         7.9137 
 169   0.0000       0.294301         8.0083 
 170   0.0000       0.299198         8.1416 
 171   0.0000       0.304531         8.2867 
 172   0.0000       0.305957         8.3255 
 173   0.0000       0.309867         8.4319 
 174   0.0000       0.314839         8.5672 
 175   0.0000       0.319494         8.6939 
 176   0.0000       0.327905         8.9227 
 177   0.0000       0.339508         9.2385 
 178   0.0000       0.352977         9.6050 
 179   0.0000       0.356909         9.7120 
 180   0.0000       0.366773         9.9804 
 181   0.0000       0.379313        10.3216 
 182   0.0000       0.384738        10.4693 
 183   0.0000       0.410903        11.1812 
 184   0.0000       0.420154        11.4330 
 185   0.0000       0.463731        12.6188 
 186   0.0000       0.485920        13.2226 
 187   0.0000       0.493670        13.4334 
 188   0.0000       0.513093        13.9620 
 189   0.0000       0.520980        14.1766 
 190   0.0000       0.522744        14.2246 
 191   0.0000       0.528887        14.3918 
 192   0.0000       0.539179        14.6718 
 193   0.0000       0.543485        14.7890 
 194   0.0000       0.560717        15.2579 
 195   0.0000       0.574423        15.6309 
 196   0.0000       0.581073        15.8118 
 197   0.0000       0.583872        15.8880 
 198   0.0000       0.591740        16.1021 
 199   0.0000       0.612868        16.6770 
 200   0.0000       0.618255        16.8236 
 201   0.0000       0.625485        17.0203 
 202   0.0000       0.626754        17.0549 
 203   0.0000       0.633732        17.2447 
 204   0.0000       0.641145        17.4464 
 205   0.0000       0.650200        17.6929 
 206   0.0000       0.656745        17.8710 
 207   0.0000       0.660237        17.9660 
 208   0.0000       0.665241        18.1021 
 209   0.0000       0.667527        18.1643 
 210   0.0000       0.675795        18.3893 
 211   0.0000       0.690992        18.8029 
 212   0.0000       0.696288        18.9470 
 213   0.0000       0.701036        19.0762 
 214   0.0000       0.705121        19.1873 
 215   0.0000       0.711661        19.3653 
 216   0.0000       0.717531        19.5250 
 217   0.0000       0.721938        19.6449 
 218   0.0000       0.725729        19.7481 
 219   0.0000       0.727322        19.7914 
 220   0.0000       0.731712        19.9109 
 221   0.0000       0.736202        20.0331 
 222   0.0000       0.738889        20.1062 
 223   0.0000       0.742557        20.2060 
 224   0.0000       0.748899        20.3786 
 225   0.0000       0.751719        20.4553 
 226   0.0000       0.753385        20.5006 
 227   0.0000       0.760384        20.6911 
 228   0.0000       0.763885        20.7864 
 229   0.0000       0.766315        20.8525 
 230   0.0000       0.769623        20.9425 
 231   0.0000       0.776824        21.1385 
 232   0.0000       0.777969        21.1696 
 233   0.0000       0.780602        21.2413 
 234   0.0000       0.789319        21.4785 
 235   0.0000       0.796423        21.6718 
 236   0.0000       0.801912        21.8211 
 237   0.0000       0.808135        21.9905 
 238   0.0000       0.813737        22.1429 
 239   0.0000       0.821862        22.3640 
 240   0.0000       0.824895        22.4465 
 241   0.0000       0.826708        22.4959 
 242   0.0000       0.835352        22.7311 
 243   0.0000       0.840741        22.8777 
 244   0.0000       0.855713        23.2851 
 245   0.0000       0.856368        23.3030 
 246   0.0000       0.860223        23.4079 
 247   0.0000       0.862216        23.4621 
 248   0.0000       0.864826        23.5331 
 249   0.0000       0.869846        23.6697 
 250   0.0000       0.874277        23.7903 
 251   0.0000       0.875918        23.8349 
 252   0.0000       0.877509        23.8782 
 253   0.0000       0.879289        23.9267 
 254   0.0000       0.880058        23.9476 
 255   0.0000       0.886428        24.1209 
 256   0.0000       0.889128        24.1944 
 257   0.0000       0.892483        24.2857 
 258   0.0000       0.896607        24.3979 
 259   0.0000       0.897257        24.4156 
 260   0.0000       0.900531        24.5047 
 261   0.0000       0.905550        24.6413 
 262   0.0000       0.907977        24.7073 
 263   0.0000       0.917541        24.9676 
 264   0.0000       0.918829        25.0026 
 265   0.0000       0.923648        25.1337 
 266   0.0000       0.926946        25.2235 
 267   0.0000       0.928423        25.2637 
 268   0.0000       0.931020        25.3343 
 269   0.0000       0.935833        25.4653 
 270   0.0000       0.940556        25.5938 
 271   0.0000       0.944010        25.6878 
 272   0.0000       0.945918        25.7397 
 273   0.0000       0.948784        25.8177 
 274   0.0000       0.952941        25.9308 
 275   0.0000       0.956622        26.0310 
 276   0.0000       0.962944        26.2030 
 277   0.0000       0.969596        26.3841 
 278   0.0000       0.974776        26.5250 
 279   0.0000       0.981656        26.7122 
 280   0.0000       0.991782        26.9878 
 281   0.0000       0.998939        27.1825 
 282   0.0000       1.002704        27.2850 
 283   0.0000       1.011482        27.5238 
 284   0.0000       1.018165        27.7057 
 285   0.0000       1.028245        27.9800 
 286   0.0000       1.034013        28.1369 
 287   0.0000       1.035506        28.1776 
 288   0.0000       1.059229        28.8231 
 289   0.0000       1.063887        28.9498 
 290   0.0000       1.076987        29.3063 
 291   0.0000       1.077236        29.3131 
 292   0.0000       1.090039        29.6615 
 293   0.0000       1.093333        29.7511 
 294   0.0000       1.101653        29.9775 
 295   0.0000       1.119539        30.4642 
 296   0.0000       1.123856        30.5817 
 297   0.0000       1.142676        31.0938 
 298   0.0000       1.145826        31.1795 
 299   0.0000       1.156308        31.4647 
 300   0.0000       1.171229        31.8708 
 301   0.0000       1.172846        31.9148 
 302   0.0000       1.203456        32.7477 
 303   0.0000       1.218906        33.1681 
 304   0.0000       1.242236        33.8029 
 305   0.0000       1.248260        33.9669 
 306   0.0000       1.250611        34.0309 
 307   0.0000       1.266835        34.4723 
 308   0.0000       1.274910        34.6921 
 309   0.0000       1.297704        35.3123 
 310   0.0000       1.330472        36.2040 
 311   0.0000       1.336689        36.3732 
 312   0.0000       1.346010        36.6268 
 313   0.0000       1.370980        37.3063 
 314   0.0000       1.406392        38.2699 
 315   0.0000       1.525029        41.4982 
 316   0.0000       1.525930        41.5227 
 317   0.0000       1.565676        42.6042 
 318   0.0000       1.605892        43.6985 
 319   0.0000       1.657436        45.1011 
 320   0.0000       6.207890       168.9253 
 321   0.0000       6.239949       169.7976 
 322   0.0000       6.246754       169.9828 
 323   0.0000       6.272248       170.6766 
 324   0.0000       6.282407       170.9530 
 325   0.0000       6.288931       171.1305 
 326   0.0000       6.300008       171.4319 
 327   0.0000       6.308608       171.6660 
 328   0.0000       6.314745       171.8330 
 329   0.0000       6.340680       172.5387 
 330   0.0000       6.342594       172.5908 
 331   0.0000       6.352840       172.8696 
 332   0.0000       6.362938       173.1443 
 333   0.0000       6.385084       173.7470 
 334   0.0000       6.386034       173.7728 
 335   0.0000       6.394118       173.9928 
 336   0.0000       6.413513       174.5206 
 337   0.0000       6.416561       174.6035 
 338   0.0000       6.421123       174.7276 
 339   0.0000       6.426655       174.8782 
 340   0.0000       6.432114       175.0267 
 341   0.0000       6.435739       175.1254 
 342   0.0000       6.447990       175.4587 
 343   0.0000       6.456867       175.7003 
 344   0.0000       6.467771       175.9970 
 345   0.0000       6.473986       176.1661 
 346   0.0000       6.478878       176.2992 
 347   0.0000       6.491527       176.6434 
 348   0.0000       6.509489       177.1322 
 349   0.0000       6.513156       177.2320 
 350   0.0000       6.522144       177.4766 
 351   0.0000       6.524443       177.5391 
 352   0.0000       6.540757       177.9830 
 353   0.0000       6.542760       178.0375 
 354   0.0000       6.546820       178.1480 
 355   0.0000       6.556347       178.4073 
 356   0.0000       6.558250       178.4591 
 357   0.0000       6.562262       178.5682 
 358   0.0000       6.574473       178.9005 
 359   0.0000       6.578292       179.0044 
 360   0.0000       6.583154       179.1367 
 361   0.0000       6.590022       179.3236 
 362   0.0000       6.595809       179.4811 
 363   0.0000       6.601268       179.6296 
 364   0.0000       6.606243       179.7650 
 365   0.0000       6.607117       179.7888 
 366   0.0000       6.612129       179.9252 
 367   0.0000       6.616122       180.0338 
 368   0.0000       6.618621       180.1018 
 369   0.0000       6.620293       180.1473 
 370   0.0000       6.620955       180.1653 
 371   0.0000       6.626849       180.3257 
 372   0.0000       6.630211       180.4172 
 373   0.0000       6.635340       180.5568 
 374   0.0000       6.641648       180.7284 
[...]
     69 H        0.000      0.000      0.000      0.000      0.000      0.000
     70 H        0.000      0.000      0.000      0.000      0.003      0.035
     71 H        0.000      0.000      0.000     -0.000      0.001      0.019
     72 H        0.000      0.000      0.000      0.000      0.001      0.012
                 25 H       27 H       28 H       30 H       31 H       33 H  
      3 H        2.478     -0.107      0.069      0.000      0.000      2.403
      4 H        0.110     -0.004      0.004      0.000      0.000      0.098
      8 H       -0.340      0.012      0.000      0.000      0.000     -0.311
      9 H        0.000      0.000      0.000      0.000      0.000      0.136
     10 H        0.000      0.000      0.000      0.000      0.000      0.000
     11 H        0.000      0.000      0.000      0.000      0.000      0.000
     13 H       -0.101      0.004     -0.004      0.000      0.000     -0.104
     16 H       -0.372      0.012     -0.007     -0.022     -0.001     -0.344
     17 H       -0.364      0.012      0.000      0.000      0.000     -0.319
     19 H        0.933     -0.049      0.023      0.085      0.007      1.145
     21 H       -2.824      0.199      0.635     -0.216     -0.026     -2.596
     24 H      -14.040      4.324      2.304      0.715     -0.505     -0.116
     25 H        0.000     13.036      5.223     -0.628     -0.355     -2.341
     27 H       13.036      0.000    -13.573      3.970     13.013      0.068
     28 H        5.223    -13.573      0.000      2.675      4.090      0.284
     30 H       -0.628      3.970      2.675      0.000    -12.979      0.015
     31 H       -0.355     13.013      4.090    -12.979      0.000     -0.323
     33 H       -2.341      0.068      0.284      0.015     -0.323      0.000
     35 H        0.000      0.000      0.000      0.000      0.000      0.000
     37 H        0.270      0.005     -0.035      0.519     -0.037      6.505
     38 H        0.191      0.001     -0.029     -0.016      0.126     12.192
     40 H       -0.013      0.019      0.149     -0.003     -0.033     -0.238
     41 H        0.013      0.021     -0.025      0.013      0.077     -0.422
     42 H       -0.018      0.014     -0.016     -0.255     -0.365     -0.207
     45 H       -0.018     -0.227      0.010     -0.206     -0.482     -0.183
     46 H        0.012      0.047      0.070     -0.339      0.022      0.933
     47 H       -0.059     -0.126     -0.145     -0.163      1.816     -0.468
     48 H       -0.017      0.028      0.023      0.039      0.008     -0.021
     52 H        0.001      0.000      0.003     -0.013     -0.000      0.005
     53 H       -0.001     -0.000     -0.000     -0.002     -0.003     -0.007
     57 H        0.000      0.000      0.000     -0.000      0.005      0.008
     58 H        0.000      0.000      0.000     -0.000     -0.000     -0.000
     61 H        0.000      0.000      0.000      0.000     -0.000     -0.000
     62 H        0.000      0.000      0.000     -0.000     -0.000     -0.000
     63 H        0.000      0.000      0.000      0.000      0.001      0.000
     64 H        0.000      0.000      0.000      0.000      0.000      0.000
     65 H        0.000      0.000      0.000      0.000      0.000      0.000
     66 H        0.000      0.000      0.000      0.000      0.000      0.000
     67 H        0.000      0.000      0.000      0.000      0.000     -0.000
     68 H       -0.000      0.000      0.000     -0.000     -0.000     -0.000
     69 H        0.000      0.000      0.000      0.000      0.000      0.000
     70 H        0.001     -0.009     -0.011      0.074     -0.046      0.005
     71 H        0.003     -0.007     -0.008     -0.481     -0.094      0.004
     72 H        0.000     -0.004     -0.004      0.058      0.007     -0.000
                 35 H       37 H       38 H       40 H       41 H       42 H  
      3 H       -0.075     -0.044     -0.038      0.000      0.000      0.000
      4 H       -0.167     -0.002     -0.002      0.000      0.000      0.000
      8 H        0.020      0.006      0.004      0.000      0.001      0.000
      9 H       -0.092     -0.002     -0.001      0.000     -0.000      0.000
     10 H       -0.179      0.000     -0.001      0.000      0.000      0.000
     11 H       -0.101     -0.000     -0.000      0.000      0.000      0.000
     13 H       13.747      0.002      0.001      0.000      0.000      0.000
     16 H        0.005      0.007      0.002     -0.001      0.001     -0.001
     17 H        0.007      0.005      0.005      0.000      0.002      0.000
     19 H       -0.004     -0.012      0.114      0.004     -0.009      0.006
     21 H       -0.004      0.044     -0.532     -0.009      0.059     -0.025
     24 H       -0.001     -0.053     -0.078     -0.020      0.066     -0.025
     25 H        0.000      0.270      0.191     -0.013      0.013     -0.018
     27 H        0.000      0.005      0.001      0.019      0.021      0.014
     28 H        0.000     -0.035     -0.029      0.149     -0.025     -0.016
     30 H        0.000      0.519     -0.016     -0.003      0.013     -0.255
     31 H        0.000     -0.037      0.126     -0.033      0.077     -0.365
     33 H        0.000      6.505     12.192     -0.238     -0.422     -0.207
     35 H        0.000      0.000      0.000      0.000      0.000      0.000
     37 H        0.000      0.000    -12.193      9.500      2.575     -0.260
     38 H        0.000    -12.193      0.000      6.615     11.531     -0.482
     40 H        0.000      9.500      6.615      0.000    -13.354      9.279
     41 H        0.000      2.575     11.531    -13.354      0.000      8.740
     42 H        0.000     -0.260     -0.482      9.279      8.740      0.000
     45 H        0.000      0.061      0.037     -0.080      0.006      1.136
     46 H        0.000     -0.172      0.010      0.051      0.038     -0.412
     47 H        0.000      0.069     -0.067     -0.112     -0.067     -0.081
     48 H        0.000      0.115     -0.006     -0.195     -0.430     10.573
     52 H        0.000     -0.014     -0.012      0.208     -0.224     -0.174
     53 H        0.000     -0.005     -0.007     -0.006      0.105      0.125
     57 H        0.000     -0.001      0.002      0.058     -0.000     -0.147
     58 H        0.000      0.000      0.000      0.001     -0.001      0.000
     61 H        0.000      0.000      0.000      0.001     -0.000      0.002
     62 H        0.000      0.000     -0.000     -0.002      0.000      0.004
     63 H        0.000      0.000      0.000      0.003      0.000     -0.013
     64 H        0.000      0.000      0.000      0.001     -0.000      0.001
     65 H        0.000      0.000      0.000     -0.001     -0.001     -0.000
     66 H        0.000      0.000      0.000     -0.000     -0.000      0.000
     67 H        0.000     -0.000      0.001     -0.015     -0.004      0.002
     68 H        0.000     -0.001     -0.002     -0.121     -0.013      0.001
     69 H        0.000     -0.001     -0.002     -0.003      0.002      0.001
     70 H        0.000      0.067      0.015     -0.052      0.002     -0.462
     71 H        0.000     -0.005     -0.000      0.083      0.032     -0.200
     72 H        0.000     -0.021      0.037      0.020     -0.044     -0.347
                 45 H       46 H       47 H       48 H       52 H       53 H  
      3 H       -0.021      0.000      0.000      0.000      0.000      0.000
      4 H       -0.001     -0.001      0.001      0.000      0.000      0.000
      8 H        0.002      0.002     -0.003      0.000      0.000      0.000
      9 H       -0.001      0.000      0.001      0.000      0.000      0.000
     10 H       -0.001      0.000      0.000      0.000      0.000      0.000
     11 H       -0.000      0.000      0.000      0.000      0.000      0.000
     13 H        0.001      0.001     -0.001      0.000      0.000      0.000
     16 H        0.002      0.002     -0.004      0.000      0.000      0.000
     17 H        0.003      0.000     -0.004      0.000      0.000      0.000
     19 H       -0.010     -0.007      0.011      0.007      0.000      0.000
     21 H        0.033      0.014     -0.016     -0.018      0.001      0.000
     24 H       -0.023     -0.016     -0.023      0.006      0.000      0.000
     25 H       -0.018      0.012     -0.059     -0.017      0.001     -0.001
     27 H       -0.227      0.047     -0.126      0.028      0.000     -0.000
     28 H        0.010      0.070     -0.145      0.023      0.003     -0.000
     30 H       -0.206     -0.339     -0.163      0.039     -0.013     -0.002
     31 H       -0.482      0.022      1.816      0.008     -0.000     -0.003
     33 H       -0.183      0.933     -0.468     -0.021      0.005     -0.007
     35 H        0.000      0.000      0.000      0.000      0.000      0.000
     37 H        0.061     -0.172      0.069      0.115     -0.014     -0.005
     38 H        0.037      0.010     -0.067     -0.006     -0.012     -0.007
     40 H       -0.080      0.051     -0.112     -0.195      0.208     -0.006
     41 H        0.006      0.038     -0.067     -0.430     -0.224      0.105
     42 H        1.136     -0.412     -0.081     10.573     -0.174      0.125
     45 H        0.000    -12.935    -13.622     -0.178      0.020     -0.038
     46 H      -12.935      0.000    -12.984     -0.096      0.005     -0.009
     47 H      -13.622    -12.984      0.000     -0.212      0.006     -0.016
     48 H       -0.178     -0.096     -0.212      0.000      4.741     -2.434
     52 H        0.020      0.005      0.006      4.741      0.000     17.477
     53 H       -0.038     -0.009     -0.016     -2.434     17.477      0.000
     57 H        0.000      0.025      0.029      3.975     -3.180      3.399
     58 H       -0.001     -0.000     -0.000     -0.052     -0.591     -0.499
     61 H        0.000     -0.000      0.000     -0.050      0.047     -0.268
     62 H        0.000     -0.001     -0.001     -0.114      0.151     -0.224
     63 H        0.000      0.000      0.000      0.029     -0.166      0.128
     64 H        0.000      0.000      0.000     -0.012      0.082      0.775
     65 H        0.000      0.000      0.000      0.012     -0.004      0.040
     66 H        0.000      0.000      0.000      0.007      0.052      0.063
     67 H        0.000      0.000     -0.000     -0.014      0.012      0.004
     68 H        0.000     -0.000     -0.000     -0.016     -0.114      0.086
     69 H        0.000     -0.000      0.000     -0.005      0.036      0.183
     70 H       -0.030     -0.021     -0.011      2.047     -0.411     -0.315
     71 H       -0.062     -0.253     -0.021      5.041      0.679     -0.237
     72 H       -0.031     -0.044      0.027     12.511     -0.529     -0.199
                 57 H       58 H       61 H       62 H       63 H       64 H  
      3 H        0.000      0.000      0.000      0.000      0.000      0.000
      4 H        0.000      0.000      0.000      0.000      0.000      0.000
      8 H        0.000      0.000      0.000      0.000      0.000      0.000
      9 H        0.000      0.000      0.000      0.000      0.000      0.000
     10 H        0.000      0.000      0.000      0.000      0.000      0.000
     11 H        0.000      0.000      0.000      0.000      0.000      0.000
     13 H        0.000      0.000      0.000      0.000      0.000      0.000
     16 H        0.000      0.000      0.000      0.000      0.000      0.000
     17 H        0.000      0.000      0.000      0.000      0.000      0.000
     19 H        0.000      0.000      0.000      0.000      0.000      0.000
     21 H        0.000      0.000      0.000      0.000      0.000      0.000
     24 H        0.000      0.000      0.000      0.000      0.000      0.000
     25 H        0.000      0.000      0.000      0.000      0.000      0.000
     27 H        0.000      0.000      0.000      0.000      0.000      0.000
     28 H        0.000      0.000      0.000      0.000      0.000      0.000
     30 H       -0.000     -0.000      0.000     -0.000      0.000      0.000
     31 H        0.005     -0.000     -0.000     -0.000      0.001      0.000
     33 H        0.008     -0.000     -0.000     -0.000      0.000      0.000
     35 H        0.000      0.000      0.000      0.000      0.000      0.000
     37 H       -0.001      0.000      0.000      0.000      0.000      0.000
     38 H        0.002      0.000      0.000     -0.000      0.000      0.000
     40 H        0.058      0.001      0.001     -0.002      0.003      0.001
     41 H       -0.000     -0.001     -0.000      0.000      0.000     -0.000
     42 H       -0.147      0.000      0.002      0.004     -0.013      0.001
     45 H        0.000     -0.001      0.000      0.000      0.000      0.000
     46 H        0.025     -0.000     -0.000     -0.001      0.000      0.000
     47 H        0.029     -0.000      0.000     -0.001      0.000      0.000
     48 H        3.975     -0.052     -0.050     -0.114      0.029     -0.012
     52 H       -3.180     -0.591      0.047      0.151     -0.166      0.082
     53 H        3.399     -0.499     -0.268     -0.224      0.128      0.775
     57 H        0.000      1.926      4.174     13.814      3.567     -0.010
     58 H        1.926      0.000      0.586     -0.519     -0.443      4.061
     61 H        4.174      0.586      0.000    -12.748    -13.275     -0.033
     62 H       13.814     -0.519    -12.748      0.000    -12.016      0.051
     63 H        3.567     -0.443    -13.275    -12.016      0.000     -0.122
     64 H       -0.010      4.061     -0.033      0.051     -0.122      0.000
     65 H       -0.378      3.029      0.038     -0.003      0.021    -12.672
     66 H       -0.293     12.842     -0.100      0.056     -0.325    -12.964
     67 H       -0.476     12.909     -0.019     -0.040     -0.047     -0.206
     68 H       -0.415      2.166     -0.021     -0.068      0.054     -0.053
     69 H        0.595      4.900     -0.157     -0.059     -0.026     -0.201
     70 H       -0.081      0.001     -0.000      0.001     -0.002      0.003
     71 H       -0.038      0.018     -0.002     -0.000     -0.011      0.000
     72 H       -0.023     -0.002     -0.001      0.000     -0.005      0.003
                 65 H       66 H       67 H       68 H       69 H       70 H  
      3 H        0.000      0.000      0.000      0.000      0.000      0.000
      4 H        0.000      0.000      0.000      0.000      0.000      0.000
      8 H        0.000      0.000      0.000      0.000      0.000      0.000
      9 H        0.000      0.000      0.000      0.000      0.000      0.000
     10 H        0.000      0.000      0.000      0.000      0.000      0.000
     11 H        0.000      0.000      0.000      0.000      0.000      0.000
     13 H        0.000      0.000      0.000      0.000      0.000      0.000
     16 H        0.000      0.000      0.000      0.000      0.000      0.000
     17 H        0.000      0.000      0.000      0.000      0.000      0.000
     19 H        0.000      0.000      0.000      0.000      0.000      0.000
     21 H        0.000      0.000      0.000     -0.000      0.000      0.003
     24 H        0.000      0.000      0.000      0.000      0.000      0.035
     25 H        0.000      0.000      0.000     -0.000      0.000      0.001
     27 H        0.000      0.000      0.000      0.000      0.000     -0.009
     28 H        0.000      0.000      0.000      0.000      0.000     -0.011
     30 H        0.000      0.000      0.000     -0.000      0.000      0.074
     31 H        0.000      0.000      0.000     -0.000      0.000     -0.046
     33 H        0.000      0.000     -0.000     -0.000      0.000      0.005
     35 H        0.000      0.000      0.000      0.000      0.000      0.000
     37 H        0.000      0.000     -0.000     -0.001     -0.001      0.067
     38 H        0.000      0.000      0.001     -0.002     -0.002      0.015
     40 H       -0.001     -0.000     -0.015     -0.121     -0.003     -0.052
     41 H       -0.001     -0.000     -0.004     -0.013      0.002      0.002
     42 H       -0.000      0.000      0.002      0.001      0.001     -0.462
     45 H        0.000      0.000      0.000      0.000      0.000     -0.030
     46 H        0.000      0.000      0.000     -0.000     -0.000     -0.021
     47 H        0.000      0.000     -0.000     -0.000      0.000     -0.011
     48 H        0.012      0.007     -0.014     -0.016     -0.005      2.047
     52 H       -0.004      0.052      0.012     -0.114      0.036     -0.411
     53 H        0.040      0.063      0.004      0.086      0.183     -0.315
     57 H       -0.378     -0.293     -0.476     -0.415      0.595     -0.081
     58 H        3.029     12.842     12.909      2.166      4.900      0.001
     61 H        0.038     -0.100     -0.019     -0.021     -0.157     -0.000
     62 H       -0.003      0.056     -0.040     -0.068     -0.059      0.001
     63 H        0.021     -0.325     -0.047      0.054     -0.026     -0.002
     64 H      -12.672    -12.964     -0.206     -0.053     -0.201      0.003
     65 H        0.000    -12.016     -0.120      2.824     -0.181      0.001
     66 H      -12.016      0.000     -0.339     -0.286     -0.214     -0.002
     67 H       -0.120     -0.339      0.000    -12.744    -12.948      0.002
     68 H        2.824     -0.286    -12.744      0.000    -12.567     -0.000
     69 H       -0.181     -0.214    -12.948    -12.567      0.000     -0.001
     70 H        0.001     -0.002      0.002     -0.000     -0.001      0.000
     71 H       -0.001      0.000      0.003     -0.004     -0.001    -13.755
     72 H       -0.000     -0.001     -0.000     -0.000      0.001    -12.307
                 71 H       72 H  
      3 H        0.000      0.000
      4 H        0.000      0.000
      8 H        0.000      0.000
      9 H        0.000      0.000
     10 H        0.000      0.000
     11 H        0.000      0.000
     13 H        0.000      0.000
     16 H        0.000      0.000
     17 H        0.000      0.000
     19 H       -0.000      0.000
     21 H        0.001      0.001
     24 H        0.019      0.012
     25 H        0.003      0.000
     27 H       -0.007     -0.004
     28 H       -0.008     -0.004
     30 H       -0.481      0.058
     31 H       -0.094      0.007
     33 H        0.004     -0.000
     35 H        0.000      0.000
     37 H       -0.005     -0.021
     38 H       -0.000      0.037
     40 H        0.083      0.020
     41 H        0.032     -0.044
     42 H       -0.200     -0.347
     45 H       -0.062     -0.031
     46 H       -0.253     -0.044
     47 H       -0.021      0.027
     48 H        5.041     12.511
     52 H        0.679     -0.529
     53 H       -0.237     -0.199
     57 H       -0.038     -0.023
     58 H        0.018     -0.002
     61 H       -0.002     -0.001
     62 H       -0.000      0.000
     63 H       -0.011     -0.005
     64 H        0.000      0.003
     65 H       -0.001     -0.000
     66 H        0.000     -0.001
     67 H        0.003     -0.000
     68 H       -0.004     -0.000
     69 H       -0.001      0.001
     70 H      -13.755    -12.307
     71 H        0.000    -12.718
     72 H      -12.718      0.000

Maximum memory used throughout the entire EPRNMR-calculation: 970.0 MB

Timings for individual modules:

Sum of individual times         ...      405.441 sec (=   6.757 min)
GTO integral calculation        ...        0.587 sec (=   0.010 min)   0.1 %
SCF iterations                  ...      101.567 sec (=   1.693 min)  25.1 %
EPR/NMR calculation             ...      303.286 sec (=   5.055 min)  74.8 %
                             ****ORCA TERMINATED NORMALLY****
TOTAL RUN TIME: 0 days 0 hours 6 minutes 45 seconds 981 msec
