
                                 *****************
                                 * O   R   C   A *
                                 *****************

                                            #,                                       
                                            ###                                      
                                            ####                                     
                                            #####                                    
                                            ######                                   
                                           ########,                                 
                                     ,,################,,,,,                         
                               ,,#################################,,                 
                          ,,##########################################,,             
                       ,#########################################, ''#####,          
                    ,#############################################,,   '####,        
                  ,##################################################,,,,####,       
                ,###########''''           ''''###############################       
              ,#####''   ,,,,##########,,,,          '''####'''          '####       
            ,##' ,,,,###########################,,,                        '##       
           ' ,,###''''                  '''############,,,                           
         ,,##''                                '''############,,,,        ,,,,,,###''
      ,#''                                            '''#######################'''  
     '                                                          ''''####''''         
             ,#######,   #######,   ,#######,      ##                                
            ,#'     '#,  ##    ##  ,#'     '#,    #''#        ######   ,####,        
            ##       ##  ##   ,#'  ##            #'  '#       #        #'  '#        
            ##       ##  #######   ##           ,######,      #####,   #    #        
            '#,     ,#'  ##    ##  '#,     ,#' ,#      #,         ##   #,  ,#        
             '#######'   ##     ##  '#######'  #'      '#     #####' # '####'        



                  #######################################################
                  #                        -***-                        #
                  #          Department of theory and spectroscopy      #
                  #    Directorship and core code : Frank Neese         #
                  #        Max Planck Institute fuer Kohlenforschung    #
                  #                Kaiser Wilhelm Platz 1               #
                  #                 D-45470 Muelheim/Ruhr               #
                  #                      Germany                        #
                  #                                                     #
                  #                  All rights reserved                #
                  #                        -***-                        #
                  #######################################################


                         Program Version 5.0.2 -  RELEASE  -


 With contributions from (in alphabetic order):
   Daniel Aravena         : Magnetic Suceptibility
   Michael Atanasov       : Ab Initio Ligand Field Theory (pilot matlab implementation)
   Alexander A. Auer      : GIAO ZORA, VPT2 properties, NMR spectrum
   Ute Becker             : Parallelization
   Giovanni Bistoni       : ED, misc. LED, open-shell LED, HFLD
   Martin Brehm           : Molecular dynamics
   Dmytro Bykov           : SCF Hessian
   Vijay G. Chilkuri      : MRCI spin determinant printing, contributions to CSF-ICE
   Dipayan Datta          : RHF DLPNO-CCSD density
   Achintya Kumar Dutta   : EOM-CC, STEOM-CC
   Dmitry Ganyushin       : Spin-Orbit,Spin-Spin,Magnetic field MRCI
   Miquel Garcia          : C-PCM and meta-GGA Hessian, CC/C-PCM, Gaussian charge scheme
   Yang Guo               : DLPNO-NEVPT2, F12-NEVPT2, CIM, IAO-localization
   Andreas Hansen         : Spin unrestricted coupled pair/coupled cluster methods
   Benjamin Helmich-Paris : MC-RPA, TRAH-SCF, COSX integrals
   Lee Huntington         : MR-EOM, pCC
   Robert Izsak           : Overlap fitted RIJCOSX, COSX-SCS-MP3, EOM
   Marcus Kettner         : VPT2
   Christian Kollmar      : KDIIS, OOCD, Brueckner-CCSD(T), CCSD density, CASPT2, CASPT2-K
   Simone Kossmann        : Meta GGA functionals, TD-DFT gradient, OOMP2, MP2 Hessian
   Martin Krupicka        : Initial AUTO-CI
   Lucas Lang             : DCDCAS
   Marvin Lechner         : AUTO-CI (C++ implementation), FIC-MRCC
   Dagmar Lenk            : GEPOL surface, SMD
   Dimitrios Liakos       : Extrapolation schemes; Compound Job, initial MDCI parallelization
   Dimitrios Manganas     : Further ROCIS development; embedding schemes
   Dimitrios Pantazis     : SARC Basis sets
   Anastasios Papadopoulos: AUTO-CI, single reference methods and gradients
   Taras Petrenko         : DFT Hessian,TD-DFT gradient, ASA, ECA, R-Raman, ABS, FL, XAS/XES, NRVS
   Peter Pinski           : DLPNO-MP2, DLPNO-MP2 Gradient
   Christoph Reimann      : Effective Core Potentials
   Marius Retegan         : Local ZFS, SOC
   Christoph Riplinger    : Optimizer, TS searches, QM/MM, DLPNO-CCSD(T), (RO)-DLPNO pert. Triples
   Tobias Risthaus        : Range-separated hybrids, TD-DFT gradient, RPA, STAB
   Michael Roemelt        : Original ROCIS implementation
   Masaaki Saitow         : Open-shell DLPNO-CCSD energy and density
   Barbara Sandhoefer     : DKH picture change effects
   Avijit Sen             : IP-ROCIS
   Kantharuban Sivalingam : CASSCF convergence, NEVPT2, FIC-MRCI
   Bernardo de Souza      : ESD, SOC TD-DFT
   Georgi Stoychev        : AutoAux, RI-MP2 NMR, DLPNO-MP2 response
   Willem Van den Heuvel  : Paramagnetic NMR
   Boris Wezisla          : Elementary symmetry handling
   Frank Wennmohs         : Technical directorship


 We gratefully acknowledge several colleagues who have allowed us to
 interface, adapt or use parts of their codes:
   Stefan Grimme, W. Hujo, H. Kruse, P. Pracht,  : VdW corrections, initial TS optimization,
                  C. Bannwarth, S. Ehlert          DFT functionals, gCP, sTDA/sTD-DF
   Ed Valeev, F. Pavosevic, A. Kumar             : LibInt (2-el integral package), F12 methods
   Garnet Chan, S. Sharma, J. Yang, R. Olivares  : DMRG
   Ulf Ekstrom                                   : XCFun DFT Library
   Mihaly Kallay                                 : mrcc  (arbitrary order and MRCC methods)
   Jiri Pittner, Ondrej Demel                    : Mk-CCSD
   Frank Weinhold                                : gennbo (NPA and NBO analysis)
   Christopher J. Cramer and Donald G. Truhlar   : smd solvation model
   Lars Goerigk                                  : TD-DFT with DH, B97 family of functionals
   V. Asgeirsson, H. Jonsson                     : NEB implementation
   FAccTs GmbH                                   : IRC, NEB, NEB-TS, DLPNO-Multilevel, CI-OPT
                                                   MM, QMMM, 2- and 3-layer-ONIOM, Crystal-QMMM,
                                                   LR-CPCM, SF, NACMEs, symmetry and pop. for TD-DFT,
                                                   nearIR, NL-DFT gradient (VV10), updates on ESD,
                                                   ML-optimized integration grids
   S Lehtola, MJT Oliveira, MAL Marques          : LibXC Library
   Liviu Ungur et al                             : ANISO software


 Your calculation uses the libint2 library for the computation of 2-el integrals
 For citations please refer to: http://libint.valeyev.net

 Your ORCA version has been built with support for libXC version: 5.1.0
 For citations please refer to: https://tddft.org/programs/libxc/

 This ORCA versions uses:
   CBLAS   interface :  Fast vector & matrix operations
   LAPACKE interface :  Fast linear algebra routines
   SCALAPACK package :  Parallel linear algebra routines
   Shared memory     :  Shared parallel matrices
   BLAS/LAPACK       :  OpenBLAS 0.3.15  USE64BITINT DYNAMIC_ARCH NO_AFFINITY Zen SINGLE_THREADED
        Core in use  :  Zen
   Copyright (c) 2011-2014, The OpenBLAS Project


Your calculation utilizes the atom-pairwise dispersion correction
based on tight binding partial charges (D4)
Cite in your paper:
E.Caldeweyher, C.Bannwarth, S.Grimme, J.Chem.Phys., (2017), 147, 034112.
E.Caldeweyher, S.Ehlert, A.Hansen, H.Neugebauer, S.Grimme, J.Chem.Phys., (2018), in progress.
   

================================================================================

----- Orbital basis set information -----
Your calculation utilizes the basis: pcJ-0
   F. Jensen, Theor. Chem. Acc. 126, 371 (2010).

----- AuxJ basis set information -----
Your calculation utilizes the auxiliary basis: def2/J
   F. Weigend, Phys. Chem. Chem. Phys. 8, 1057 (2006).

================================================================================
                                        WARNINGS
                       Please study these warnings very carefully!
================================================================================


INFO   : the flag for use of the SHARK integral package has been found!

================================================================================
                                       INPUT FILE
================================================================================
NAME = inpJ
|  1> ! pbe0
|  2> ! D4
|  3> ! pcJ-0
|  4> ! def2/J RIJCOSX
|  5> ! DEFGRID2
|  6> ! scfconv7
|  7> ! smallprint printgap noloewdin
|  8> ! NOSOSCF
|  9> %MaxCore 4000
| 10> %output
| 11>        print[P_BondOrder_M] 1
| 12>        print[P_Mayer] 1
| 13>        print[P_basis] 2
| 14> end
| 15> %pal
| 16>     nprocs 4
| 17> end
| 18> ! CPCM(chloroform)
| 19> *xyz 0 1
| 20> C   -5.0248730900   0.2097763500  -0.4914650600
| 21> C   -6.4736555500  -0.1813786400  -0.6645441300
| 22> C   -7.3789821900   0.7259088800   0.1782684900
| 23> H   -6.6276035700  -1.2296828100  -0.3847054900
| 24> H   -6.7684817900  -0.0646183400  -1.7179867800
| 25> C   -4.7517830000   1.6395193500  -0.7570595900
| 26> C   -5.6811084600   2.5974051100  -0.0446868300
| 27> C   -7.1536056100   2.1912678600  -0.1984345800
| 28> H   -5.5231765300   3.6185098300  -0.4078970700
| 29> H   -5.4250620700   2.5943530800   1.0257969000
| 30> H   -7.4671641100   2.3314369800  -1.2419114400
| 31> H   -7.7875672400   2.8315257300   0.4258192400
| 32> O   -7.1617950600   0.4988962500   1.5808328500
| 33> H   -8.4287584200   0.4601008800   0.0029852700
| 34> C   -4.1032680600  -0.6857667300  -0.0636672100
| 35> C   -3.7904978300   2.0580091800  -1.5876865300
| 36> H   -3.1436642000   1.3539073500  -2.1043357200
| 37> H   -3.6365405400   3.1179419900  -1.7761364000
| 38> C   -2.7186832900  -0.4056627500   0.2406421200
| 39> H   -4.4573639100  -1.7038411900   0.0940177800
| 40> C   -1.7690683600  -1.3111927000   0.5578889900
| 41> H   -2.4320102900   0.6434164900   0.2186776900
| 42> C   -1.9596304100  -2.8058197100   0.6050842200
| 43> C   -0.9491477200  -3.5307624700  -0.3052977100
| 44> H   -2.9766732000  -3.1045770400   0.3375464800
| 45> H   -1.7858323100  -3.1369457000   1.6411969300
| 46> C    0.4989355900  -3.0949860800  -0.0451352600
| 47> H   -1.2125799500  -3.3402875100  -1.3534294800
| 48> H   -1.0400864200  -4.6132009900  -0.1526847200
| 49> C    0.6620159700  -1.5714722600  -0.1336493400
| 50> H    1.1569087900  -3.6079666800  -0.7543443500
| 51> H    0.7982554200  -3.4192743500   0.9629892600
| 52> C   -0.3534583500  -0.9318664600   0.8671293900
| 53> H   -0.1116354400  -1.3969036100   1.8405324900
| 54> C    0.0741951700   0.5307112400   0.9472116500
| 55> H   -6.2074471900   0.4199817900   1.7205808300
| 56> C    1.6179758400   0.4622433700   0.8507745700
| 57> H   -0.2743603100   1.0118687200   1.8670725600
| 58> H   -0.3364953300   1.1030365800   0.1079421000
| 59> C    1.9888392200  -0.9918846300   0.4300431700
| 60> H    2.0950036100   0.7197572300   1.8015558200
| 61> H    1.9983979800   1.1763483200   0.1110640400
| 62> H    2.2214313900  -1.5705413300   1.3393731700
| 63> C    3.2496362900  -1.0192370400  -0.4572551700
| 64> C    0.4115510200  -1.0712305300  -1.5636605600
| 65> H    0.6395930800  -0.0052490900  -1.6638218900
| 66> H   -0.6326539300  -1.2106479700  -1.8600929200
| 67> H    1.0399754400  -1.6135498100  -2.2786666000
| 68> H    3.0523790900  -0.4196607700  -1.3581343400
| 69> C    3.6638179800  -2.4349878300  -0.8872869700
| 70> C    4.3974755900  -0.3816306100   0.2813774400
| 71> C    5.0798397900   0.6808976800  -0.1434159400
| 72> H    4.6668684200  -0.8696221500   1.2212435700
| 73> H    4.7780979500   1.1313012800  -1.0932070200
| 74> C    6.2996707600   1.3146743700   0.4848203000
| 75> C    7.5128716400   0.9702486700  -0.4006770700
| 76> C    6.5183091200   0.9607996200   1.9688741300
| 77> H    6.1615876800   2.4084380100   0.4331311800
| 78> H    6.5152632800  -0.1360731200   2.0600669700
| 79> C    5.3963108000   1.5344561700   2.8415324000
| 80> C    7.8687451100   1.4666747200   2.4873705100
| 81> H    7.7789246800  -0.0873032000  -0.2825114000
| 82> H    8.3868374500   1.5792342500  -0.1514523200
| 83> H    7.2767189000   1.1395804800  -1.4567273800
| 84> H    4.4069762300   1.2180220500   2.5008072700
| 85> H    5.4264533600   2.6313682200   2.8151266300
| 86> H    5.5159020400   1.2227933400   3.8851478300
| 87> H    8.7132808800   0.9653755000   2.0061757800
| 88> H    7.9492144500   1.2935783800   3.5662054600
| 89> H    7.9691098400   2.5460791300   2.3137038100
| 90> H    2.9355929800  -2.8839639300  -1.5674022900
| 91> H    3.7649812900  -3.0911106700  -0.0139945400
| 92> H    4.6303059600  -2.4050694300  -1.4017398000
| 93> *
| 94> %eprnmr
| 95>  Nuclei = all H { ssfc }
| 96>  SpinSpinRThresh 8.0
| 97> end
| 98> 
| 99>                          ****END OF INPUT****
================================================================================

                       ****************************
                       * Single Point Calculation *
                       ****************************

---------------------------------
CARTESIAN COORDINATES (ANGSTROEM)
---------------------------------
  C     -5.024873    0.209776   -0.491465
  C     -6.473656   -0.181379   -0.664544
  C     -7.378982    0.725909    0.178268
  H     -6.627604   -1.229683   -0.384705
  H     -6.768482   -0.064618   -1.717987
  C     -4.751783    1.639519   -0.757060
  C     -5.681108    2.597405   -0.044687
  C     -7.153606    2.191268   -0.198435
  H     -5.523177    3.618510   -0.407897
  H     -5.425062    2.594353    1.025797
  H     -7.467164    2.331437   -1.241911
  H     -7.787567    2.831526    0.425819
  O     -7.161795    0.498896    1.580833
  H     -8.428758    0.460101    0.002985
  C     -4.103268   -0.685767   -0.063667
  C     -3.790498    2.058009   -1.587687
  H     -3.143664    1.353907   -2.104336
  H     -3.636541    3.117942   -1.776136
  C     -2.718683   -0.405663    0.240642
  H     -4.457364   -1.703841    0.094018
  C     -1.769068   -1.311193    0.557889
  H     -2.432010    0.643416    0.218678
  C     -1.959630   -2.805820    0.605084
  C     -0.949148   -3.530762   -0.305298
  H     -2.976673   -3.104577    0.337546
  H     -1.785832   -3.136946    1.641197
  C      0.498936   -3.094986   -0.045135
  H     -1.212580   -3.340288   -1.353429
  H     -1.040086   -4.613201   -0.152685
  C      0.662016   -1.571472   -0.133649
  H      1.156909   -3.607967   -0.754344
  H      0.798255   -3.419274    0.962989
  C     -0.353458   -0.931866    0.867129
  H     -0.111635   -1.396904    1.840532
  C      0.074195    0.530711    0.947212
  H     -6.207447    0.419982    1.720581
  C      1.617976    0.462243    0.850775
  H     -0.274360    1.011869    1.867073
  H     -0.336495    1.103037    0.107942
  C      1.988839   -0.991885    0.430043
  H      2.095004    0.719757    1.801556
  H      1.998398    1.176348    0.111064
  H      2.221431   -1.570541    1.339373
  C      3.249636   -1.019237   -0.457255
  C      0.411551   -1.071231   -1.563661
  H      0.639593   -0.005249   -1.663822
  H     -0.632654   -1.210648   -1.860093
  H      1.039975   -1.613550   -2.278667
  H      3.052379   -0.419661   -1.358134
  C      3.663818   -2.434988   -0.887287
  C      4.397476   -0.381631    0.281377
  C      5.079840    0.680898   -0.143416
  H      4.666868   -0.869622    1.221244
  H      4.778098    1.131301   -1.093207
  C      6.299671    1.314674    0.484820
  C      7.512872    0.970249   -0.400677
  C      6.518309    0.960800    1.968874
  H      6.161588    2.408438    0.433131
  H      6.515263   -0.136073    2.060067
  C      5.396311    1.534456    2.841532
  C      7.868745    1.466675    2.487371
  H      7.778925   -0.087303   -0.282511
  H      8.386837    1.579234   -0.151452
  H      7.276719    1.139580   -1.456727
  H      4.406976    1.218022    2.500807
  H      5.426453    2.631368    2.815127
  H      5.515902    1.222793    3.885148
  H      8.713281    0.965375    2.006176
  H      7.949214    1.293578    3.566205
  H      7.969110    2.546079    2.313704
  H      2.935593   -2.883964   -1.567402
  H      3.764981   -3.091111   -0.013995
  H      4.630306   -2.405069   -1.401740

----------------------------
CARTESIAN COORDINATES (A.U.)
----------------------------
  NO LB      ZA    FRAG     MASS         X           Y           Z
   0 C     6.0000    0    12.011   -9.495634    0.396420   -0.928734
   1 C     6.0000    0    12.011  -12.233436   -0.342756   -1.255806
   2 C     6.0000    0    12.011  -13.944255    1.371769    0.336879
   3 H     1.0000    0     1.008  -12.524356   -2.323764   -0.726988
   4 H     1.0000    0     1.008  -12.790577   -0.122111   -3.246525
   5 C     6.0000    0    12.011   -8.979569    3.098243   -1.430635
   6 C     6.0000    0    12.011  -10.735739    4.908384   -0.084446
   7 C     6.0000    0    12.011  -13.518355    4.140896   -0.374987
   8 H     1.0000    0     1.008  -10.437291    6.837993   -0.770814
   9 H     1.0000    0     1.008  -10.251882    4.902617    1.938475
  10 H     1.0000    0     1.008  -14.110895    4.405777   -2.346873
  11 H     1.0000    0     1.008  -14.716369    5.350808    0.804682
  12 O     8.0000    0    15.999  -13.533831    0.942777    2.987341
  13 H     1.0000    0     1.008  -15.928045    0.869465    0.005641
  14 C     6.0000    0    12.011   -7.754053   -1.295911   -0.120314
  15 C     6.0000    0    12.011   -7.163003    3.889074   -3.000293
  16 H     1.0000    0     1.008   -5.940664    2.558514   -3.976618
  17 H     1.0000    0     1.008   -6.872066    5.892056   -3.356411
  18 C     6.0000    0    12.011   -5.137567   -0.766592    0.454748
  19 H     1.0000    0     1.008   -8.423197   -3.219793    0.177668
  20 C     6.0000    0    12.011   -3.343055   -2.477795    1.054257
  21 H     1.0000    0     1.008   -4.595833    1.215881    0.413241
  22 C     6.0000    0    12.011   -3.703165   -5.302231    1.143443
  23 C     6.0000    0    12.011   -1.793629   -6.672174   -0.576929
  24 H     1.0000    0     1.008   -5.625097   -5.866800    0.637870
  25 H     1.0000    0     1.008   -3.374734   -5.927968    3.101413
  26 C     6.0000    0    12.011    0.942852   -5.848676   -0.085293
  27 H     1.0000    0     1.008   -2.291444   -6.312229   -2.557611
  28 H     1.0000    0     1.008   -1.965478   -8.717686   -0.288532
  29 C     6.0000    0    12.011    1.251029   -2.969652   -0.252561
  30 H     1.0000    0     1.008    2.186241   -6.818069   -1.425504
  31 H     1.0000    0     1.008    1.508484   -6.461492    1.819786
  32 C     6.0000    0    12.011   -0.667939   -1.760972    1.638637
  33 H     1.0000    0     1.008   -0.210960   -2.639765    3.478102
  34 C     6.0000    0    12.011    0.140209    1.002899    1.789971
  35 H     1.0000    0     1.008  -11.730375    0.793651    3.251427
  36 C     6.0000    0    12.011    3.057531    0.873513    1.607731
  37 H     1.0000    0     1.008   -0.518466    1.912155    3.528256
  38 H     1.0000    0     1.008   -0.635884    2.084437    0.203981
  39 C     6.0000    0    12.011    3.758361   -1.874390    0.812664
  40 H     1.0000    0     1.008    3.958983    1.360144    3.404447
  41 H     1.0000    0     1.008    3.776425    2.222976    0.209881
  42 H     1.0000    0     1.008    4.197897   -2.967893    2.531048
  43 C     6.0000    0    12.011    6.140923   -1.926079   -0.864087
  44 C     6.0000    0    12.011    0.777719   -2.024332   -2.954890
  45 H     1.0000    0     1.008    1.208656   -0.009919   -3.144168
  46 H     1.0000    0     1.008   -1.195543   -2.287793   -3.515066
  47 H     1.0000    0     1.008    1.965269   -3.049167   -4.306056
  48 H     1.0000    0     1.008    5.768161   -0.793044   -2.566502
  49 C     6.0000    0    12.011    6.923613   -4.601460   -1.676729
  50 C     6.0000    0    12.011    8.310025   -0.721177    0.531726
  51 C     6.0000    0    12.011    9.599506    1.286710   -0.271017
  52 H     1.0000    0     1.008    8.819103   -1.643348    2.307816
  53 H     1.0000    0     1.008    9.029297    2.137850   -2.065862
  54 C     6.0000    0    12.011   11.904652    2.484375    0.916178
  55 C     6.0000    0    12.011   14.197270    1.833504   -0.757170
  56 C     6.0000    0    12.011   12.317819    1.815648    3.720633
  57 H     1.0000    0     1.008   11.643713    4.551288    0.818499
  58 H     1.0000    0     1.008   12.312063   -0.257141    3.892962
  59 C     6.0000    0    12.011   10.197550    2.899702    5.369718
  60 C     6.0000    0    12.011   14.869773    2.771614    4.700449
  61 H     1.0000    0     1.008   14.700037   -0.164979   -0.533869
  62 H     1.0000    0     1.008   15.848826    2.984320   -0.286203
  63 H     1.0000    0     1.008   13.751006    2.153495   -2.752816
  64 H     1.0000    0     1.008    8.327978    2.301728    4.725841
  65 H     1.0000    0     1.008   10.254511    4.972565    5.319818
  66 H     1.0000    0     1.008   10.423544    2.310745    7.341865
  67 H     1.0000    0     1.008   16.465715    1.824295    3.791123
  68 H     1.0000    0     1.008   15.021838    2.444509    6.739152
  69 H     1.0000    0     1.008   15.059435    4.811392    4.372267
  70 H     1.0000    0     1.008    5.547467   -5.449902   -2.961961
  71 H     1.0000    0     1.008    7.114784   -5.841353   -0.026446
  72 H     1.0000    0     1.008    8.750010   -4.544923   -2.648904

--------------------------------
INTERNAL COORDINATES (ANGSTROEM)
--------------------------------
 C      0   0   0     0.000000000000     0.00000000     0.00000000
 C      1   0   0     1.510605576276     0.00000000     0.00000000
 C      2   1   0     1.533988292482   110.48256793     0.00000000
 H      2   1   3     1.095879231548   110.68133657   237.86669031
 H      2   1   3     1.100134944581   109.83145028   118.75192016
 C      1   2   3     1.479622822773   113.99502062   306.26739958
 C      6   1   2     1.512833728142   114.45161460    49.54846107
 C      3   2   1     1.529698253260   110.14060393    56.79650919
 H      7   6   1     1.095225557664   110.21723982   188.87766455
 H      7   6   1     1.100683644338   108.25885483    72.21802255
 H      8   3   2     1.098549167074   108.30581943    64.33049734
 H      8   3   2     1.096143384870   109.51639716   181.33189834
 O      3   2   1     1.437321038446   110.70429742   292.79793635
 H      3   2   1     1.096999650479   109.49169793   177.25543754
 C      1   2   3     1.354387034758   121.17045179   123.12518872
 C      6   1   2     1.337588886515   123.12264441   231.44179128
 H     16   6   1     1.086774823704   121.34945266   359.06171637
 H     16   6   1     1.087508051631   120.94970496   178.45953009
 C     15   1   2     1.445038889876   126.18109631   185.25904575
 H     15   1   2     1.089368639700   116.26237328     3.11816007
 C     19  15   1     1.349962437311   126.40402033   186.01036108
 H     19  15   1     1.087764265323   115.79867521     6.74827739
 C     21  19  15     1.507465151722   125.69731939     2.48798732
 C     23  21  19     1.541237337511   111.40670109   124.19457335
 H     23  21  19     1.093255880956   112.38845050     0.63645800
 H     23  21  19     1.101535178122   107.91147591   242.71690787
 C     24  23  21     1.534448055547   112.64368150    51.39846507
 H     24  23  21     1.097386649032   108.97416346   289.25368833
 H     24  23  21     1.096920107143   109.12434126   173.31701908
 C     27  24  23     1.534771746036   111.86436427   306.25711585
 H     27  24  23     1.095013863489   108.91751725   182.75687214
 H     27  24  23     1.100486388156   109.16629926    66.28739810
 C     21  19  15     1.497821658862   122.92019499   180.32213538
 H     33  21  19     1.105554822598   106.37856671   127.44720804
 C     33  21  19     1.525920781061   121.22840371     4.85977925
 H     13   3   2     0.967748338611   107.62620012    42.43646659
 C     35  33  21     1.548304465112   103.52007998   196.52111260
 H     35  33  21     1.095055951513   112.08796627    74.55028439
 H     35  33  21     1.095717280668   110.81816455   314.91720204
 C     30  27  24     1.553747406569   116.11054165   166.23921213
 H     37  35  33     1.094465105334   111.71980742   250.14748358
 H     37  35  33     1.096283974347   111.05220320   131.58035466
 H     40  30  27     1.102643978309   106.47297977   321.17941817
 C     40  30  27     1.541964899153   118.87210799    81.95503815
 C     30  27  24     1.535547644633   111.08555026   294.07834857
 H     45  30  27     1.094692606891   111.62066794   186.69498867
 H     45  30  27     1.094382631549   111.49264038    66.65442000
 H     45  30  27     1.095564279423   110.66832904   306.54067262
 H     44  40  30     1.099993356998   108.35938391    61.30820281
 C     44  40  30     1.536497354611   113.44103557   300.44777941
 C     44  40  30     1.506537470745   109.47180223   178.75707630
 C     51  44  40     1.332305026705   124.84991316   239.07530583
 H     51  44  40     1.092728961037   114.86793068    60.16064865
 H     52  51  44     1.093624540940   117.64847311     0.71897967
 C     52  51  44     1.511403738717   127.97028278   184.86388791
 C     55  52  51     1.540970807748   107.62790745   107.17633318
 C     55  52  51     1.541248144034   114.73685129   340.49855809
 H     55  52  51     1.103656469330   107.16509034   222.01251176
 H     57  55  52     1.100661264406   107.95066891    53.44196673
 C     57  55  52     1.532806094599   111.00354821   294.17101559
 C     57  55  52     1.532457332509   112.02446571   171.80501740
 H     56  55  52     1.096888008595   110.15451194   287.43676412
 H     56  55  52     1.093980187074   111.93950452   166.54094703
 H     56  55  52     1.095300705623   110.47164593    46.38782444
 H     60  57  55     1.093163783662   112.12827951    54.91672442
 H     60  57  55     1.097643787414   109.88940881   294.97491912
 H     60  57  55     1.095704773204   110.84919527   176.03382769
 H     61  57  55     1.093658970137   112.35306556   294.20264032
 H     61  57  55     1.095592308728   110.22682692   174.07322050
 H     61  57  55     1.097883000162   110.58454997    55.06775212
 H     50  44  40     1.092908064521   111.90559550    67.34675903
 H     50  44  40     1.096982618256   110.68100334   306.66674221
 H     50  44  40     1.095288017116   110.13003366   187.32599891

---------------------------
INTERNAL COORDINATES (A.U.)
---------------------------
 C      0   0   0     0.000000000000     0.00000000     0.00000000
 C      1   0   0     2.854630835537     0.00000000     0.00000000
 C      2   1   0     2.898817765433   110.48256793     0.00000000
 H      2   1   3     2.070911623478   110.68133657   237.86669031
 H      2   1   3     2.078953755614   109.83145028   118.75192016
 C      1   2   3     2.796081916541   113.99502062   306.26739958
 C      6   1   2     2.858841432348   114.45161460    49.54846107
 C      3   2   1     2.890710766199   110.14060393    56.79650919
 H      7   6   1     2.069676358856   110.21723982   188.87766455
 H      7   6   1     2.079990647886   108.25885483    72.21802255
 H      8   3   2     2.075957070417   108.30581943    64.33049734
 H      8   3   2     2.071410800913   109.51639716   181.33189834
 O      3   2   1     2.716143129186   110.70429742   292.79793635
 H      3   2   1     2.073028908412   109.49169793   177.25543754
 C      1   2   3     2.559420575027   121.17045179   123.12518872
 C      6   1   2     2.527676675291   123.12264441   231.44179128
 H     16   6   1     2.053706786040   121.34945266   359.06171637
 H     16   6   1     2.055092386016   120.94970496   178.45953009
 C     15   1   2     2.730727754730   126.18109631   185.25904575
 H     15   1   2     2.058608387916   116.26237328     3.11816007
 C     19  15   1     2.551059297599   126.40402033   186.01036108
 H     19  15   1     2.055576559726   115.79867521     6.74827739
 C     21  19  15     2.848696293185   125.69731939     2.48798732
 C     23  21  19     2.912516475269   111.40670109   124.19457335
 H     23  21  19     2.065954209305   112.38845050     0.63645800
 H     23  21  19     2.081599813531   107.91147591   242.71690787
 C     24  23  21     2.899686591712   112.64368150    51.39846507
 H     24  23  21     2.073760229692   108.97416346   289.25368833
 H     24  23  21     2.072878593291   109.12434126   173.31701908
 C     27  24  23     2.900298278088   111.86436427   306.25711585
 H     27  24  23     2.069276314841   108.91751725   182.75687214
 H     27  24  23     2.079617887722   109.16629926    66.28739810
 C     21  19  15     2.830472732705   122.92019499   180.32213538
 H     33  21  19     2.089195840747   106.37856671   127.44720804
 C     33  21  19     2.883572378264   121.22840371     4.85977925
 H     13   3   2     1.828779326532   107.62620012    42.43646659
 C     35  33  21     2.925871410990   103.52007998   196.52111260
 H     35  33  21     2.069355849680   112.08796627    74.55028439
 H     35  33  21     2.070605580667   110.81816455   314.91720204
 C     30  27  24     2.936157079706   116.11054165   166.23921213
 H     37  35  33     2.068239312215   111.71980742   250.14748358
 H     37  35  33     2.071676476522   111.05220320   131.58035466
 H     40  30  27     2.083695142221   106.47297977   321.17941817
 C     40  30  27     2.913891367519   118.87210799    81.95503815
 C     30  27  24     2.901764513944   111.08555026   294.07834857
 H     45  30  27     2.068669227852   111.62066794   186.69498867
 H     45  30  27     2.068083459347   111.49264038    66.65442000
 H     45  30  27     2.070316450217   110.66832904   306.54067262
 H     44  40  30     2.078686193858   108.35938391    61.30820281
 C     44  40  30     2.903559205710   113.44103557   300.44777941
 C     44  40  30     2.846943230198   109.47180223   178.75707630
 C     51  44  40     2.517691627319   124.84991316   239.07530583
 H     51  44  40     2.064958474964   114.86793068    60.16064865
 H     52  51  44     2.066650875713   117.64847311     0.71897967
 C     52  51  44     2.856139143960   127.97028278   184.86388791
 C     55  52  51     2.912012807010   107.62790745   107.17633318
 C     55  52  51     2.912536896639   114.73685129   340.49855809
 H     55  52  51     2.085608472965   107.16509034   222.01251176
 H     57  55  52     2.079948355943   107.95066891    53.44196673
 C     57  55  52     2.896583735198   111.00354821   294.17101559
 C     57  55  52     2.895924670361   112.02446571   171.80501740
 H     56  55  52     2.072817935827   110.15451194   287.43676412
 H     56  55  52     2.067322949505   111.93950452   166.54094703
 H     56  55  52     2.069818367918   110.47164593    46.38782444
 H     60  57  55     2.065780170643   112.12827951    54.91672442
 H     60  57  55     2.074246150812   109.88940881   294.97491912
 H     60  57  55     2.070581944986   110.84919527   176.03382769
 H     61  57  55     2.066715937466   112.35306556   294.20264032
 H     61  57  55     2.070369417926   110.22682692   174.07322050
 H     61  57  55     2.074698197394   110.58454997    55.06775212
 H     50  44  40     2.065296931499   111.90559550    67.34675903
 H     50  44  40     2.072996722175   110.68100334   306.66674221
 H     50  44  40     2.069794390115   110.13003366   187.32599891

---------------------
BASIS SET INFORMATION
---------------------
There are 3 groups of distinct atoms

 Group   1 Type C   : 7s4p contracted to 4s3p pattern {4111/211}
 Group   2 Type H   : 5s contracted to 3s pattern {311}
 Group   3 Type O   : 7s4p contracted to 4s3p pattern {4111/211}

Atom   0C    basis set group =>   1
Atom   1C    basis set group =>   1
Atom   2C    basis set group =>   1
Atom   3H    basis set group =>   2
Atom   4H    basis set group =>   2
Atom   5C    basis set group =>   1
Atom   6C    basis set group =>   1
Atom   7C    basis set group =>   1
Atom   8H    basis set group =>   2
Atom   9H    basis set group =>   2
Atom  10H    basis set group =>   2
Atom  11H    basis set group =>   2
Atom  12O    basis set group =>   3
Atom  13H    basis set group =>   2
Atom  14C    basis set group =>   1
Atom  15C    basis set group =>   1
Atom  16H    basis set group =>   2
Atom  17H    basis set group =>   2
Atom  18C    basis set group =>   1
Atom  19H    basis set group =>   2
Atom  20C    basis set group =>   1
Atom  21H    basis set group =>   2
Atom  22C    basis set group =>   1
Atom  23C    basis set group =>   1
Atom  24H    basis set group =>   2
Atom  25H    basis set group =>   2
Atom  26C    basis set group =>   1
Atom  27H    basis set group =>   2
Atom  28H    basis set group =>   2
Atom  29C    basis set group =>   1
Atom  30H    basis set group =>   2
Atom  31H    basis set group =>   2
Atom  32C    basis set group =>   1
Atom  33H    basis set group =>   2
Atom  34C    basis set group =>   1
Atom  35H    basis set group =>   2
Atom  36C    basis set group =>   1
Atom  37H    basis set group =>   2
Atom  38H    basis set group =>   2
Atom  39C    basis set group =>   1
Atom  40H    basis set group =>   2
Atom  41H    basis set group =>   2
Atom  42H    basis set group =>   2
Atom  43C    basis set group =>   1
Atom  44C    basis set group =>   1
Atom  45H    basis set group =>   2
Atom  46H    basis set group =>   2
Atom  47H    basis set group =>   2
Atom  48H    basis set group =>   2
Atom  49C    basis set group =>   1
Atom  50C    basis set group =>   1
Atom  51C    basis set group =>   1
Atom  52H    basis set group =>   2
Atom  53H    basis set group =>   2
Atom  54C    basis set group =>   1
Atom  55C    basis set group =>   1
Atom  56C    basis set group =>   1
Atom  57H    basis set group =>   2
Atom  58H    basis set group =>   2
Atom  59C    basis set group =>   1
Atom  60C    basis set group =>   1
Atom  61H    basis set group =>   2
Atom  62H    basis set group =>   2
Atom  63H    basis set group =>   2
Atom  64H    basis set group =>   2
Atom  65H    basis set group =>   2
Atom  66H    basis set group =>   2
Atom  67H    basis set group =>   2
Atom  68H    basis set group =>   2
Atom  69H    basis set group =>   2
Atom  70H    basis set group =>   2
Atom  71H    basis set group =>   2
Atom  72H    basis set group =>   2

-------------------------
BASIS SET IN INPUT FORMAT
-------------------------

 # Basis set for element : H 
 NewGTO H 
 S 3 
   1    1357.7500000000      0.0012928364
   2      54.3100000000      0.0588280685
   3       4.3448000000      0.9761499708
 S 1 
   1       0.6604910000      1.0000000000
 S 1 
   1       0.1366870000      1.0000000000
  end;

 # Basis set for element : C 
 NewGTO C 
 S 4 
   1  139534.0000000000      0.0001655246
   2    5581.3600000000      0.0074486101
   3     446.5090000000      0.1285821065
   4      67.4620000000      0.9218029311
 S 1 
   1      15.0674000000      1.0000000000
 S 1 
   1       3.9387600000      1.0000000000
 S 1 
   1       0.2999150000      1.0000000000
 P 2 
   1      28.3900000000      0.0816325586
   2       4.3676900000      0.9660360576
 P 1 
   1       0.8698170000      1.0000000000
 P 1 
   1       0.1889340000      1.0000000000
  end;

 # Basis set for element : O 
 NewGTO O 
 S 4 
   1  253789.0000000000      0.0001641076
   2   10151.6000000000      0.0074010921
   3     812.1250000000      0.1277711901
   4     122.6930000000      0.9223372164
 S 1 
   1      27.5608000000      1.0000000000
 S 1 
   1       7.3172600000      1.0000000000
 S 1 
   1       0.5792400000      1.0000000000
 P 2 
   1      53.4157000000      0.0793786106
   2       8.2177900000      0.9670506337
 P 1 
   1       1.6754400000      1.0000000000
 P 1 
   1       0.3506720000      1.0000000000
  end;

---------------------------------
AUXILIARY/J BASIS SET INFORMATION
---------------------------------
There are 3 groups of distinct atoms

 Group   1 Type C   : 12s5p4d2f1g contracted to 6s4p3d1f1g pattern {711111/2111/211/2/1}
 Group   2 Type H   : 5s2p1d contracted to 3s1p1d pattern {311/2/1}
 Group   3 Type O   : 12s5p4d2f1g contracted to 6s4p3d1f1g pattern {711111/2111/211/2/1}

Atom   0C    basis set group =>   1
Atom   1C    basis set group =>   1
Atom   2C    basis set group =>   1
Atom   3H    basis set group =>   2
Atom   4H    basis set group =>   2
Atom   5C    basis set group =>   1
Atom   6C    basis set group =>   1
Atom   7C    basis set group =>   1
Atom   8H    basis set group =>   2
Atom   9H    basis set group =>   2
Atom  10H    basis set group =>   2
Atom  11H    basis set group =>   2
Atom  12O    basis set group =>   3
Atom  13H    basis set group =>   2
Atom  14C    basis set group =>   1
Atom  15C    basis set group =>   1
Atom  16H    basis set group =>   2
Atom  17H    basis set group =>   2
Atom  18C    basis set group =>   1
Atom  19H    basis set group =>   2
Atom  20C    basis set group =>   1
Atom  21H    basis set group =>   2
Atom  22C    basis set group =>   1
Atom  23C    basis set group =>   1
Atom  24H    basis set group =>   2
Atom  25H    basis set group =>   2
Atom  26C    basis set group =>   1
Atom  27H    basis set group =>   2
Atom  28H    basis set group =>   2
Atom  29C    basis set group =>   1
Atom  30H    basis set group =>   2
Atom  31H    basis set group =>   2
Atom  32C    basis set group =>   1
Atom  33H    basis set group =>   2
Atom  34C    basis set group =>   1
Atom  35H    basis set group =>   2
Atom  36C    basis set group =>   1
Atom  37H    basis set group =>   2
Atom  38H    basis set group =>   2
Atom  39C    basis set group =>   1
Atom  40H    basis set group =>   2
Atom  41H    basis set group =>   2
Atom  42H    basis set group =>   2
Atom  43C    basis set group =>   1
Atom  44C    basis set group =>   1
Atom  45H    basis set group =>   2
Atom  46H    basis set group =>   2
Atom  47H    basis set group =>   2
Atom  48H    basis set group =>   2
Atom  49C    basis set group =>   1
Atom  50C    basis set group =>   1
Atom  51C    basis set group =>   1
Atom  52H    basis set group =>   2
Atom  53H    basis set group =>   2
Atom  54C    basis set group =>   1
Atom  55C    basis set group =>   1
Atom  56C    basis set group =>   1
Atom  57H    basis set group =>   2
Atom  58H    basis set group =>   2
Atom  59C    basis set group =>   1
Atom  60C    basis set group =>   1
Atom  61H    basis set group =>   2
Atom  62H    basis set group =>   2
Atom  63H    basis set group =>   2
Atom  64H    basis set group =>   2
Atom  65H    basis set group =>   2
Atom  66H    basis set group =>   2
Atom  67H    basis set group =>   2
Atom  68H    basis set group =>   2
Atom  69H    basis set group =>   2
Atom  70H    basis set group =>   2
Atom  71H    basis set group =>   2
Atom  72H    basis set group =>   2

-------------------------------------
AUXILIARY/J BASIS SET IN INPUT FORMAT
-------------------------------------

 # Auxiliary/J basis set for element : H 
 NewAuxJGTO H 
 S 3 
   1      15.6752927000      0.1007184237
   2       3.6063578000      0.3404257499
   3       1.2080016000      0.6491996172
 S 1 
   1       0.4726794000      1.0000000000
 S 1 
   1       0.2018100000      1.0000000000
 P 2 
   1       2.0281365000      0.5596620919
   2       0.5358730000      0.5596620919
 D 1 
   1       2.2165124000      1.0000000000
  end;

 # Auxiliary/J basis set for element : C 
 NewAuxJGTO C 
 S 7 
   1    1861.0916331000      0.0134602335
   2     642.9939764000      0.0299160374
   3     235.1105725000      0.1008649584
   4      90.7028894000      0.2370970548
   5      36.7794552000      0.3924037254
   6      15.6046273000      0.3195862154
   7       6.8907294000      0.0530104441
 S 1 
   1       3.1478850000     -1.0000000000
 S 1 
   1       1.4777287000      1.0000000000
 S 1 
   1       0.7076466000      1.0000000000
 S 1 
   1       0.3430122000      1.0000000000
 S 1 
   1       0.1669453000      1.0000000000
 P 2 
   1      13.5472892000     -0.6769313712
   2       5.4669419000     -0.3779500978
 P 1 
   1       2.1751721000      1.0000000000
 P 1 
   1       0.8582194000      1.0000000000
 P 1 
   1       0.3376720000      1.0000000000
 D 2 
   1       5.9287253000     -0.3533329857
   2       1.9809209000     -0.7456525731
 D 1 
   1       0.8055417000     -1.0000000000
 D 1 
   1       0.3531244000     -1.0000000000
 F 2 
   1       1.6755626000      0.6311076882
   2       0.5997536000      0.4968166032
 G 1 
   1       1.0024600000     -1.0000000000
  end;

 # Auxiliary/J basis set for element : O 
 NewAuxJGTO O 
 S 7 
   1    2876.8216605000      0.0168151159
   2    1004.7443032000      0.0340137548
   3     369.7579954000      0.1194951309
   4     142.9442404000      0.2664627624
   5      57.8366425000      0.4202764046
   6      24.3864983000      0.2765077335
   7      10.6622662000      0.0057008815
 S 1 
   1       4.8070437000     -1.0000000000
 S 1 
   1       2.2210770000      1.0000000000
 S 1 
   1       1.0447795000      1.0000000000
 S 1 
   1       0.4968425000      1.0000000000
 S 1 
   1       0.2371384000      1.0000000000
 P 2 
   1      64.2613382000     -0.2731534179
   2      16.3006076000     -0.8168011598
 P 1 
   1       4.3550542000      1.0000000000
 P 1 
   1       1.2019554000      1.0000000000
 P 1 
   1       0.3354196000      1.0000000000
 D 2 
   1       9.2146611000     -0.4661230638
   2       2.8435251000     -0.6600908911
 D 1 
   1       0.9955759000     -1.0000000000
 D 1 
   1       0.3649441000     -1.0000000000
 F 2 
   1       2.6420115000      0.5931563945
   2       0.7345613000      0.5931563945
 G 1 
   1       1.3931000000     -1.0000000000
  end;



           ************************************************************
           *        Program running with 4 parallel MPI-processes     *
           *              working on a common directory               *
           ************************************************************
------------------------------------------------------------------------------
                           ORCA GTO INTEGRAL CALCULATION
                           -- RI-GTO INTEGRALS CHOSEN --
------------------------------------------------------------------------------
------------------------------------------------------------------------------
                   ___                                                        
                  /   \      - P O W E R E D   B Y -                         
                 /     \                                                     
                 |  |  |   _    _      __       _____    __    __             
                 |  |  |  | |  | |    /  \     |  _  \  |  |  /  |          
                  \  \/   | |  | |   /    \    | | | |  |  | /  /          
                 / \  \   | |__| |  /  /\  \   | |_| |  |  |/  /          
                |  |  |   |  __  | /  /__\  \  |    /   |      \           
                |  |  |   | |  | | |   __   |  |    \   |  |\   \          
                \     /   | |  | | |  |  |  |  | |\  \  |  | \   \       
                 \___/    |_|  |_| |__|  |__|  |_| \__\ |__|  \__/        
                                                                              
                      - O R C A' S   B I G   F R I E N D -                    
                                      &                                       
                       - I N T E G R A L  F E E D E R -                       
                                                                              
 v1 FN, 2020, v2 2021                                                         
------------------------------------------------------------------------------


Reading SHARK input file inpJ.SHARKINP.tmp ... ok
----------------------
SHARK INTEGRAL PACKAGE
----------------------

Number of atoms                             ...     73
Number of basis functions                   ...    509
Number of shells                            ...    335
Maximum angular momentum                    ...      1
Integral batch strategy                     ... SHARK/LIBINT Hybrid
RI-J (if used) integral strategy            ... SPLIT-RIJ (Revised 2003 algorithm where possible)
Printlevel                                  ...      1
Contraction scheme used                     ... SEGMENTED contraction
Coulomb Range Separation                    ... NOT USED
Exchange Range Separation                   ... NOT USED
Finite Nucleus Model                        ... NOT USED
Auxiliary Coulomb fitting basis             ... AVAILABLE
   # of basis functions in Aux-J            ...   1905
   # of shells in Aux-J                     ...    655
   Maximum angular momentum in Aux-J        ...      4
Auxiliary J/K fitting basis                 ... NOT available
Auxiliary Correlation fitting basis         ... NOT available
Auxiliary 'external' fitting basis          ... NOT available
Integral threshold                          ...     3.000000e-11
Primitive cut-off                           ...     1.000000e-12
Primitive pair pre-selection threshold      ...     1.000000e-12

Calculating pre-screening integrals         ... done (  0.0 sec) Dimension = 335
Organizing shell pair data                  ... done (  0.1 sec)
Shell pair information
Total number of shell pairs                 ...     56280
Shell pairs after pre-screening             ...     21915
Total number of primitive shell pairs       ...    145865
Primitive shell pairs kept                  ...     37705
          la=0 lb=0:  11014 shell pairs
          la=1 lb=0:   9019 shell pairs
          la=1 lb=1:   1882 shell pairs

Calculating one electron integrals          ... done (  0.0 sec)
Calculating RI/J V-Matrix + Cholesky decomp.... done (  0.2 sec)
Calculating Nuclear repulsion               ... done (  0.0 sec) ENN=   2790.197660660765 Eh

SHARK setup successfully completed in   0.6 seconds

Maximum memory used throughout the entire GTOINT-calculation: 46.4 MB


           ************************************************************
           *        Program running with 4 parallel MPI-processes     *
           *              working on a common directory               *
           ************************************************************
-------------------------------------------------------------------------------
                                 ORCA SCF
-------------------------------------------------------------------------------

------------
SCF SETTINGS
------------
Hamiltonian:
 Density Functional     Method          .... DFT(GTOs)
 Exchange Functional    Exchange        .... PBE
   PBE kappa parameter   XKappa         ....  0.804000
   PBE mue parameter    XMuePBE         ....  0.219520
 Correlation Functional Correlation     .... PBE
   PBE beta parameter  CBetaPBE         ....  0.066725
 LDA part of GGA corr.  LDAOpt          .... PW91-LDA
 Gradients option       PostSCFGGA      .... off
 Hybrid DFT is turned on
   Fraction HF Exchange ScalHFX         ....  0.250000
   Scaling of DF-GGA-X  ScalDFX         ....  0.750000
   Scaling of DF-GGA-C  ScalDFC         ....  1.000000
   Scaling of DF-LDA-C  ScalLDAC        ....  1.000000
   Perturbative correction              ....  0.000000
   Density functional embedding theory  .... OFF
   NL short-range parameter             ....  6.900000
 RI-approximation to the Coulomb term is turned on
   Number of AuxJ basis functions       .... 1905
   RIJ-COSX (HFX calculated with COS-X)).... on


General Settings:
 Integral files         IntName         .... inpJ
 Hartree-Fock type      HFTyp           .... RHF
 Total Charge           Charge          ....    0
 Multiplicity           Mult            ....    1
 Number of Electrons    NEL             ....  220
 Basis Dimension        Dim             ....  509
 Nuclear Repulsion      ENuc            ....   2790.1976606608 Eh

Convergence Acceleration:
 DIIS                   CNVDIIS         .... on
   Start iteration      DIISMaxIt       ....    12
   Startup error        DIISStart       ....  0.200000
   # of expansion vecs  DIISMaxEq       ....     5
   Bias factor          DIISBfac        ....   1.050
   Max. coefficient     DIISMaxC        ....  10.000
 Trust-Rad. Augm. Hess. CNVTRAH         .... auto
   Auto Start mean grad. ratio tolernc. ....  1.125000
   Auto Start start iteration           ....    20
   Auto Start num. interpolation iter.  ....    10
   Max. Number of Micro iterations      ....    16
   Max. Number of Macro iterations      .... Maxiter - #DIIS iter
   Number of Davidson start vectors     ....     2
   Converg. threshold I  (grad. norm)   ....   1.000e-04
   Converg. threshold II (energy diff.) ....   1.000e-07
   Grad. Scal. Fac. for Micro threshold ....   0.100
   Minimum threshold for Micro iter.    ....   0.010
   NR start threshold (gradient norm)   ....   0.001
   Initial trust radius                 ....   0.400
   Minimum AH scaling param. (alpha)    ....   1.000
   Maximum AH scaling param. (alpha)    .... 1000.000
   Orbital update algorithm             .... Taylor
   White noise on init. David. guess    .... on
   Maximum white noise                  ....   0.010
   Quad. conv. algorithm                .... NR
 SOSCF                  CNVSOSCF        .... off
 Level Shifting         CNVShift        .... on
   Level shift para.    LevelShift      ....    0.2500
   Turn off err/grad.   ShiftErr        ....    0.0010
 Zerner damping         CNVZerner       .... off
 Static damping         CNVDamp         .... on
   Fraction old density DampFac         ....    0.7000
   Max. Damping (<1)    DampMax         ....    0.9800
   Min. Damping (>=0)   DampMin         ....    0.0000
   Turn off err/grad.   DampErr         ....    0.1000
 Fernandez-Rico         CNVRico         .... off

SCF Procedure:
 Maximum # iterations   MaxIter         ....   125
 SCF integral mode      SCFMode         .... Direct
   Integral package                     .... SHARK and LIBINT hybrid scheme
 Reset frequency        DirectResetFreq ....    20
 Integral Threshold     Thresh          ....  3.000e-11 Eh
 Primitive CutOff       TCut            ....  1.000e-12 Eh

Convergence Tolerance:
 Convergence Check Mode ConvCheckMode   .... Total+1el-Energy
 Convergence forced     ConvForced      .... 0
 Energy Change          TolE            ....  1.000e-07 Eh
 1-El. energy change                    ....  1.000e-04 Eh
 DIIS Error             TolErr          ....  1.000e-07


Diagonalization of the overlap matrix:
Smallest eigenvalue                        ... 7.575e-03
Time for diagonalization                   ...    0.033 sec
Threshold for overlap eigenvalues          ... 1.000e-08
Number of eigenvalues below threshold      ... 0
Time for construction of square roots      ...    0.026 sec
Total time needed                          ...    0.060 sec

Time for model grid setup =    0.730 sec

------------------------------
INITIAL GUESS: MODEL POTENTIAL
------------------------------
Loading Hartree-Fock densities                     ... done
Calculating cut-offs                               ... done
Initializing the effective Hamiltonian             ... done
Setting up the integral package (SHARK)            ... done
Starting the Coulomb interaction                   ... done (   0.3 sec)
Reading the grid                                   ... done
Mapping shells                                     ... done
Starting the XC term evaluation                    ... done (   0.1 sec)
  promolecular density results
     # of electrons  =    219.987787767
     EX              =   -164.431725500
     EC              =     -7.327029047
     EX+EC           =   -171.758754547
Transforming the Hamiltonian                       ... done (   0.0 sec)
Diagonalizing the Hamiltonian                      ... done (   0.0 sec)
Back transforming the eigenvectors                 ... done (   0.0 sec)
Now organizing SCF variables                       ... done
                      ------------------
                      INITIAL GUESS DONE (   1.3 sec)
                      ------------------
-------------------
DFT GRID GENERATION
-------------------

General Integration Accuracy     IntAcc      ... 4.388
Radial Grid Type                 RadialGrid  ... OptM3 with GC (2021)
Angular Grid (max. ang.)         AngularGrid ... 4 (Lebedev-302)
Angular grid pruning method      GridPruning ... 4 (adaptive)
Weight generation scheme         WeightScheme... Becke
Basis function cutoff            BFCut       ... 1.0000e-11
Integration weight cutoff        WCut        ... 1.0000e-14
Angular grids for H and He will be reduced by one unit
Partially contracted basis set               ... off
Rotationally invariant grid construction     ... off

Total number of grid points                  ...   309838
Total number of batches                      ...     4874
Average number of points per batch           ...       63
Average number of grid points per atom       ...     4244
Time for grid setup =    2.769 sec

--------------------
COSX GRID GENERATION
--------------------

GRIDX 1
-------
General Integration Accuracy     IntAcc      ... 3.816
Radial Grid Type                 RadialGrid  ... OptM3 with GC (2021)
Angular Grid (max. ang.)         AngularGrid ... 1 (Lebedev-50)
Angular grid pruning method      GridPruning ... 4 (adaptive)
Weight generation scheme         WeightScheme... Becke
Basis function cutoff            BFCut       ... 1.0000e-11
Integration weight cutoff        WCut        ... 1.0000e-14
Angular grids for H and He will be reduced by one unit
Partially contracted basis set               ... on
Rotationally invariant grid construction     ... off

Total number of grid points                  ...    39392
Total number of batches                      ...      653
Average number of points per batch           ...       60
Average number of grid points per atom       ...      540
UseSFitting                                  ... on

GRIDX 2
-------
General Integration Accuracy     IntAcc      ... 4.020
Radial Grid Type                 RadialGrid  ... OptM3 with GC (2021)
Angular Grid (max. ang.)         AngularGrid ... 2 (Lebedev-110)
Angular grid pruning method      GridPruning ... 4 (adaptive)
Weight generation scheme         WeightScheme... Becke
Basis function cutoff            BFCut       ... 1.0000e-11
Integration weight cutoff        WCut        ... 1.0000e-14
Angular grids for H and He will be reduced by one unit
Partially contracted basis set               ... on
Rotationally invariant grid construction     ... off

Total number of grid points                  ...    81375
Total number of batches                      ...     1310
Average number of points per batch           ...       62
Average number of grid points per atom       ...     1115
UseSFitting                                  ... on

GRIDX 3
-------
General Integration Accuracy     IntAcc      ... 4.338
Radial Grid Type                 RadialGrid  ... OptM3 with GC (2021)
Angular Grid (max. ang.)         AngularGrid ... 3 (Lebedev-194)
Angular grid pruning method      GridPruning ... 4 (adaptive)
Weight generation scheme         WeightScheme... Becke
Basis function cutoff            BFCut       ... 1.0000e-11
Integration weight cutoff        WCut        ... 1.0000e-14
Angular grids for H and He will be reduced by one unit
Partially contracted basis set               ... on
Rotationally invariant grid construction     ... off

Total number of grid points                  ...   176154
Total number of batches                      ...     2785
Average number of points per batch           ...       63
Average number of grid points per atom       ...     2413
UseSFitting                                  ... on

Time for X-Grid setup             =    3.536 sec


--------------------
CPCM SOLVATION MODEL
--------------------
CPCM parameters:
  Epsilon                                         ...       4.9000
  Refrac                                          ...       1.4500
  Rsolv                                           ...       1.3000
  Surface type                                    ... GAUSSIAN VDW
  Epsilon function type                           ...         CPCM
Radii:
 Radius for C  used is    3.8550 Bohr (=   2.0400 Ang.)
 Radius for H  used is    2.4944 Bohr (=   1.3200 Ang.)
 Radius for O  used is    3.4469 Bohr (=   1.8240 Ang.)
Calculating surface                               ...        done! (  0.0s)
GEPOL surface points                              ...         3630
GEPOL Volume                                      ...    3598.2823
GEPOL Surface-area                                ...    1776.6146
Calculating surface distance matrix               ...        done! (  0.1s)
Performing Cholesky decomposition & store         ...        done! (  0.6s)
Overall time for CPCM initialization              ...                 0.7s
--------------
SCF ITERATIONS
--------------
ITER       Energy         Delta-E        Max-DP      RMS-DP      [F,P]     Damp
               ***  Starting incremental Fock matrix formation  ***

  HOMO= 109 E= -3.975 eV LUMO=  7.703 eV gap=  11.678 eV
  0  -1165.0108586226   0.000000000000 0.09750103  0.00106365  0.1967098 0.7000

  HOMO= 109 E= -4.841 eV LUMO=  7.019 eV gap=  11.860 eV
  1  -1165.2294151258  -0.218556503128 0.06536480  0.00078334  0.0952536 0.7000
                               ***Turning on DIIS***

  HOMO= 109 E= -5.440 eV LUMO=  6.470 eV gap=  11.910 eV
  2  -1165.3301780330  -0.100762907183 0.10334469  0.00138713  0.0375579 0.0000

  HOMO= 109 E= -5.998 eV LUMO=  5.940 eV gap=  11.938 eV
  3  -1165.4743588222  -0.144180789222 0.05162799  0.00057238  0.0460660 0.0000

  HOMO= 109 E= -6.067 eV LUMO=  5.870 eV gap=  11.937 eV
  4  -1165.5098512714  -0.035492449250 0.01160613  0.00013473  0.0058952 0.0000

  HOMO= 109 E= -6.017 eV LUMO=  5.927 eV gap=  11.944 eV
  5  -1165.5107119470  -0.000860675572 0.00249727  0.00003799  0.0051723 0.0000

  HOMO= 109 E= -6.003 eV LUMO=  5.941 eV gap=  11.945 eV
  6  -1165.5107927300  -0.000080782948 0.00116300  0.00001171  0.0010444 0.0000

  HOMO= 109 E= -6.005 eV LUMO= -0.863 eV gap=   5.142 eV
  7  -1165.5107979199  -0.000005189962 0.00051456  0.00000604  0.0002384 0.0000
               *** Restarting incremental Fock matrix formation ***
                                   *** Resetting DIIS ***

  HOMO= 109 E= -6.004 eV LUMO= -0.862 eV gap=   5.143 eV
  8  -1165.5108535956  -0.000055675678 0.00036724  0.00000292  0.0001208 0.0000

  HOMO= 109 E= -6.004 eV LUMO= -0.862 eV gap=   5.143 eV
  9  -1165.5108536376  -0.000000041959 0.00014200  0.00000130  0.0001645 0.0000

  HOMO= 109 E= -6.005 eV LUMO= -0.862 eV gap=   5.143 eV
 10  -1165.5108537720  -0.000000134463 0.00006579  0.00000041  0.0000340 0.0000

  HOMO= 109 E= -6.005 eV LUMO= -0.862 eV gap=   5.143 eV
 11  -1165.5108538003  -0.000000028255 0.00002639  0.00000018  0.0000197 0.0000

  HOMO= 109 E= -6.005 eV LUMO= -0.862 eV gap=   5.143 eV
 12  -1165.5108537879   0.000000012343 0.00000752  0.00000005  0.0000037 0.0000
                 **** Energy Check signals convergence ****

               *****************************************************
               *                     SUCCESS                       *
               *           SCF CONVERGED AFTER  13 CYCLES          *
               *****************************************************

Old exchange energy                            =    -42.067033744 Eh
New exchange energy                            =    -42.067047187 Eh
Exchange energy change after final integration =     -0.000013443 Eh
Total energy after final integration           =  -1165.510867233 Eh
Final COS-X integration done in                =    13.336 sec

----------------
TOTAL SCF ENERGY
----------------

Total Energy       :        -1165.51086723 Eh          -31715.16307 eV

Components:
Nuclear Repulsion  :         2790.19766066 Eh           75925.13831 eV
Electronic Energy  :        -3955.70852789 Eh         -107640.30137 eV
One Electron Energy:        -7122.14241253 Eh         -193803.34782 eV
Two Electron Energy:         3166.43388464 Eh           86163.04645 eV
Max COSX asymmetry :            0.00000275 Eh               0.00007 eV
CPCM Dielectric    :           -0.01345019 Eh              -0.36600 eV

Virial components:
Potential Energy   :        -2322.40105650 Eh          -63195.74556 eV
Kinetic Energy     :         1156.89018927 Eh           31480.58249 eV
Virial Ratio       :            2.00745160


DFT components:
N(Alpha)           :      110.000131284091 electrons
N(Beta)            :      110.000131284091 electrons
N(Total)           :      220.000262568182 electrons
E(X)               :     -125.743800830005 Eh       
E(C)               :       -7.327954379655 Eh       
E(XC)              :     -133.071755209659 Eh       
DFET-embed. en.    :        0.000000000000 Eh       
CPCM Solvation Model Properties:
Surface-charge          :           -0.03461109
Charge-correction       :           -0.00008603 Eh              -0.00234 eV
Free-energy (cav+disp)  :  This term is not implemented in the current solvation scheme

---------------
SCF CONVERGENCE
---------------

  Last Energy change         ...   -2.3376e-09  Tolerance :   1.0000e-07
  Last MAX-Density change    ...    0.0000e+00  Tolerance :   1.0000e-05
  Last RMS-Density change    ...    0.0000e+00  Tolerance :   1.0000e-06
  Last DIIS Error            ...    2.3851e-06  Tolerance :   1.0000e-07

             **** THE GBW FILE WAS UPDATED (inpJ.gbw) ****
             **** DENSITY inpJ.scfp WAS UPDATED ****
             **** ENERGY FILE WAS UPDATED (inpJ.en.tmp) ****
             **** THE GBW FILE WAS UPDATED (inpJ.gbw) ****
             **** DENSITY inpJ.scfp WAS UPDATED ****
----------------
ORBITAL ENERGIES
----------------

  NO   OCC          E(Eh)            E(eV) 
   0   2.0000     -19.212413      -522.7963 
   1   2.0000     -10.300381      -280.2876 
   2   2.0000     -10.270349      -279.4704 
   3   2.0000     -10.268172      -279.4112 
   4   2.0000     -10.263548      -279.2853 
   5   2.0000     -10.257347      -279.1166 
   6   2.0000     -10.256984      -279.1067 
   7   2.0000     -10.252039      -278.9722 
   8   2.0000     -10.250136      -278.9204 
   9   2.0000     -10.248033      -278.8632 
  10   2.0000     -10.247766      -278.8559 
  11   2.0000     -10.247531      -278.8495 
  12   2.0000     -10.246170      -278.8125 
  13   2.0000     -10.245198      -278.7860 
  14   2.0000     -10.245032      -278.7815 
  15   2.0000     -10.244534      -278.7679 
  16   2.0000     -10.243011      -278.7265 
  17   2.0000     -10.242774      -278.7200 
  18   2.0000     -10.241690      -278.6905 
  19   2.0000     -10.241341      -278.6811 
  20   2.0000     -10.240079      -278.6467 
  21   2.0000     -10.234466      -278.4940 
  22   2.0000     -10.234189      -278.4864 
  23   2.0000     -10.232930      -278.4522 
  24   2.0000     -10.227653      -278.3086 
  25   2.0000     -10.226019      -278.2641 
  26   2.0000     -10.224316      -278.2178 
  27   2.0000     -10.221691      -278.1464 
  28   2.0000     -10.220809      -278.1224 
  29   2.0000      -1.043172       -28.3861 
  30   2.0000      -0.901401       -24.5284 
  31   2.0000      -0.882023       -24.0011 
  32   2.0000      -0.860672       -23.4201 
  33   2.0000      -0.846210       -23.0265 
  34   2.0000      -0.822377       -22.3780 
  35   2.0000      -0.814166       -22.1546 
  36   2.0000      -0.795793       -21.6546 
  37   2.0000      -0.794954       -21.6318 
  38   2.0000      -0.777216       -21.1491 
  39   2.0000      -0.758347       -20.6357 
  40   2.0000      -0.742024       -20.1915 
  41   2.0000      -0.736413       -20.0388 
  42   2.0000      -0.714906       -19.4536 
  43   2.0000      -0.702783       -19.1237 
  44   2.0000      -0.699957       -19.0468 
  45   2.0000      -0.695441       -18.9239 
  46   2.0000      -0.670628       -18.2487 
  47   2.0000      -0.657087       -17.8803 
  48   2.0000      -0.629258       -17.1230 
  49   2.0000      -0.622041       -16.9266 
  50   2.0000      -0.612146       -16.6573 
  51   2.0000      -0.606019       -16.4906 
  52   2.0000      -0.597008       -16.2454 
  53   2.0000      -0.592725       -16.1289 
  54   2.0000      -0.557383       -15.1672 
  55   2.0000      -0.550668       -14.9844 
  56   2.0000      -0.539393       -14.6776 
  57   2.0000      -0.529331       -14.4038 
  58   2.0000      -0.515271       -14.0212 
  59   2.0000      -0.508955       -13.8494 
  60   2.0000      -0.498073       -13.5533 
  61   2.0000      -0.490116       -13.3367 
  62   2.0000      -0.487087       -13.2543 
  63   2.0000      -0.480971       -13.0879 
  64   2.0000      -0.473556       -12.8861 
  65   2.0000      -0.466877       -12.7044 
  66   2.0000      -0.464033       -12.6270 
  67   2.0000      -0.459245       -12.4967 
  68   2.0000      -0.457601       -12.4519 
  69   2.0000      -0.450476       -12.2581 
  70   2.0000      -0.445412       -12.1203 
  71   2.0000      -0.438945       -11.9443 
  72   2.0000      -0.436001       -11.8642 
  73   2.0000      -0.434908       -11.8344 
  74   2.0000      -0.432155       -11.7595 
  75   2.0000      -0.423173       -11.5151 
  76   2.0000      -0.420893       -11.4531 
  77   2.0000      -0.413847       -11.2614 
  78   2.0000      -0.410949       -11.1825 
  79   2.0000      -0.402866       -10.9625 
  80   2.0000      -0.401389       -10.9224 
  81   2.0000      -0.395917       -10.7734 
  82   2.0000      -0.394074       -10.7233 
  83   2.0000      -0.391223       -10.6457 
  84   2.0000      -0.389664       -10.6033 
  85   2.0000      -0.381045       -10.3688 
  86   2.0000      -0.375464       -10.2169 
  87   2.0000      -0.373645       -10.1674 
  88   2.0000      -0.369409       -10.0521 
  89   2.0000      -0.364635        -9.9222 
  90   2.0000      -0.360527        -9.8104 
  91   2.0000      -0.358550        -9.7566 
  92   2.0000      -0.352820        -9.6007 
  93   2.0000      -0.344384        -9.3712 
  94   2.0000      -0.341245        -9.2858 
  95   2.0000      -0.340831        -9.2745 
  96   2.0000      -0.338391        -9.2081 
  97   2.0000      -0.334665        -9.1067 
  98   2.0000      -0.332561        -9.0494 
  99   2.0000      -0.329598        -8.9688 
 100   2.0000      -0.327494        -8.9116 
 101   2.0000      -0.319148        -8.6845 
 102   2.0000      -0.318613        -8.6699 
 103   2.0000      -0.316546        -8.6137 
 104   2.0000      -0.310563        -8.4508 
 105   2.0000      -0.301069        -8.1925 
 106   2.0000      -0.276604        -7.5268 
 107   2.0000      -0.275114        -7.4862 
 108   2.0000      -0.256769        -6.9870 
 109   2.0000      -0.220662        -6.0045 
 110   0.0000      -0.031665        -0.8617 
 111   0.0000       0.019573         0.5326 
 112   0.0000       0.028168         0.7665 
 113   0.0000       0.079844         2.1727 
 114   0.0000       0.087500         2.3810 
 115   0.0000       0.099821         2.7163 
 116   0.0000       0.104015         2.8304 
 117   0.0000       0.107470         2.9244 
 118   0.0000       0.111785         3.0418 
 119   0.0000       0.115893         3.1536 
 120   0.0000       0.117735         3.2037 
 121   0.0000       0.122392         3.3305 
 122   0.0000       0.125475         3.4143 
 123   0.0000       0.127339         3.4651 
 124   0.0000       0.135383         3.6840 
 125   0.0000       0.137240         3.7345 
 126   0.0000       0.137818         3.7502 
 127   0.0000       0.141556         3.8519 
 128   0.0000       0.148667         4.0454 
 129   0.0000       0.151378         4.1192 
 130   0.0000       0.155427         4.2294 
 131   0.0000       0.157057         4.2737 
 132   0.0000       0.158110         4.3024 
 133   0.0000       0.164240         4.4692 
 134   0.0000       0.170922         4.6510 
 135   0.0000       0.171367         4.6631 
 136   0.0000       0.174766         4.7556 
 137   0.0000       0.175891         4.7862 
 138   0.0000       0.177921         4.8415 
 139   0.0000       0.179046         4.8721 
 140   0.0000       0.182279         4.9601 
 141   0.0000       0.183958         5.0058 
 142   0.0000       0.187439         5.1005 
 143   0.0000       0.188214         5.1216 
 144   0.0000       0.194902         5.3035 
 145   0.0000       0.197753         5.3811 
 146   0.0000       0.199888         5.4392 
 147   0.0000       0.200657         5.4602 
 148   0.0000       0.203979         5.5505 
 149   0.0000       0.204687         5.5698 
 150   0.0000       0.209184         5.6922 
 151   0.0000       0.216301         5.8859 
 152   0.0000       0.219663         5.9773 
 153   0.0000       0.230094         6.2612 
 154   0.0000       0.232460         6.3256 
 155   0.0000       0.237099         6.4518 
 156   0.0000       0.238935         6.5018 
 157   0.0000       0.245760         6.6875 
 158   0.0000       0.248915         6.7733 
 159   0.0000       0.251523         6.8443 
 160   0.0000       0.259431         7.0595 
 161   0.0000       0.260880         7.0989 
 162   0.0000       0.263596         7.1728 
 163   0.0000       0.266364         7.2481 
 164   0.0000       0.270322         7.3558 
 165   0.0000       0.277094         7.5401 
 166   0.0000       0.278432         7.5765 
 167   0.0000       0.282543         7.6884 
 168   0.0000       0.286860         7.8059 
 169   0.0000       0.294510         8.0140 
 170   0.0000       0.297257         8.0888 
 171   0.0000       0.299088         8.1386 
 172   0.0000       0.302401         8.2288 
 173   0.0000       0.307527         8.3682 
 174   0.0000       0.314583         8.5602 
 175   0.0000       0.319332         8.6895 
 176   0.0000       0.325684         8.8623 
 177   0.0000       0.337523         9.1845 
 178   0.0000       0.348188         9.4747 
 179   0.0000       0.357766         9.7353 
 180   0.0000       0.364326         9.9138 
 181   0.0000       0.375098        10.2069 
 182   0.0000       0.380184        10.3453 
 183   0.0000       0.404738        11.0135 
 184   0.0000       0.421280        11.4636 
 185   0.0000       0.462492        12.5851 
 186   0.0000       0.481944        13.1144 
 187   0.0000       0.488531        13.2936 
 188   0.0000       0.511200        13.9105 
 189   0.0000       0.516619        14.0579 
 190   0.0000       0.522916        14.2293 
 191   0.0000       0.546596        14.8736 
 192   0.0000       0.551470        15.0063 
 193   0.0000       0.557897        15.1811 
 194   0.0000       0.560158        15.2427 
 195   0.0000       0.570835        15.5332 
 196   0.0000       0.573061        15.5938 
 197   0.0000       0.580262        15.7897 
 198   0.0000       0.584880        15.9154 
 199   0.0000       0.592222        16.1152 
 200   0.0000       0.607054        16.5188 
 201   0.0000       0.616841        16.7851 
 202   0.0000       0.624200        16.9853 
 203   0.0000       0.628015        17.0892 
 204   0.0000       0.632505        17.2113 
 205   0.0000       0.643389        17.5075 
 206   0.0000       0.647855        17.6290 
 207   0.0000       0.658527        17.9194 
 208   0.0000       0.668370        18.1873 
 209   0.0000       0.669229        18.2107 
 210   0.0000       0.676138        18.3986 
 211   0.0000       0.687793        18.7158 
 212   0.0000       0.691619        18.8199 
 213   0.0000       0.701538        19.0898 
 214   0.0000       0.706687        19.2299 
 215   0.0000       0.711836        19.3700 
 216   0.0000       0.712933        19.3999 
 217   0.0000       0.715321        19.4649 
 218   0.0000       0.722332        19.6556 
 219   0.0000       0.725779        19.7495 
 220   0.0000       0.730349        19.8738 
 221   0.0000       0.731685        19.9102 
 222   0.0000       0.733780        19.9672 
 223   0.0000       0.740707        20.1557 
 224   0.0000       0.745482        20.2856 
 225   0.0000       0.749442        20.3934 
 226   0.0000       0.752830        20.4856 
 227   0.0000       0.760495        20.6941 
 228   0.0000       0.762532        20.7495 
 229   0.0000       0.767139        20.8749 
 230   0.0000       0.770083        20.9550 
 231   0.0000       0.772829        21.0298 
 232   0.0000       0.779692        21.2165 
 233   0.0000       0.781464        21.2647 
 234   0.0000       0.789802        21.4916 
 235   0.0000       0.794428        21.6175 
 236   0.0000       0.798093        21.7172 
 237   0.0000       0.801246        21.8030 
 238   0.0000       0.811903        22.0930 
 239   0.0000       0.816294        22.2125 
 240   0.0000       0.823622        22.4119 
 241   0.0000       0.831011        22.6130 
 242   0.0000       0.843537        22.9538 
 243   0.0000       0.846517        23.0349 
 244   0.0000       0.850113        23.1327 
 245   0.0000       0.854820        23.2608 
 246   0.0000       0.856834        23.3156 
 247   0.0000       0.860587        23.4178 
 248   0.0000       0.866924        23.5902 
 249   0.0000       0.870706        23.6931 
 250   0.0000       0.872226        23.7345 
 251   0.0000       0.874933        23.8081 
 252   0.0000       0.876854        23.8604 
 253   0.0000       0.878608        23.9082 
 254   0.0000       0.881974        23.9997 
 255   0.0000       0.886978        24.1359 
 256   0.0000       0.887401        24.1474 
 257   0.0000       0.891814        24.2675 
 258   0.0000       0.895848        24.3773 
 259   0.0000       0.899273        24.4705 
 260   0.0000       0.902489        24.5580 
 261   0.0000       0.903467        24.5846 
 262   0.0000       0.909772        24.7561 
 263   0.0000       0.911798        24.8113 
 264   0.0000       0.914404        24.8822 
 265   0.0000       0.923075        25.1182 
 266   0.0000       0.925534        25.1851 
 267   0.0000       0.929239        25.2859 
 268   0.0000       0.934051        25.4168 
 269   0.0000       0.936521        25.4840 
 270   0.0000       0.940719        25.5983 
 271   0.0000       0.946812        25.7641 
 272   0.0000       0.952025        25.9059 
 273   0.0000       0.955748        26.0072 
 274   0.0000       0.962248        26.1841 
 275   0.0000       0.965399        26.2698 
 276   0.0000       0.970019        26.3956 
 277   0.0000       0.973553        26.4917 
 278   0.0000       0.978800        26.6345 
 279   0.0000       0.982619        26.7384 
 280   0.0000       0.983961        26.7749 
 281   0.0000       0.993561        27.0362 
 282   0.0000       1.005606        27.3639 
 283   0.0000       1.011975        27.5373 
 284   0.0000       1.017126        27.6774 
 285   0.0000       1.026716        27.9384 
 286   0.0000       1.034563        28.1519 
 287   0.0000       1.046248        28.4699 
 288   0.0000       1.059216        28.8227 
 289   0.0000       1.064137        28.9566 
 290   0.0000       1.072013        29.1710 
 291   0.0000       1.080104        29.3911 
 292   0.0000       1.083765        29.4907 
 293   0.0000       1.104755        30.0619 
 294   0.0000       1.116344        30.3773 
 295   0.0000       1.125040        30.6139 
 296   0.0000       1.134058        30.8593 
 297   0.0000       1.136979        30.9388 
 298   0.0000       1.146659        31.2022 
 299   0.0000       1.155293        31.4371 
 300   0.0000       1.168014        31.7833 
 301   0.0000       1.180846        32.1324 
 302   0.0000       1.195748        32.5379 
 303   0.0000       1.203498        32.7488 
 304   0.0000       1.231866        33.5208 
 305   0.0000       1.236490        33.6466 
 306   0.0000       1.242210        33.8022 
 307   0.0000       1.246201        33.9109 
 308   0.0000       1.269218        34.5372 
 309   0.0000       1.302325        35.4381 
 310   0.0000       1.326719        36.1018 
 311   0.0000       1.334284        36.3077 
 312   0.0000       1.367824        37.2204 
 313   0.0000       1.380057        37.5533 
 314   0.0000       1.410383        38.3785 
 315   0.0000       1.511093        41.1189 
 316   0.0000       1.527286        41.5596 
 317   0.0000       1.569909        42.7194 
 318   0.0000       1.591490        43.3066 
 319   0.0000       1.675076        45.5811 
 320   0.0000       6.202202       168.7705 
 321   0.0000       6.232140       169.5852 
 322   0.0000       6.263123       170.4282 
 323   0.0000       6.276104       170.7815 
 324   0.0000       6.284029       170.9971 
 325   0.0000       6.291185       171.1919 
 326   0.0000       6.300665       171.4498 
 327   0.0000       6.316207       171.8727 
 328   0.0000       6.322965       172.0566 
 329   0.0000       6.328812       172.2157 
 330   0.0000       6.339794       172.5146 
 331   0.0000       6.351147       172.8235 
 332   0.0000       6.358777       173.0311 
 333   0.0000       6.381025       173.6365 
 334   0.0000       6.385437       173.7566 
 335   0.0000       6.392156       173.9394 
 336   0.0000       6.406796       174.3378 
 337   0.0000       6.408971       174.3970 
 338   0.0000       6.416515       174.6023 
 339   0.0000       6.422047       174.7528 
 340   0.0000       6.425259       174.8402 
 341   0.0000       6.443720       175.3425 
 342   0.0000       6.454048       175.6236 
 343   0.0000       6.461590       175.8288 
 344   0.0000       6.467638       175.9934 
 345   0.0000       6.482831       176.4068 
 346   0.0000       6.486477       176.5060 
 347   0.0000       6.498900       176.8440 
 348   0.0000       6.512947       177.2263 
 349   0.0000       6.518988       177.3907 
 350   0.0000       6.526450       177.5937 
 351   0.0000       6.533403       177.7829 
 352   0.0000       6.537553       177.8959 
 353   0.0000       6.545655       178.1163 
 354   0.0000       6.547678       178.1714 
 355   0.0000       6.549766       178.2282 
 356   0.0000       6.556529       178.4122 
 357   0.0000       6.562940       178.5867 
 358   0.0000       6.570610       178.7954 
 359   0.0000       6.576587       178.9580 
 360   0.0000       6.577480       178.9823 
 361   0.0000       6.583060       179.1342 
 362   0.0000       6.585907       179.2116 
 363   0.0000       6.593793       179.4262 
 364   0.0000       6.598481       179.5538 
 365   0.0000       6.606354       179.7680 
 366   0.0000       6.609125       179.8434 
 367   0.0000       6.615042       180.0044 
 368   0.0000       6.617167       180.0623 
 369   0.0000       6.620103       180.1422 
 370   0.0000       6.627142       180.3337 
 371   0.0000       6.629352       180.3939 
 372   0.0000       6.633061       180.4948 
 373   0.0000       6.636234       180.5811 
 374   0.0000       6.640753       180.7041 
[...]
     69 H        0.000      0.000      0.000      0.000      0.000      0.000
     70 H        0.000      0.000      0.000     -0.000      0.001      0.021
     71 H        0.000      0.000      0.000      0.000      0.001      0.009
     72 H        0.000      0.000      0.000      0.000      0.002      0.035
                 25 H       27 H       28 H       30 H       31 H       33 H  
      3 H        0.074     -0.003      0.002      0.000      0.000      0.090
      4 H        2.265     -0.109      0.070      0.000      0.000      2.552
      8 H        0.115      0.000      0.000      0.000      0.000      0.108
      9 H       -0.258      0.014      0.000      0.000      0.000     -0.309
     10 H        0.000      0.000      0.000      0.000      0.000      0.000
     11 H        0.000      0.000      0.000      0.000      0.000      0.000
     13 H       -0.037      0.000      0.000      0.000      0.000      0.000
     16 H       -0.259      0.014     -0.005     -0.032     -0.002     -0.306
     17 H       -0.243      0.013      0.000      0.000      0.000     -0.304
     19 H        0.926     -0.046      0.079      0.065      0.005      0.979
     21 H       -2.806      0.192      0.665     -0.231     -0.027     -2.379
     24 H      -13.306      4.281      2.389      0.650     -0.492     -0.135
     25 H        0.000     12.975      5.147     -0.631     -0.357     -2.121
     27 H       12.975      0.000    -13.568      4.000     12.988      0.061
     28 H        5.147    -13.568      0.000      2.622      4.130      0.287
     30 H       -0.631      4.000      2.622      0.000    -12.985      0.029
     31 H       -0.357     12.988      4.130    -12.985      0.000     -0.321
     33 H       -2.121      0.061      0.287      0.029     -0.321      0.000
     35 H       -0.026      0.001     -0.001      0.000      0.000     -0.034
     37 H        0.274      0.004     -0.035      0.518     -0.036      6.408
     38 H        0.167      0.001     -0.028     -0.014      0.125     12.216
     40 H       -0.013      0.020      0.142     -0.002     -0.033     -0.248
     41 H        0.009      0.021     -0.026      0.013      0.081     -0.424
     42 H       -0.018      0.012     -0.011     -0.260     -0.377     -0.209
     45 H       -0.060     -0.118     -0.145     -0.149      1.820     -0.481
     46 H       -0.015     -0.217      0.006     -0.210     -0.487     -0.211
     47 H        0.013      0.050      0.064     -0.341      0.025      0.862
     48 H       -0.013      0.031      0.021      0.028      0.010      0.004
     52 H        0.001      0.001      0.001     -0.003      0.001      0.003
     53 H        0.000     -0.000      0.000      0.001     -0.002     -0.003
     57 H        0.000      0.000      0.000     -0.000      0.002      0.004
     58 H        0.000      0.000      0.000     -0.000      0.000      0.000
     61 H        0.000      0.000      0.000      0.000     -0.000      0.000
     62 H        0.000      0.000      0.000      0.000      0.000      0.000
     63 H        0.000      0.000      0.000     -0.000      0.000      0.000
     64 H        0.000      0.000      0.000     -0.000      0.000      0.000
     65 H        0.000      0.000      0.000      0.000     -0.000      0.000
     66 H        0.000      0.000      0.000      0.000      0.000      0.000
     67 H        0.000      0.000      0.000      0.000      0.000      0.000
     68 H        0.000      0.000      0.000      0.000      0.000      0.000
     69 H        0.000      0.000      0.000      0.000      0.000      0.000
     70 H        0.004     -0.010     -0.009     -0.438     -0.078      0.004
     71 H        0.000     -0.001     -0.003      0.074      0.013     -0.001
     72 H        0.000     -0.010     -0.011      0.086     -0.044      0.003
                 35 H       37 H       38 H       40 H       41 H       42 H  
      3 H       -0.268     -0.001     -0.001      0.000      0.000      0.000
      4 H       -0.646     -0.044     -0.014      0.000      0.000      0.000
      8 H       -0.031     -0.002     -0.002      0.000     -0.000      0.000
      9 H       -0.150      0.005      0.002      0.000      0.001      0.000
     10 H       -0.398     -0.000     -0.000      0.000      0.000      0.000
     11 H       -0.142     -0.002     -0.000      0.000      0.000      0.000
     13 H       12.466      0.000      0.000      0.000      0.000      0.000
     16 H       -0.003      0.004      0.003      0.001      0.001     -0.001
     17 H       -0.002      0.005      0.004     -0.000      0.001      0.000
     19 H        0.045     -0.018      0.080      0.014     -0.005      0.004
     21 H       -0.015      0.060     -0.562     -0.011      0.062     -0.024
     24 H       -0.001     -0.056     -0.081     -0.020      0.069     -0.024
     25 H       -0.026      0.274      0.167     -0.013      0.009     -0.018
     27 H        0.001      0.004      0.001      0.020      0.021      0.012
     28 H       -0.001     -0.035     -0.028      0.142     -0.026     -0.011
     30 H        0.000      0.518     -0.014     -0.002      0.013     -0.260
     31 H        0.000     -0.036      0.125     -0.033      0.081     -0.377
     33 H       -0.034      6.408     12.216     -0.248     -0.424     -0.209
     35 H        0.000      0.000     -0.000      0.000      0.000      0.000
     37 H        0.000      0.000    -12.255      9.433      2.528     -0.260
     38 H       -0.000    -12.255      0.000      6.806     11.529     -0.465
     40 H        0.000      9.433      6.806      0.000    -13.823      9.600
     41 H        0.000      2.528     11.529    -13.823      0.000      8.513
     42 H        0.000     -0.260     -0.465      9.600      8.513      0.000
     45 H       -0.000      0.072     -0.063     -0.107     -0.054     -0.077
     46 H        0.000      0.061      0.036     -0.083      0.009      1.125
     47 H        0.000     -0.172      0.011      0.051      0.042     -0.407
     48 H        0.000      0.099     -0.008     -0.199     -0.426     10.329
     52 H        0.000     -0.000      0.003      0.086     -0.014     -0.295
     53 H        0.000      0.003      0.006     -0.120      0.016      0.073
     57 H        0.000     -0.004     -0.002      0.082     -0.010     -0.039
     58 H        0.000      0.001      0.001     -0.001      0.000     -0.002
     61 H        0.000      0.000      0.000     -0.006      0.001      0.002
     62 H        0.000      0.000      0.000      0.033     -0.002     -0.010
     63 H        0.000      0.000     -0.000      0.001      0.000     -0.000
     64 H        0.000     -0.002     -0.006     -0.174      0.002     -0.000
     65 H        0.000     -0.001     -0.002     -0.018      0.001     -0.001
     66 H        0.000     -0.002     -0.003     -0.017      0.003      0.001
     67 H        0.000      0.000      0.000     -0.002     -0.001     -0.000
     68 H        0.000      0.000      0.000     -0.001      0.001     -0.002
     69 H        0.000      0.000      0.000      0.001      0.000     -0.001
     70 H        0.000     -0.006      0.004      0.086      0.022     -0.195
     71 H        0.000     -0.020      0.036      0.028     -0.054     -0.343
     72 H        0.000      0.068      0.007     -0.022      0.004     -0.438
                 45 H       46 H       47 H       48 H       52 H       53 H  
      3 H        0.001     -0.000     -0.001      0.000      0.000      0.000
      4 H        0.027     -0.018     -0.018      0.000      0.000      0.000
      8 H        0.001     -0.001      0.000      0.000      0.000      0.000
      9 H       -0.003      0.003      0.000      0.000      0.000      0.000
     10 H        0.000     -0.000      0.000      0.000      0.000      0.000
     11 H        0.000      0.000      0.000      0.000      0.000      0.000
     13 H        0.000      0.000      0.000      0.000      0.000      0.000
     16 H       -0.003      0.000      0.002     -0.002      0.000      0.000
     17 H       -0.004     -0.000      0.001     -0.002      0.000      0.000
     19 H        0.010     -0.011     -0.008      0.005      0.000      0.000
     21 H       -0.019      0.042      0.011     -0.015      0.002     -0.001
     24 H       -0.022     -0.023     -0.015      0.002      0.000      0.000
     25 H       -0.060     -0.015      0.013     -0.013      0.001      0.000
     27 H       -0.118     -0.217      0.050      0.031      0.001     -0.000
     28 H       -0.145      0.006      0.064      0.021      0.001      0.000
     30 H       -0.149     -0.210     -0.341      0.028     -0.003      0.001
     31 H        1.820     -0.487      0.025      0.010      0.001     -0.002
     33 H       -0.481     -0.211      0.862      0.004      0.003     -0.003
     35 H       -0.000      0.000      0.000      0.000      0.000      0.000
     37 H        0.072      0.061     -0.172      0.099     -0.000      0.003
     38 H       -0.063      0.036      0.011     -0.008      0.003      0.006
     40 H       -0.107     -0.083      0.051     -0.199      0.086     -0.120
     41 H       -0.054      0.009      0.042     -0.426     -0.014      0.016
     42 H       -0.077      1.125     -0.407     10.329     -0.295      0.073
     45 H        0.000    -13.576    -13.071     -0.171      0.072     -0.002
     46 H      -13.576      0.000    -12.919     -0.099      0.243     -0.001
     47 H      -13.071    -12.919      0.000     -0.045      0.074     -0.002
     48 H       -0.171     -0.099     -0.045      0.000      9.650     -0.662
     52 H        0.072      0.243      0.074      9.650      0.000     16.789
     53 H       -0.002     -0.001     -0.002     -0.662     16.789      0.000
     57 H        0.002      0.000      0.001      0.086     -2.070      5.457
     58 H        0.001      0.000      0.000      0.059     -0.449     -0.576
     61 H       -0.000      0.000     -0.000     -0.005      0.145     -0.242
     62 H        0.000      0.000      0.000      0.041     -0.403      0.036
     63 H       -0.000      0.000     -0.000      0.006     -0.034     -0.198
     64 H       -0.000      0.000      0.000      0.001     -0.118      0.069
     65 H       -0.000      0.000      0.000     -0.000      0.004      0.018
     66 H        0.000      0.000      0.000     -0.001      0.011      0.080
     67 H        0.000      0.000      0.000     -0.001      0.005      0.032
     68 H        0.000      0.000      0.000     -0.005      0.040      0.812
     69 H        0.000      0.000      0.000      0.012      0.061      0.076
     70 H       -0.019     -0.050     -0.204      4.418     -0.071     -0.412
     71 H        0.033     -0.032     -0.037     12.673     -0.268      0.097
     72 H       -0.012     -0.028     -0.016      2.351     -0.154      0.105
                 57 H       58 H       61 H       62 H       63 H       64 H  
      3 H        0.000      0.000      0.000      0.000      0.000      0.000
      4 H        0.000      0.000      0.000      0.000      0.000      0.000
      8 H        0.000      0.000      0.000      0.000      0.000      0.000
      9 H        0.000      0.000      0.000      0.000      0.000      0.000
     10 H        0.000      0.000      0.000      0.000      0.000      0.000
     11 H        0.000      0.000      0.000      0.000      0.000      0.000
     13 H        0.000      0.000      0.000      0.000      0.000      0.000
     16 H        0.000      0.000      0.000      0.000      0.000      0.000
     17 H        0.000      0.000      0.000      0.000      0.000      0.000
     19 H        0.000      0.000      0.000      0.000      0.000      0.000
     21 H        0.000      0.000      0.000      0.000      0.000     -0.000
     24 H        0.000      0.000      0.000      0.000      0.000      0.000
     25 H        0.000      0.000      0.000      0.000      0.000      0.000
     27 H        0.000      0.000      0.000      0.000      0.000      0.000
     28 H        0.000      0.000      0.000      0.000      0.000      0.000
     30 H       -0.000     -0.000      0.000      0.000     -0.000     -0.000
     31 H        0.002      0.000     -0.000      0.000      0.000      0.000
     33 H        0.004      0.000      0.000      0.000      0.000      0.000
     35 H        0.000      0.000      0.000      0.000      0.000      0.000
     37 H       -0.004      0.001      0.000      0.000      0.000     -0.002
     38 H       -0.002      0.001      0.000      0.000     -0.000     -0.006
     40 H        0.082     -0.001     -0.006      0.033      0.001     -0.174
     41 H       -0.010      0.000      0.001     -0.002      0.000      0.002
     42 H       -0.039     -0.002      0.002     -0.010     -0.000     -0.000
     45 H        0.002      0.001     -0.000      0.000     -0.000     -0.000
     46 H        0.000      0.000      0.000      0.000      0.000      0.000
     47 H        0.001      0.000     -0.000      0.000     -0.000      0.000
     48 H        0.086      0.059     -0.005      0.041      0.006      0.001
     52 H       -2.070     -0.449      0.145     -0.403     -0.034     -0.118
     53 H        5.457     -0.576     -0.242      0.036     -0.198      0.069
     57 H        0.000     10.251     12.664      5.396      2.105     -0.264
     58 H       10.251      0.000     -0.297     -0.150     -0.495      2.818
     61 H       12.664     -0.297      0.000    -11.404    -12.977      0.018
     62 H        5.396     -0.150    -11.404      0.000    -13.071      0.011
     63 H        2.105     -0.495    -12.977    -13.071      0.000      0.037
     64 H       -0.264      2.818      0.018      0.011      0.037      0.000
     65 H       -0.379     12.485      0.054      0.029     -0.059    -12.717
     66 H       -0.223      3.586     -0.092      0.013      0.640    -12.500
     67 H       -0.179      4.282     -0.060     -0.088      0.103      2.985
     68 H       -0.483      2.439     -0.023      0.104     -0.005      0.251
     69 H       -0.248     12.427      0.101     -0.060     -0.027     -0.369
     70 H        0.189     -0.007     -0.031      0.197      0.015      0.000
     71 H       -0.067      0.000      0.004     -0.028     -0.002     -0.000
     72 H       -0.056     -0.000     -0.002      0.001     -0.001     -0.001
                 65 H       66 H       67 H       68 H       69 H       70 H  
      3 H        0.000      0.000      0.000      0.000      0.000      0.000
      4 H        0.000      0.000      0.000      0.000      0.000      0.000
      8 H        0.000      0.000      0.000      0.000      0.000      0.000
      9 H        0.000      0.000      0.000      0.000      0.000      0.000
     10 H        0.000      0.000      0.000      0.000      0.000      0.000
     11 H        0.000      0.000      0.000      0.000      0.000      0.000
     13 H        0.000      0.000      0.000      0.000      0.000      0.000
     16 H        0.000      0.000      0.000      0.000      0.000      0.000
     17 H        0.000      0.000      0.000      0.000      0.000      0.000
     19 H        0.000      0.000      0.000      0.000      0.000     -0.000
     21 H        0.000      0.000      0.000      0.000      0.000      0.001
     24 H        0.000      0.000      0.000      0.000      0.000      0.021
     25 H        0.000      0.000      0.000      0.000      0.000      0.004
     27 H        0.000      0.000      0.000      0.000      0.000     -0.010
     28 H        0.000      0.000      0.000      0.000      0.000     -0.009
     30 H        0.000      0.000      0.000      0.000      0.000     -0.438
     31 H       -0.000      0.000      0.000      0.000      0.000     -0.078
     33 H        0.000      0.000      0.000      0.000      0.000      0.004
     35 H        0.000      0.000      0.000      0.000      0.000      0.000
     37 H       -0.001     -0.002      0.000      0.000      0.000     -0.006
     38 H       -0.002     -0.003      0.000      0.000      0.000      0.004
     40 H       -0.018     -0.017     -0.002     -0.001      0.001      0.086
     41 H        0.001      0.003     -0.001      0.001      0.000      0.022
     42 H       -0.001      0.001     -0.000     -0.002     -0.001     -0.195
     45 H       -0.000      0.000      0.000      0.000      0.000     -0.019
     46 H        0.000      0.000      0.000      0.000      0.000     -0.050
     47 H        0.000      0.000      0.000      0.000      0.000     -0.204
     48 H       -0.000     -0.001     -0.001     -0.005      0.012      4.418
     52 H        0.004      0.011      0.005      0.040      0.061     -0.071
     53 H        0.018      0.080      0.032      0.812      0.076     -0.412
     57 H       -0.379     -0.223     -0.179     -0.483     -0.248      0.189
     58 H       12.485      3.586      4.282      2.439     12.427     -0.007
     61 H        0.054     -0.092     -0.060     -0.023      0.101     -0.031
     62 H        0.029      0.013     -0.088      0.104     -0.060      0.197
     63 H       -0.059      0.640      0.103     -0.005     -0.027      0.015
     64 H      -12.717    -12.500      2.985      0.251     -0.369      0.000
     65 H        0.000    -12.612     -0.172     -0.194     -0.305     -0.003
     66 H      -12.612      0.000     -0.052     -0.246     -0.211     -0.003
     67 H       -0.172     -0.052      0.000    -12.874    -11.963      0.000
     68 H       -0.194     -0.246    -12.874      0.000    -12.716      0.000
     69 H       -0.305     -0.211    -11.963    -12.716      0.000      0.000
     70 H       -0.003     -0.003      0.000      0.000      0.000      0.000
     71 H        0.000      0.000      0.000      0.001     -0.001    -12.419
     72 H       -0.001     -0.000      0.000     -0.001      0.000    -13.212
                 71 H       72 H  
      3 H        0.000      0.000
      4 H        0.000      0.000
      8 H        0.000      0.000
      9 H        0.000      0.000
     10 H        0.000      0.000
     11 H        0.000      0.000
     13 H        0.000      0.000
     16 H        0.000      0.000
     17 H        0.000      0.000
     19 H        0.000      0.000
     21 H        0.001      0.002
     24 H        0.009      0.035
     25 H        0.000      0.000
     27 H       -0.001     -0.010
     28 H       -0.003     -0.011
     30 H        0.074      0.086
     31 H        0.013     -0.044
     33 H       -0.001      0.003
     35 H        0.000      0.000
     37 H       -0.020      0.068
     38 H        0.036      0.007
     40 H        0.028     -0.022
     41 H       -0.054      0.004
     42 H       -0.343     -0.438
     45 H        0.033     -0.012
     46 H       -0.032     -0.028
     47 H       -0.037     -0.016
     48 H       12.673      2.351
     52 H       -0.268     -0.154
     53 H        0.097      0.105
     57 H       -0.067     -0.056
     58 H        0.000     -0.000
     61 H        0.004     -0.002
     62 H       -0.028      0.001
     63 H       -0.002     -0.001
     64 H       -0.000     -0.001
     65 H        0.000     -0.001
     66 H        0.000     -0.000
     67 H        0.000      0.000
     68 H        0.001     -0.001
     69 H       -0.001      0.000
     70 H      -12.419    -13.212
     71 H        0.000    -12.584
     72 H      -12.584      0.000

Maximum memory used throughout the entire EPRNMR-calculation: 987.7 MB

Timings for individual modules:

Sum of individual times         ...      397.765 sec (=   6.629 min)
GTO integral calculation        ...        0.783 sec (=   0.013 min)   0.2 %
SCF iterations                  ...      103.506 sec (=   1.725 min)  26.0 %
EPR/NMR calculation             ...      293.476 sec (=   4.891 min)  73.8 %
                             ****ORCA TERMINATED NORMALLY****
TOTAL RUN TIME: 0 days 0 hours 6 minutes 38 seconds 205 msec
