
                                 *****************
                                 * O   R   C   A *
                                 *****************

                                            #,                                       
                                            ###                                      
                                            ####                                     
                                            #####                                    
                                            ######                                   
                                           ########,                                 
                                     ,,################,,,,,                         
                               ,,#################################,,                 
                          ,,##########################################,,             
                       ,#########################################, ''#####,          
                    ,#############################################,,   '####,        
                  ,##################################################,,,,####,       
                ,###########''''           ''''###############################       
              ,#####''   ,,,,##########,,,,          '''####'''          '####       
            ,##' ,,,,###########################,,,                        '##       
           ' ,,###''''                  '''############,,,                           
         ,,##''                                '''############,,,,        ,,,,,,###''
      ,#''                                            '''#######################'''  
     '                                                          ''''####''''         
             ,#######,   #######,   ,#######,      ##                                
            ,#'     '#,  ##    ##  ,#'     '#,    #''#        ######   ,####,        
            ##       ##  ##   ,#'  ##            #'  '#       #        #'  '#        
            ##       ##  #######   ##           ,######,      #####,   #    #        
            '#,     ,#'  ##    ##  '#,     ,#' ,#      #,         ##   #,  ,#        
             '#######'   ##     ##  '#######'  #'      '#     #####' # '####'        



                  #######################################################
                  #                        -***-                        #
                  #          Department of theory and spectroscopy      #
                  #    Directorship and core code : Frank Neese         #
                  #        Max Planck Institute fuer Kohlenforschung    #
                  #                Kaiser Wilhelm Platz 1               #
                  #                 D-45470 Muelheim/Ruhr               #
                  #                      Germany                        #
                  #                                                     #
                  #                  All rights reserved                #
                  #                        -***-                        #
                  #######################################################


                         Program Version 5.0.2 -  RELEASE  -


 With contributions from (in alphabetic order):
   Daniel Aravena         : Magnetic Suceptibility
   Michael Atanasov       : Ab Initio Ligand Field Theory (pilot matlab implementation)
   Alexander A. Auer      : GIAO ZORA, VPT2 properties, NMR spectrum
   Ute Becker             : Parallelization
   Giovanni Bistoni       : ED, misc. LED, open-shell LED, HFLD
   Martin Brehm           : Molecular dynamics
   Dmytro Bykov           : SCF Hessian
   Vijay G. Chilkuri      : MRCI spin determinant printing, contributions to CSF-ICE
   Dipayan Datta          : RHF DLPNO-CCSD density
   Achintya Kumar Dutta   : EOM-CC, STEOM-CC
   Dmitry Ganyushin       : Spin-Orbit,Spin-Spin,Magnetic field MRCI
   Miquel Garcia          : C-PCM and meta-GGA Hessian, CC/C-PCM, Gaussian charge scheme
   Yang Guo               : DLPNO-NEVPT2, F12-NEVPT2, CIM, IAO-localization
   Andreas Hansen         : Spin unrestricted coupled pair/coupled cluster methods
   Benjamin Helmich-Paris : MC-RPA, TRAH-SCF, COSX integrals
   Lee Huntington         : MR-EOM, pCC
   Robert Izsak           : Overlap fitted RIJCOSX, COSX-SCS-MP3, EOM
   Marcus Kettner         : VPT2
   Christian Kollmar      : KDIIS, OOCD, Brueckner-CCSD(T), CCSD density, CASPT2, CASPT2-K
   Simone Kossmann        : Meta GGA functionals, TD-DFT gradient, OOMP2, MP2 Hessian
   Martin Krupicka        : Initial AUTO-CI
   Lucas Lang             : DCDCAS
   Marvin Lechner         : AUTO-CI (C++ implementation), FIC-MRCC
   Dagmar Lenk            : GEPOL surface, SMD
   Dimitrios Liakos       : Extrapolation schemes; Compound Job, initial MDCI parallelization
   Dimitrios Manganas     : Further ROCIS development; embedding schemes
   Dimitrios Pantazis     : SARC Basis sets
   Anastasios Papadopoulos: AUTO-CI, single reference methods and gradients
   Taras Petrenko         : DFT Hessian,TD-DFT gradient, ASA, ECA, R-Raman, ABS, FL, XAS/XES, NRVS
   Peter Pinski           : DLPNO-MP2, DLPNO-MP2 Gradient
   Christoph Reimann      : Effective Core Potentials
   Marius Retegan         : Local ZFS, SOC
   Christoph Riplinger    : Optimizer, TS searches, QM/MM, DLPNO-CCSD(T), (RO)-DLPNO pert. Triples
   Tobias Risthaus        : Range-separated hybrids, TD-DFT gradient, RPA, STAB
   Michael Roemelt        : Original ROCIS implementation
   Masaaki Saitow         : Open-shell DLPNO-CCSD energy and density
   Barbara Sandhoefer     : DKH picture change effects
   Avijit Sen             : IP-ROCIS
   Kantharuban Sivalingam : CASSCF convergence, NEVPT2, FIC-MRCI
   Bernardo de Souza      : ESD, SOC TD-DFT
   Georgi Stoychev        : AutoAux, RI-MP2 NMR, DLPNO-MP2 response
   Willem Van den Heuvel  : Paramagnetic NMR
   Boris Wezisla          : Elementary symmetry handling
   Frank Wennmohs         : Technical directorship


 We gratefully acknowledge several colleagues who have allowed us to
 interface, adapt or use parts of their codes:
   Stefan Grimme, W. Hujo, H. Kruse, P. Pracht,  : VdW corrections, initial TS optimization,
                  C. Bannwarth, S. Ehlert          DFT functionals, gCP, sTDA/sTD-DF
   Ed Valeev, F. Pavosevic, A. Kumar             : LibInt (2-el integral package), F12 methods
   Garnet Chan, S. Sharma, J. Yang, R. Olivares  : DMRG
   Ulf Ekstrom                                   : XCFun DFT Library
   Mihaly Kallay                                 : mrcc  (arbitrary order and MRCC methods)
   Jiri Pittner, Ondrej Demel                    : Mk-CCSD
   Frank Weinhold                                : gennbo (NPA and NBO analysis)
   Christopher J. Cramer and Donald G. Truhlar   : smd solvation model
   Lars Goerigk                                  : TD-DFT with DH, B97 family of functionals
   V. Asgeirsson, H. Jonsson                     : NEB implementation
   FAccTs GmbH                                   : IRC, NEB, NEB-TS, DLPNO-Multilevel, CI-OPT
                                                   MM, QMMM, 2- and 3-layer-ONIOM, Crystal-QMMM,
                                                   LR-CPCM, SF, NACMEs, symmetry and pop. for TD-DFT,
                                                   nearIR, NL-DFT gradient (VV10), updates on ESD,
                                                   ML-optimized integration grids
   S Lehtola, MJT Oliveira, MAL Marques          : LibXC Library
   Liviu Ungur et al                             : ANISO software


 Your calculation uses the libint2 library for the computation of 2-el integrals
 For citations please refer to: http://libint.valeyev.net

 Your ORCA version has been built with support for libXC version: 5.1.0
 For citations please refer to: https://tddft.org/programs/libxc/

 This ORCA versions uses:
   CBLAS   interface :  Fast vector & matrix operations
   LAPACKE interface :  Fast linear algebra routines
   SCALAPACK package :  Parallel linear algebra routines
   Shared memory     :  Shared parallel matrices
   BLAS/LAPACK       :  OpenBLAS 0.3.15  USE64BITINT DYNAMIC_ARCH NO_AFFINITY Zen SINGLE_THREADED
        Core in use  :  Zen
   Copyright (c) 2011-2014, The OpenBLAS Project


Your calculation utilizes the atom-pairwise dispersion correction
based on tight binding partial charges (D4)
Cite in your paper:
E.Caldeweyher, C.Bannwarth, S.Grimme, J.Chem.Phys., (2017), 147, 034112.
E.Caldeweyher, S.Ehlert, A.Hansen, H.Neugebauer, S.Grimme, J.Chem.Phys., (2018), in progress.
   

================================================================================

----- Orbital basis set information -----
Your calculation utilizes the basis: pcJ-0
   F. Jensen, Theor. Chem. Acc. 126, 371 (2010).

----- AuxJ basis set information -----
Your calculation utilizes the auxiliary basis: def2/J
   F. Weigend, Phys. Chem. Chem. Phys. 8, 1057 (2006).

================================================================================
                                        WARNINGS
                       Please study these warnings very carefully!
================================================================================


INFO   : the flag for use of the SHARK integral package has been found!

================================================================================
                                       INPUT FILE
================================================================================
NAME = inpJ
|  1> ! pbe0
|  2> ! D4
|  3> ! pcJ-0
|  4> ! def2/J RIJCOSX
|  5> ! DEFGRID2
|  6> ! scfconv7
|  7> ! smallprint printgap noloewdin
|  8> ! NOSOSCF
|  9> %MaxCore 4000
| 10> %output
| 11>        print[P_BondOrder_M] 1
| 12>        print[P_Mayer] 1
| 13>        print[P_basis] 2
| 14> end
| 15> %pal
| 16>     nprocs 4
| 17> end
| 18> ! CPCM(chloroform)
| 19> *xyz 0 1
| 20> C   -4.9733518300   0.2565731700  -0.4616985000
| 21> C   -6.4283704300  -0.1389887500  -0.5461280100
| 22> C   -7.2900732700   0.8009031100   0.3070035400
| 23> H   -6.5686634700  -1.1757190800  -0.2196529500
| 24> H   -6.7757575100  -0.0615615900  -1.5870781900
| 25> C   -4.7178648400   1.6734235600  -0.8044761000
| 26> C   -5.6034317700   2.6588342000  -0.0744560700
| 27> C   -7.0825860900   2.2514984000  -0.1311903000
| 28> H   -5.4655475700   3.6661639300  -0.4816329500
| 29> H   -5.2871955900   2.6924950600   0.9792719300
| 30> H   -7.4527748100   2.3573115800  -1.1600716500
| 31> H   -7.6803635900   2.9148881500   0.5045049800
| 32> O   -7.0058199900   0.6209599200   1.7044175600
| 33> H   -8.3475521500   0.5323561800   0.1923876000
| 34> C   -4.0314047500  -0.6165745400  -0.0319518300
| 35> C   -3.8124970600   2.0564857700  -1.7110678900
| 36> H   -3.1983463700   1.3313487400  -2.2383796500
| 37> H   -3.6732512300   3.1076053500  -1.9526890200
| 38> C   -2.6339776100  -0.3217784600   0.1850220900
| 39> H   -4.3765276000  -1.6241962900   0.1966202200
| 40> C   -1.6736039400  -1.2003426900   0.5438581500
| 41> H   -2.3445275300   0.7184752200   0.0552328400
| 42> C   -1.8696816400  -2.6791120000   0.7618187000
| 43> C   -0.8873054900  -3.5154509000  -0.0804244600
| 44> H   -2.8952915900  -2.9976058500   0.5565369600
| 45> H   -1.6739157300  -2.8913407900   1.8250632900
| 46> C    0.5689990000  -3.0591270200   0.0821629300
| 47> H   -1.1791399200  -3.4553976000  -1.1365194600
| 48> H   -0.9755418500  -4.5703053700   0.2071205000
| 49> C    0.7326206600  -1.5586115800  -0.1986943400
| 50> H    1.2036956200  -3.6607797800  -0.5763005900
| 51> H    0.8984102000  -3.2566081900   1.1133506400
| 52> C   -0.2461622700  -0.7986519200   0.7540546100
| 53> H    0.0297174500  -1.1470668900   1.7664633300
| 54> C    0.1841928100   0.6600528700   0.6444694600
| 55> H   -6.0458667100   0.5448896500   1.8012913000
| 56> C    1.7226636400   0.5752868700   0.4919840700
| 57> H   -0.1252771400   1.2485580900   1.5144471000
| 58> H   -0.2612103100   1.1312382900  -0.2389328300
| 59> C    2.0787369800  -0.9235037400   0.2500485800
| 60> H    2.2396488100   0.9559970000   1.3783860500
| 61> H    2.0587878700   1.1863545500  -0.3543842600
| 62> H    2.3331578500  -1.3832953500   1.2184901900
| 63> C    3.3216937000  -1.0855509300  -0.6587252000
| 64> C    0.4325187700  -1.2350266900  -1.6677714000
| 65> H    0.6545905500  -0.1898536500  -1.9063785400
| 66> H   -0.6215543300  -1.4062796000  -1.9075292800
| 67> H    1.0352003100  -1.8624475200  -2.3334688200
| 68> H    3.0837555600  -0.5885873000  -1.6140488900
| 69> C    3.6744365500  -2.5415974800  -0.9557574800
| 70> C    4.4694507600  -0.3162370200  -0.0457584500
| 71> C    5.5947109200  -0.8351619500   0.4485268200
| 72> H    4.3224006800   0.7617445000   0.0048919100
| 73> H    5.7381182000  -1.9136731800   0.4062279800
| 74> C    6.7340072000  -0.0632855500   1.0691953400
| 75> C    6.3526457100   1.3700876900   1.4446719900
| 76> C    7.9931698200  -0.1065158200   0.1575146700
| 77> H    7.0111051300  -0.5963269700   1.9955519500
| 78> H    7.7343764200   0.4343089400  -0.7667693800
| 79> C    8.3829097900  -1.5399326400  -0.2182031600
| 80> C    9.1898719700   0.5921767800   0.8109579000
| 81> H    6.2233117700   1.9929502100   0.5511820000
| 82> H    7.1215074700   1.8342418600   2.0672484500
| 83> H    5.4131561300   1.3870177900   2.0069003900
| 84> H    7.6149295600  -2.0342453500  -0.8201062000
| 85> H    8.5488034700  -2.1433444600   0.6839315800
| 86> H    9.3128164000  -1.5428377800  -0.7970871600
| 87> H    9.0168730200   1.6605211800   0.9664534700
| 88> H    10.0809568800   0.4891962800   0.1821150300
| 89> H    9.4133552900   0.1373347600   1.7849308300
| 90> H    2.9083429300  -3.0143312700  -1.5733150800
| 91> H    3.7734733600  -3.1275242900  -0.0342176900
| 92> H    4.6235947800  -2.6040618900  -1.4993738600
| 93> *
| 94> %eprnmr
| 95>  Nuclei = all H { ssfc }
| 96>  SpinSpinRThresh 8.0
| 97> end
| 98> 
| 99>                          ****END OF INPUT****
================================================================================

                       ****************************
                       * Single Point Calculation *
                       ****************************

---------------------------------
CARTESIAN COORDINATES (ANGSTROEM)
---------------------------------
  C     -4.973352    0.256573   -0.461699
  C     -6.428370   -0.138989   -0.546128
  C     -7.290073    0.800903    0.307004
  H     -6.568663   -1.175719   -0.219653
  H     -6.775758   -0.061562   -1.587078
  C     -4.717865    1.673424   -0.804476
  C     -5.603432    2.658834   -0.074456
  C     -7.082586    2.251498   -0.131190
  H     -5.465548    3.666164   -0.481633
  H     -5.287196    2.692495    0.979272
  H     -7.452775    2.357312   -1.160072
  H     -7.680364    2.914888    0.504505
  O     -7.005820    0.620960    1.704418
  H     -8.347552    0.532356    0.192388
  C     -4.031405   -0.616575   -0.031952
  C     -3.812497    2.056486   -1.711068
  H     -3.198346    1.331349   -2.238380
  H     -3.673251    3.107605   -1.952689
  C     -2.633978   -0.321778    0.185022
  H     -4.376528   -1.624196    0.196620
  C     -1.673604   -1.200343    0.543858
  H     -2.344528    0.718475    0.055233
  C     -1.869682   -2.679112    0.761819
  C     -0.887305   -3.515451   -0.080424
  H     -2.895292   -2.997606    0.556537
  H     -1.673916   -2.891341    1.825063
  C      0.568999   -3.059127    0.082163
  H     -1.179140   -3.455398   -1.136519
  H     -0.975542   -4.570305    0.207121
  C      0.732621   -1.558612   -0.198694
  H      1.203696   -3.660780   -0.576301
  H      0.898410   -3.256608    1.113351
  C     -0.246162   -0.798652    0.754055
  H      0.029717   -1.147067    1.766463
  C      0.184193    0.660053    0.644469
  H     -6.045867    0.544890    1.801291
  C      1.722664    0.575287    0.491984
  H     -0.125277    1.248558    1.514447
  H     -0.261210    1.131238   -0.238933
  C      2.078737   -0.923504    0.250049
  H      2.239649    0.955997    1.378386
  H      2.058788    1.186355   -0.354384
  H      2.333158   -1.383295    1.218490
  C      3.321694   -1.085551   -0.658725
  C      0.432519   -1.235027   -1.667771
  H      0.654591   -0.189854   -1.906379
  H     -0.621554   -1.406280   -1.907529
  H      1.035200   -1.862448   -2.333469
  H      3.083756   -0.588587   -1.614049
  C      3.674437   -2.541597   -0.955757
  C      4.469451   -0.316237   -0.045758
  C      5.594711   -0.835162    0.448527
  H      4.322401    0.761745    0.004892
  H      5.738118   -1.913673    0.406228
  C      6.734007   -0.063286    1.069195
  C      6.352646    1.370088    1.444672
  C      7.993170   -0.106516    0.157515
  H      7.011105   -0.596327    1.995552
  H      7.734376    0.434309   -0.766769
  C      8.382910   -1.539933   -0.218203
  C      9.189872    0.592177    0.810958
  H      6.223312    1.992950    0.551182
  H      7.121507    1.834242    2.067248
  H      5.413156    1.387018    2.006900
  H      7.614930   -2.034245   -0.820106
  H      8.548803   -2.143344    0.683932
  H      9.312816   -1.542838   -0.797087
  H      9.016873    1.660521    0.966453
  H     10.080957    0.489196    0.182115
  H      9.413355    0.137335    1.784931
  H      2.908343   -3.014331   -1.573315
  H      3.773473   -3.127524   -0.034218
  H      4.623595   -2.604062   -1.499374

----------------------------
CARTESIAN COORDINATES (A.U.)
----------------------------
  NO LB      ZA    FRAG     MASS         X           Y           Z
   0 C     6.0000    0    12.011   -9.398273    0.484853   -0.872484
   1 C     6.0000    0    12.011  -12.147860   -0.262651   -1.032032
   2 C     6.0000    0    12.011  -13.776242    1.513488    0.580153
   3 H     1.0000    0     1.008  -12.412975   -2.221787   -0.415084
   4 H     1.0000    0     1.008  -12.804326   -0.116335   -2.999143
   5 C     6.0000    0    12.011   -8.915472    3.162312   -1.520240
   6 C     6.0000    0    12.011  -10.588951    5.024468   -0.140702
   7 C     6.0000    0    12.011  -13.384148    4.254715   -0.247914
   8 H     1.0000    0     1.008  -10.328388    6.928046   -0.910154
   9 H     1.0000    0     1.008   -9.991352    5.088078    1.850556
  10 H     1.0000    0     1.008  -14.083703    4.454673   -2.192218
  11 H     1.0000    0     1.008  -14.513784    5.508340    0.953376
  12 O     8.0000    0    15.999  -13.239081    1.173444    3.220882
  13 H     1.0000    0     1.008  -15.774587    1.006007    0.363560
  14 C     6.0000    0    12.011   -7.618251   -1.165157   -0.060380
  15 C     6.0000    0    12.011   -7.204575    3.886195   -3.233450
  16 H     1.0000    0     1.008   -6.043999    2.515885   -4.229925
  17 H     1.0000    0     1.008   -6.941439    5.872523   -3.690047
  18 C     6.0000    0    12.011   -4.977496   -0.608073    0.349641
  19 H     1.0000    0     1.008   -8.270439   -3.069286    0.371558
  20 C     6.0000    0    12.011   -3.162653   -2.268319    1.027743
  21 H     1.0000    0     1.008   -4.430515    1.357721    0.104375
  22 C     6.0000    0    12.011   -3.533186   -5.062788    1.439629
  23 C     6.0000    0    12.011   -1.676764   -6.643239   -0.151980
  24 H     1.0000    0     1.008   -5.471308   -5.664654    1.051702
  25 H     1.0000    0     1.008   -3.163242   -5.463842    3.448870
  26 C     6.0000    0    12.011    1.075252   -5.780912    0.155265
  27 H     1.0000    0     1.008   -2.228252   -6.529755   -2.147711
  28 H     1.0000    0     1.008   -1.843507   -8.636625    0.391401
  29 C     6.0000    0    12.011    1.384452   -2.945349   -0.375478
  30 H     1.0000    0     1.008    2.274655   -6.917871   -1.089050
  31 H     1.0000    0     1.008    1.697749   -6.154098    2.103928
  32 C     6.0000    0    12.011   -0.465179   -1.509233    1.424957
  33 H     1.0000    0     1.008    0.056158   -2.167642    3.338132
  34 C     6.0000    0    12.011    0.348074    1.247319    1.217871
  35 H     1.0000    0     1.008  -11.425032    1.029692    3.403947
  36 C     6.0000    0    12.011    3.255363    1.087135    0.929715
  37 H     1.0000    0     1.008   -0.236739    2.359433    2.861890
  38 H     1.0000    0     1.008   -0.493616    2.137731   -0.451518
  39 C     6.0000    0    12.011    3.928244   -1.745169    0.472523
  40 H     1.0000    0     1.008    4.232323    1.806573    2.604772
  41 H     1.0000    0     1.008    3.890545    2.241885   -0.669689
  42 H     1.0000    0     1.008    4.409029   -2.614049    2.302613
  43 C     6.0000    0    12.011    6.277091   -2.051394   -1.244810
  44 C     6.0000    0    12.011    0.817342   -2.333862   -3.151631
  45 H     1.0000    0     1.008    1.236997   -0.358771   -3.602533
  46 H     1.0000    0     1.008   -1.174567   -2.657483   -3.604708
  47 H     1.0000    0     1.008    1.956245   -3.519516   -4.409617
  48 H     1.0000    0     1.008    5.827453   -1.112269   -3.050110
  49 C     6.0000    0    12.011    6.943679   -4.802923   -1.806120
  50 C     6.0000    0    12.011    8.446038   -0.597601   -0.086471
  51 C     6.0000    0    12.011   10.572471   -1.578227    0.847593
  52 H     1.0000    0     1.008    8.168154    1.439488    0.009244
  53 H     1.0000    0     1.008   10.843472   -3.616318    0.767660
  54 C     6.0000    0    12.011   12.725429   -0.119592    2.020486
  55 C     6.0000    0    12.011   12.004761    2.589091    2.730034
  56 C     6.0000    0    12.011   15.104902   -0.201286    0.297660
  57 H     1.0000    0     1.008   13.249069   -1.126895    3.771047
  58 H     1.0000    0     1.008   14.615853    0.820725   -1.448984
  59 C     6.0000    0    12.011   15.841404   -2.910051   -0.412344
  60 C     6.0000    0    12.011   17.366341    1.119052    1.532488
  61 H     1.0000    0     1.008   11.760355    3.766130    1.041583
  62 H     1.0000    0     1.008   13.457699    3.466215    3.906533
  63 H     1.0000    0     1.008   10.229383    2.621084    3.792492
  64 H     1.0000    0     1.008   14.390131   -3.844167   -1.549776
  65 H     1.0000    0     1.008   16.154897   -4.050334    1.292443
  66 H     1.0000    0     1.008   17.598673   -2.915541   -1.506276
  67 H     1.0000    0     1.008   17.039421    3.137930    1.826332
  68 H     1.0000    0     1.008   19.050248    0.924447    0.344148
  69 H     1.0000    0     1.008   17.788663    0.259525    3.373030
  70 H     1.0000    0     1.008    5.495972   -5.696261   -2.973135
  71 H     1.0000    0     1.008    7.130831   -5.910164   -0.064662
  72 H     1.0000    0     1.008    8.737328   -4.920964   -2.833406

--------------------------------
INTERNAL COORDINATES (ANGSTROEM)
--------------------------------
 C      0   0   0     0.000000000000     0.00000000     0.00000000
 C      1   0   0     1.510190948542     0.00000000     0.00000000
 C      2   1   0     1.534197488775   110.46231333     0.00000000
 H      2   1   3     1.095936986791   110.76029052   237.87284912
 H      2   1   3     1.100113642175   109.79785102   118.75733453
 C      1   2   3     1.479944293804   113.83717778   305.86080556
 C      6   1   2     1.512677150332   114.25636881    50.32107481
 C      3   2   1     1.529474245173   110.21368149    56.60660544
 H      7   6   1     1.095225204768   110.24486429   188.39808155
 H      7   6   1     1.100673009127   108.28471291    71.70479317
 H      8   3   2     1.098559488537   108.29842832    64.68186292
 H      8   3   2     1.096144328510   109.50310848   181.65381796
 O      3   2   1     1.437339703101   110.66221197   292.49872330
 H      3   2   1     1.097048699448   109.47177017   177.04181189
 C      1   2   3     1.354375658883   121.26208264   122.28054288
 C      6   1   2     1.337286860583   123.23886223   232.29575041
 H     16   6   1     1.086766982632   121.35949516   359.01736027
 H     16   6   1     1.087484502462   120.94282475   178.40486963
 C     15   1   2     1.444570878272   126.07782047   184.96923433
 H     15   1   2     1.089337667900   116.26743849     3.02928010
 C     19  15   1     1.350168882111   126.52784905   183.81621121
 H     19  15   1     1.087545087333   115.76855029     4.67405686
 C     21  19  15     1.507551636924   125.74609765     1.37335914
 C     23  21  19     1.540746311470   111.74576298   126.17956215
 H     23  21  19     1.093368508237   112.37041170     2.33825973
 H     23  21  19     1.101750611067   107.78022275   244.73773579
 C     24  23  21     1.534760212685   112.68730072    50.71212886
 H     24  23  21     1.097319635475   109.07662881   288.55426237
 H     24  23  21     1.096898223231   109.11219143   172.61977923
 C     27  24  23     1.535317374165   111.85945360   306.23666396
 H     27  24  23     1.094714597612   108.84534917   182.67444790
 H     27  24  23     1.100390223714   109.26698428    66.21546958
 C     21  19  15     1.497707497395   122.73168964   180.35375338
 H     33  21  19     1.105655474169   106.36786477   125.92141120
 C     33  21  19     1.524806238298   121.02989143     3.39180394
 H     13   3   2     0.967823076426   107.65648582    42.57056831
 C     35  33  21     1.548331218984   103.60005210   196.80649462
 H     35  33  21     1.094975405212   112.16606230    74.78986805
 H     35  33  21     1.095809858189   110.76696485   315.14480240
 C     30  27  24     1.554593620098   116.02426203   166.31404748
 H     37  35  33     1.094496386121   111.74888750   249.18910682
 H     37  35  33     1.096687082791   110.48969856   130.61549202
 H     40  30  27     1.101824602964   106.44967395   320.84136770
 C     40  30  27     1.548247552168   118.87908570    81.13496607
 C     30  27  24     1.533934722743   111.13186578   294.47187558
 H     45  30  27     1.094822326350   111.74196883   186.42813787
 H     45  30  27     1.094477729490   111.42057187    66.43458491
 H     45  30  27     1.095461086287   110.70379093   306.37178862
 H     44  40  30     1.102828527326   106.74346741    62.13570650
 C     44  40  30     1.527326831217   113.53735261   303.10772333
 C     44  40  30     1.511594653836   108.55948505   176.70415048
 C     51  44  40     1.334095738243   126.35038278   114.09649383
 H     51  44  40     1.089143398482   114.83885168   295.69318930
 H     52  51  44     1.088825657788   118.81507561     1.10636556
 C     52  51  44     1.509641878797   126.15637766   180.48764351
 C     55  52  51     1.530025537662   113.06584123    15.78066921
 C     55  52  51     1.555159478607   110.84289138   249.30869885
 H     55  52  51     1.104107325914   106.70863157   134.36240767
 H     57  55  52     1.101710692513   106.73714657    65.32156319
 C     57  55  52     1.532235266483   112.06767057   306.96891104
 C     57  55  52     1.532075533367   111.69843944   183.77312998
 H     56  55  52     1.096817828578   111.19154801   288.71027460
 H     56  55  52     1.092789525968   111.24484951   168.53195423
 H     56  55  52     1.095001403187   110.75306379    48.74555775
 H     60  57  55     1.093812579238   112.27890355    64.01257818
 H     60  57  55     1.097940629859   110.55429200   303.26547787
 H     60  57  55     1.095372735016   110.36542711   184.18218701
 H     61  57  55     1.093374257060   112.49920015   296.28380797
 H     61  57  55     1.095481928358   110.34423475   176.12292553
 H     61  57  55     1.097929563246   110.39081873    57.14091053
 H     50  44  40     1.091674887560   111.14731058    67.29188623
 H     50  44  40     1.096519083721   111.52018097   306.83831851
 H     50  44  40     1.095592039355   110.54460336   186.72698608

---------------------------
INTERNAL COORDINATES (A.U.)
---------------------------
 C      0   0   0     0.000000000000     0.00000000     0.00000000
 C      1   0   0     2.853847302672     0.00000000     0.00000000
 C      2   1   0     2.899213089135   110.46231333     0.00000000
 H      2   1   3     2.071020765070   110.76029052   237.87284912
 H      2   1   3     2.078913499901   109.79785102   118.75733453
 C      1   2   3     2.796689408750   113.83717778   305.86080556
 C      6   1   2     2.858545543168   114.25636881    50.32107481
 C      3   2   1     2.890287452263   110.21368149    56.60660544
 H      7   6   1     2.069675691978   110.24486429   188.39808155
 H      7   6   1     2.079970550249   108.28471291    71.70479317
 H      8   3   2     2.075976575156   108.29842832    64.68186292
 H      8   3   2     2.071412584136   109.50310848   181.65381796
 O      3   2   1     2.716178400273   110.66221197   292.49872330
 H      3   2   1     2.073121597531   109.47177017   177.04181189
 C      1   2   3     2.559399077738   121.26208264   122.28054288
 C      6   1   2     2.527105928993   123.23886223   232.29575041
 H     16   6   1     2.053691968562   121.35949516   359.01736027
 H     16   6   1     2.055047884536   120.94282475   178.40486963
 C     15   1   2     2.729843340973   126.07782047   184.96923433
 H     15   1   2     2.058549859696   116.26743849     3.02928010
 C     19  15   1     2.551449421733   126.52784905   183.81621121
 H     19  15   1     2.055162373350   115.76855029     4.67405686
 C     21  19  15     2.848859726531   125.74609765     1.37335914
 C     23  21  19     2.911588570528   111.74576298   126.17956215
 H     23  21  19     2.066167044022   112.37041170     2.33825973
 H     23  21  19     2.082006922798   107.78022275   244.73773579
 C     24  23  21     2.900276483212   112.68730072    50.71212886
 H     24  23  21     2.073633592422   109.07662881   288.55426237
 H     24  23  21     2.072837238691   109.11219143   172.61977923
 C     27  24  23     2.901329365822   111.85945360   306.23666396
 H     27  24  23     2.068710784293   108.84534917   182.67444790
 H     27  24  23     2.079436163264   109.26698428    66.21546958
 C     21  19  15     2.830256998796   122.73168964   180.35375338
 H     33  21  19     2.089386044650   106.36786477   125.92141120
 C     33  21  19     2.881466197677   121.02989143     3.39180394
 H     13   3   2     1.828920560534   107.65648582    42.57056831
 C     35  33  21     2.925921968480   103.60005210   196.80649462
 H     35  33  21     2.069203639231   112.16606230    74.78986805
 H     35  33  21     2.070780526828   110.76696485   315.14480240
 C     30  27  24     2.937756191527   116.02426203   166.31404748
 H     37  35  33     2.068298424336   111.74888750   249.18910682
 H     37  35  33     2.072438241084   110.48969856   130.61549202
 H     40  30  27     2.082146747219   106.44967395   320.84136770
 C     40  30  27     2.925763861112   118.87908570    81.13496607
 C     30  27  24     2.898716533296   111.13186578   294.47187558
 H     45  30  27     2.068914362104   111.74196883   186.42813787
 H     45  30  27     2.068263168412   111.42057187    66.43458491
 H     45  30  27     2.070121443450   110.70379093   306.37178862
 H     44  40  30     2.084043889322   106.74346741    62.13570650
 C     44  40  30     2.886229427990   113.53735261   303.10772333
 C     44  40  30     2.856499921249   108.55948505   176.70415048
 C     51  44  40     2.521075581710   126.35038278   114.09649383
 H     51  44  40     2.058182743700   114.83885168   295.69318930
 H     52  51  44     2.057582300807   118.81507561     1.10636556
 C     52  51  44     2.852809711225   126.15637766   180.48764351
 C     55  52  51     2.891329244087   113.06584123    15.78066921
 C     55  52  51     2.938825509139   110.84289138   249.30869885
 H     55  52  51     2.086460468433   106.70863157   134.36240767
 H     57  55  52     2.081931487662   106.73714657    65.32156319
 C     57  55  52     2.895505026389   112.06767057   306.96891104
 C     57  55  52     2.895203174545   111.69843944   183.77312998
 H     56  55  52     2.072685314815   111.19154801   288.71027460
 H     56  55  52     2.065072926097   111.24484951   168.53195423
 H     56  55  52     2.069252768283   110.75306379    48.74555775
 H     60  57  55     2.067006216598   112.27890355    64.01257818
 H     60  57  55     2.074807101738   110.55429200   303.26547787
 H     60  57  55     2.069954483744   110.36542711   184.18218701
 H     61  57  55     2.066177907724   112.49920015   296.28380797
 H     61  57  55     2.070160829257   110.34423475   176.12292553
 H     61  57  55     2.074786188870   110.39081873    57.14091053
 H     50  44  40     2.062966564769   111.14731058    67.29188623
 H     50  44  40     2.072120768852   111.52018097   306.83831851
 H     50  44  40     2.070368908885   110.54460336   186.72698608

---------------------
BASIS SET INFORMATION
---------------------
There are 3 groups of distinct atoms

 Group   1 Type C   : 7s4p contracted to 4s3p pattern {4111/211}
 Group   2 Type H   : 5s contracted to 3s pattern {311}
 Group   3 Type O   : 7s4p contracted to 4s3p pattern {4111/211}

Atom   0C    basis set group =>   1
Atom   1C    basis set group =>   1
Atom   2C    basis set group =>   1
Atom   3H    basis set group =>   2
Atom   4H    basis set group =>   2
Atom   5C    basis set group =>   1
Atom   6C    basis set group =>   1
Atom   7C    basis set group =>   1
Atom   8H    basis set group =>   2
Atom   9H    basis set group =>   2
Atom  10H    basis set group =>   2
Atom  11H    basis set group =>   2
Atom  12O    basis set group =>   3
Atom  13H    basis set group =>   2
Atom  14C    basis set group =>   1
Atom  15C    basis set group =>   1
Atom  16H    basis set group =>   2
Atom  17H    basis set group =>   2
Atom  18C    basis set group =>   1
Atom  19H    basis set group =>   2
Atom  20C    basis set group =>   1
Atom  21H    basis set group =>   2
Atom  22C    basis set group =>   1
Atom  23C    basis set group =>   1
Atom  24H    basis set group =>   2
Atom  25H    basis set group =>   2
Atom  26C    basis set group =>   1
Atom  27H    basis set group =>   2
Atom  28H    basis set group =>   2
Atom  29C    basis set group =>   1
Atom  30H    basis set group =>   2
Atom  31H    basis set group =>   2
Atom  32C    basis set group =>   1
Atom  33H    basis set group =>   2
Atom  34C    basis set group =>   1
Atom  35H    basis set group =>   2
Atom  36C    basis set group =>   1
Atom  37H    basis set group =>   2
Atom  38H    basis set group =>   2
Atom  39C    basis set group =>   1
Atom  40H    basis set group =>   2
Atom  41H    basis set group =>   2
Atom  42H    basis set group =>   2
Atom  43C    basis set group =>   1
Atom  44C    basis set group =>   1
Atom  45H    basis set group =>   2
Atom  46H    basis set group =>   2
Atom  47H    basis set group =>   2
Atom  48H    basis set group =>   2
Atom  49C    basis set group =>   1
Atom  50C    basis set group =>   1
Atom  51C    basis set group =>   1
Atom  52H    basis set group =>   2
Atom  53H    basis set group =>   2
Atom  54C    basis set group =>   1
Atom  55C    basis set group =>   1
Atom  56C    basis set group =>   1
Atom  57H    basis set group =>   2
Atom  58H    basis set group =>   2
Atom  59C    basis set group =>   1
Atom  60C    basis set group =>   1
Atom  61H    basis set group =>   2
Atom  62H    basis set group =>   2
Atom  63H    basis set group =>   2
Atom  64H    basis set group =>   2
Atom  65H    basis set group =>   2
Atom  66H    basis set group =>   2
Atom  67H    basis set group =>   2
Atom  68H    basis set group =>   2
Atom  69H    basis set group =>   2
Atom  70H    basis set group =>   2
Atom  71H    basis set group =>   2
Atom  72H    basis set group =>   2

-------------------------
BASIS SET IN INPUT FORMAT
-------------------------

 # Basis set for element : H 
 NewGTO H 
 S 3 
   1    1357.7500000000      0.0012928364
   2      54.3100000000      0.0588280685
   3       4.3448000000      0.9761499708
 S 1 
   1       0.6604910000      1.0000000000
 S 1 
   1       0.1366870000      1.0000000000
  end;

 # Basis set for element : C 
 NewGTO C 
 S 4 
   1  139534.0000000000      0.0001655246
   2    5581.3600000000      0.0074486101
   3     446.5090000000      0.1285821065
   4      67.4620000000      0.9218029311
 S 1 
   1      15.0674000000      1.0000000000
 S 1 
   1       3.9387600000      1.0000000000
 S 1 
   1       0.2999150000      1.0000000000
 P 2 
   1      28.3900000000      0.0816325586
   2       4.3676900000      0.9660360576
 P 1 
   1       0.8698170000      1.0000000000
 P 1 
   1       0.1889340000      1.0000000000
  end;

 # Basis set for element : O 
 NewGTO O 
 S 4 
   1  253789.0000000000      0.0001641076
   2   10151.6000000000      0.0074010921
   3     812.1250000000      0.1277711901
   4     122.6930000000      0.9223372164
 S 1 
   1      27.5608000000      1.0000000000
 S 1 
   1       7.3172600000      1.0000000000
 S 1 
   1       0.5792400000      1.0000000000
 P 2 
   1      53.4157000000      0.0793786106
   2       8.2177900000      0.9670506337
 P 1 
   1       1.6754400000      1.0000000000
 P 1 
   1       0.3506720000      1.0000000000
  end;

---------------------------------
AUXILIARY/J BASIS SET INFORMATION
---------------------------------
There are 3 groups of distinct atoms

 Group   1 Type C   : 12s5p4d2f1g contracted to 6s4p3d1f1g pattern {711111/2111/211/2/1}
 Group   2 Type H   : 5s2p1d contracted to 3s1p1d pattern {311/2/1}
 Group   3 Type O   : 12s5p4d2f1g contracted to 6s4p3d1f1g pattern {711111/2111/211/2/1}

Atom   0C    basis set group =>   1
Atom   1C    basis set group =>   1
Atom   2C    basis set group =>   1
Atom   3H    basis set group =>   2
Atom   4H    basis set group =>   2
Atom   5C    basis set group =>   1
Atom   6C    basis set group =>   1
Atom   7C    basis set group =>   1
Atom   8H    basis set group =>   2
Atom   9H    basis set group =>   2
Atom  10H    basis set group =>   2
Atom  11H    basis set group =>   2
Atom  12O    basis set group =>   3
Atom  13H    basis set group =>   2
Atom  14C    basis set group =>   1
Atom  15C    basis set group =>   1
Atom  16H    basis set group =>   2
Atom  17H    basis set group =>   2
Atom  18C    basis set group =>   1
Atom  19H    basis set group =>   2
Atom  20C    basis set group =>   1
Atom  21H    basis set group =>   2
Atom  22C    basis set group =>   1
Atom  23C    basis set group =>   1
Atom  24H    basis set group =>   2
Atom  25H    basis set group =>   2
Atom  26C    basis set group =>   1
Atom  27H    basis set group =>   2
Atom  28H    basis set group =>   2
Atom  29C    basis set group =>   1
Atom  30H    basis set group =>   2
Atom  31H    basis set group =>   2
Atom  32C    basis set group =>   1
Atom  33H    basis set group =>   2
Atom  34C    basis set group =>   1
Atom  35H    basis set group =>   2
Atom  36C    basis set group =>   1
Atom  37H    basis set group =>   2
Atom  38H    basis set group =>   2
Atom  39C    basis set group =>   1
Atom  40H    basis set group =>   2
Atom  41H    basis set group =>   2
Atom  42H    basis set group =>   2
Atom  43C    basis set group =>   1
Atom  44C    basis set group =>   1
Atom  45H    basis set group =>   2
Atom  46H    basis set group =>   2
Atom  47H    basis set group =>   2
Atom  48H    basis set group =>   2
Atom  49C    basis set group =>   1
Atom  50C    basis set group =>   1
Atom  51C    basis set group =>   1
Atom  52H    basis set group =>   2
Atom  53H    basis set group =>   2
Atom  54C    basis set group =>   1
Atom  55C    basis set group =>   1
Atom  56C    basis set group =>   1
Atom  57H    basis set group =>   2
Atom  58H    basis set group =>   2
Atom  59C    basis set group =>   1
Atom  60C    basis set group =>   1
Atom  61H    basis set group =>   2
Atom  62H    basis set group =>   2
Atom  63H    basis set group =>   2
Atom  64H    basis set group =>   2
Atom  65H    basis set group =>   2
Atom  66H    basis set group =>   2
Atom  67H    basis set group =>   2
Atom  68H    basis set group =>   2
Atom  69H    basis set group =>   2
Atom  70H    basis set group =>   2
Atom  71H    basis set group =>   2
Atom  72H    basis set group =>   2

-------------------------------------
AUXILIARY/J BASIS SET IN INPUT FORMAT
-------------------------------------

 # Auxiliary/J basis set for element : H 
 NewAuxJGTO H 
 S 3 
   1      15.6752927000      0.1007184237
   2       3.6063578000      0.3404257499
   3       1.2080016000      0.6491996172
 S 1 
   1       0.4726794000      1.0000000000
 S 1 
   1       0.2018100000      1.0000000000
 P 2 
   1       2.0281365000      0.5596620919
   2       0.5358730000      0.5596620919
 D 1 
   1       2.2165124000      1.0000000000
  end;

 # Auxiliary/J basis set for element : C 
 NewAuxJGTO C 
 S 7 
   1    1861.0916331000      0.0134602335
   2     642.9939764000      0.0299160374
   3     235.1105725000      0.1008649584
   4      90.7028894000      0.2370970548
   5      36.7794552000      0.3924037254
   6      15.6046273000      0.3195862154
   7       6.8907294000      0.0530104441
 S 1 
   1       3.1478850000     -1.0000000000
 S 1 
   1       1.4777287000      1.0000000000
 S 1 
   1       0.7076466000      1.0000000000
 S 1 
   1       0.3430122000      1.0000000000
 S 1 
   1       0.1669453000      1.0000000000
 P 2 
   1      13.5472892000     -0.6769313712
   2       5.4669419000     -0.3779500978
 P 1 
   1       2.1751721000      1.0000000000
 P 1 
   1       0.8582194000      1.0000000000
 P 1 
   1       0.3376720000      1.0000000000
 D 2 
   1       5.9287253000     -0.3533329857
   2       1.9809209000     -0.7456525731
 D 1 
   1       0.8055417000     -1.0000000000
 D 1 
   1       0.3531244000     -1.0000000000
 F 2 
   1       1.6755626000      0.6311076882
   2       0.5997536000      0.4968166032
 G 1 
   1       1.0024600000     -1.0000000000
  end;

 # Auxiliary/J basis set for element : O 
 NewAuxJGTO O 
 S 7 
   1    2876.8216605000      0.0168151159
   2    1004.7443032000      0.0340137548
   3     369.7579954000      0.1194951309
   4     142.9442404000      0.2664627624
   5      57.8366425000      0.4202764046
   6      24.3864983000      0.2765077335
   7      10.6622662000      0.0057008815
 S 1 
   1       4.8070437000     -1.0000000000
 S 1 
   1       2.2210770000      1.0000000000
 S 1 
   1       1.0447795000      1.0000000000
 S 1 
   1       0.4968425000      1.0000000000
 S 1 
   1       0.2371384000      1.0000000000
 P 2 
   1      64.2613382000     -0.2731534179
   2      16.3006076000     -0.8168011598
 P 1 
   1       4.3550542000      1.0000000000
 P 1 
   1       1.2019554000      1.0000000000
 P 1 
   1       0.3354196000      1.0000000000
 D 2 
   1       9.2146611000     -0.4661230638
   2       2.8435251000     -0.6600908911
 D 1 
   1       0.9955759000     -1.0000000000
 D 1 
   1       0.3649441000     -1.0000000000
 F 2 
   1       2.6420115000      0.5931563945
   2       0.7345613000      0.5931563945
 G 1 
   1       1.3931000000     -1.0000000000
  end;



           ************************************************************
           *        Program running with 4 parallel MPI-processes     *
           *              working on a common directory               *
           ************************************************************
------------------------------------------------------------------------------
                           ORCA GTO INTEGRAL CALCULATION
                           -- RI-GTO INTEGRALS CHOSEN --
------------------------------------------------------------------------------
------------------------------------------------------------------------------
                   ___                                                        
                  /   \      - P O W E R E D   B Y -                         
                 /     \                                                     
                 |  |  |   _    _      __       _____    __    __             
                 |  |  |  | |  | |    /  \     |  _  \  |  |  /  |          
                  \  \/   | |  | |   /    \    | | | |  |  | /  /          
                 / \  \   | |__| |  /  /\  \   | |_| |  |  |/  /          
                |  |  |   |  __  | /  /__\  \  |    /   |      \           
                |  |  |   | |  | | |   __   |  |    \   |  |\   \          
                \     /   | |  | | |  |  |  |  | |\  \  |  | \   \       
                 \___/    |_|  |_| |__|  |__|  |_| \__\ |__|  \__/        
                                                                              
                      - O R C A' S   B I G   F R I E N D -                    
                                      &                                       
                       - I N T E G R A L  F E E D E R -                       
                                                                              
 v1 FN, 2020, v2 2021                                                         
------------------------------------------------------------------------------


Reading SHARK input file inpJ.SHARKINP.tmp ... ok
----------------------
SHARK INTEGRAL PACKAGE
----------------------

Number of atoms                             ...     73
Number of basis functions                   ...    509
Number of shells                            ...    335
Maximum angular momentum                    ...      1
Integral batch strategy                     ... SHARK/LIBINT Hybrid
RI-J (if used) integral strategy            ... SPLIT-RIJ (Revised 2003 algorithm where possible)
Printlevel                                  ...      1
Contraction scheme used                     ... SEGMENTED contraction
Coulomb Range Separation                    ... NOT USED
Exchange Range Separation                   ... NOT USED
Finite Nucleus Model                        ... NOT USED
Auxiliary Coulomb fitting basis             ... AVAILABLE
   # of basis functions in Aux-J            ...   1905
   # of shells in Aux-J                     ...    655
   Maximum angular momentum in Aux-J        ...      4
Auxiliary J/K fitting basis                 ... NOT available
Auxiliary Correlation fitting basis         ... NOT available
Auxiliary 'external' fitting basis          ... NOT available
Integral threshold                          ...     3.000000e-11
Primitive cut-off                           ...     1.000000e-12
Primitive pair pre-selection threshold      ...     1.000000e-12

Calculating pre-screening integrals         ... done (  0.0 sec) Dimension = 335
Organizing shell pair data                  ... done (  0.1 sec)
Shell pair information
Total number of shell pairs                 ...     56280
Shell pairs after pre-screening             ...     21613
Total number of primitive shell pairs       ...    145865
Primitive shell pairs kept                  ...     37206
          la=0 lb=0:  10871 shell pairs
          la=1 lb=0:   8885 shell pairs
          la=1 lb=1:   1857 shell pairs

Calculating one electron integrals          ... done (  0.0 sec)
Calculating RI/J V-Matrix + Cholesky decomp.... done (  0.2 sec)
Calculating Nuclear repulsion               ... done (  0.0 sec) ENN=   2766.651020861877 Eh

SHARK setup successfully completed in   0.5 seconds

Maximum memory used throughout the entire GTOINT-calculation: 46.1 MB


           ************************************************************
           *        Program running with 4 parallel MPI-processes     *
           *              working on a common directory               *
           ************************************************************
-------------------------------------------------------------------------------
                                 ORCA SCF
-------------------------------------------------------------------------------

------------
SCF SETTINGS
------------
Hamiltonian:
 Density Functional     Method          .... DFT(GTOs)
 Exchange Functional    Exchange        .... PBE
   PBE kappa parameter   XKappa         ....  0.804000
   PBE mue parameter    XMuePBE         ....  0.219520
 Correlation Functional Correlation     .... PBE
   PBE beta parameter  CBetaPBE         ....  0.066725
 LDA part of GGA corr.  LDAOpt          .... PW91-LDA
 Gradients option       PostSCFGGA      .... off
 Hybrid DFT is turned on
   Fraction HF Exchange ScalHFX         ....  0.250000
   Scaling of DF-GGA-X  ScalDFX         ....  0.750000
   Scaling of DF-GGA-C  ScalDFC         ....  1.000000
   Scaling of DF-LDA-C  ScalLDAC        ....  1.000000
   Perturbative correction              ....  0.000000
   Density functional embedding theory  .... OFF
   NL short-range parameter             ....  6.900000
 RI-approximation to the Coulomb term is turned on
   Number of AuxJ basis functions       .... 1905
   RIJ-COSX (HFX calculated with COS-X)).... on


General Settings:
 Integral files         IntName         .... inpJ
 Hartree-Fock type      HFTyp           .... RHF
 Total Charge           Charge          ....    0
 Multiplicity           Mult            ....    1
 Number of Electrons    NEL             ....  220
 Basis Dimension        Dim             ....  509
 Nuclear Repulsion      ENuc            ....   2766.6510208619 Eh

Convergence Acceleration:
 DIIS                   CNVDIIS         .... on
   Start iteration      DIISMaxIt       ....    12
   Startup error        DIISStart       ....  0.200000
   # of expansion vecs  DIISMaxEq       ....     5
   Bias factor          DIISBfac        ....   1.050
   Max. coefficient     DIISMaxC        ....  10.000
 Trust-Rad. Augm. Hess. CNVTRAH         .... auto
   Auto Start mean grad. ratio tolernc. ....  1.125000
   Auto Start start iteration           ....    20
   Auto Start num. interpolation iter.  ....    10
   Max. Number of Micro iterations      ....    16
   Max. Number of Macro iterations      .... Maxiter - #DIIS iter
   Number of Davidson start vectors     ....     2
   Converg. threshold I  (grad. norm)   ....   1.000e-04
   Converg. threshold II (energy diff.) ....   1.000e-07
   Grad. Scal. Fac. for Micro threshold ....   0.100
   Minimum threshold for Micro iter.    ....   0.010
   NR start threshold (gradient norm)   ....   0.001
   Initial trust radius                 ....   0.400
   Minimum AH scaling param. (alpha)    ....   1.000
   Maximum AH scaling param. (alpha)    .... 1000.000
   Orbital update algorithm             .... Taylor
   White noise on init. David. guess    .... on
   Maximum white noise                  ....   0.010
   Quad. conv. algorithm                .... NR
 SOSCF                  CNVSOSCF        .... off
 Level Shifting         CNVShift        .... on
   Level shift para.    LevelShift      ....    0.2500
   Turn off err/grad.   ShiftErr        ....    0.0010
 Zerner damping         CNVZerner       .... off
 Static damping         CNVDamp         .... on
   Fraction old density DampFac         ....    0.7000
   Max. Damping (<1)    DampMax         ....    0.9800
   Min. Damping (>=0)   DampMin         ....    0.0000
   Turn off err/grad.   DampErr         ....    0.1000
 Fernandez-Rico         CNVRico         .... off

SCF Procedure:
 Maximum # iterations   MaxIter         ....   125
 SCF integral mode      SCFMode         .... Direct
   Integral package                     .... SHARK and LIBINT hybrid scheme
 Reset frequency        DirectResetFreq ....    20
 Integral Threshold     Thresh          ....  3.000e-11 Eh
 Primitive CutOff       TCut            ....  1.000e-12 Eh

Convergence Tolerance:
 Convergence Check Mode ConvCheckMode   .... Total+1el-Energy
 Convergence forced     ConvForced      .... 0
 Energy Change          TolE            ....  1.000e-07 Eh
 1-El. energy change                    ....  1.000e-04 Eh
 DIIS Error             TolErr          ....  1.000e-07


Diagonalization of the overlap matrix:
Smallest eigenvalue                        ... 7.542e-03
Time for diagonalization                   ...    0.030 sec
Threshold for overlap eigenvalues          ... 1.000e-08
Number of eigenvalues below threshold      ... 0
Time for construction of square roots      ...    0.028 sec
Total time needed                          ...    0.060 sec

Time for model grid setup =    0.786 sec

------------------------------
INITIAL GUESS: MODEL POTENTIAL
------------------------------
Loading Hartree-Fock densities                     ... done
Calculating cut-offs                               ... done
Initializing the effective Hamiltonian             ... done
Setting up the integral package (SHARK)            ... done
Starting the Coulomb interaction                   ... done (   0.4 sec)
Reading the grid                                   ... done
Mapping shells                                     ... done
Starting the XC term evaluation                    ... done (   0.2 sec)
  promolecular density results
     # of electrons  =    219.973464226
     EX              =   -164.433541965
     EC              =     -7.329244936
     EX+EC           =   -171.762786900
Transforming the Hamiltonian                       ... done (   0.0 sec)
Diagonalizing the Hamiltonian                      ... done (   0.0 sec)
Back transforming the eigenvectors                 ... done (   0.0 sec)
Now organizing SCF variables                       ... done
                      ------------------
                      INITIAL GUESS DONE (   1.4 sec)
                      ------------------
-------------------
DFT GRID GENERATION
-------------------

General Integration Accuracy     IntAcc      ... 4.388
Radial Grid Type                 RadialGrid  ... OptM3 with GC (2021)
Angular Grid (max. ang.)         AngularGrid ... 4 (Lebedev-302)
Angular grid pruning method      GridPruning ... 4 (adaptive)
Weight generation scheme         WeightScheme... Becke
Basis function cutoff            BFCut       ... 1.0000e-11
Integration weight cutoff        WCut        ... 1.0000e-14
Angular grids for H and He will be reduced by one unit
Partially contracted basis set               ... off
Rotationally invariant grid construction     ... off

Total number of grid points                  ...   309905
Total number of batches                      ...     4882
Average number of points per batch           ...       63
Average number of grid points per atom       ...     4245
Time for grid setup =    3.002 sec

--------------------
COSX GRID GENERATION
--------------------

GRIDX 1
-------
General Integration Accuracy     IntAcc      ... 3.816
Radial Grid Type                 RadialGrid  ... OptM3 with GC (2021)
Angular Grid (max. ang.)         AngularGrid ... 1 (Lebedev-50)
Angular grid pruning method      GridPruning ... 4 (adaptive)
Weight generation scheme         WeightScheme... Becke
Basis function cutoff            BFCut       ... 1.0000e-11
Integration weight cutoff        WCut        ... 1.0000e-14
Angular grids for H and He will be reduced by one unit
Partially contracted basis set               ... on
Rotationally invariant grid construction     ... off

Total number of grid points                  ...    39420
Total number of batches                      ...      657
Average number of points per batch           ...       60
Average number of grid points per atom       ...      540
UseSFitting                                  ... on

GRIDX 2
-------
General Integration Accuracy     IntAcc      ... 4.020
Radial Grid Type                 RadialGrid  ... OptM3 with GC (2021)
Angular Grid (max. ang.)         AngularGrid ... 2 (Lebedev-110)
Angular grid pruning method      GridPruning ... 4 (adaptive)
Weight generation scheme         WeightScheme... Becke
Basis function cutoff            BFCut       ... 1.0000e-11
Integration weight cutoff        WCut        ... 1.0000e-14
Angular grids for H and He will be reduced by one unit
Partially contracted basis set               ... on
Rotationally invariant grid construction     ... off

Total number of grid points                  ...    81400
Total number of batches                      ...     1306
Average number of points per batch           ...       62
Average number of grid points per atom       ...     1115
UseSFitting                                  ... on

GRIDX 3
-------
General Integration Accuracy     IntAcc      ... 4.338
Radial Grid Type                 RadialGrid  ... OptM3 with GC (2021)
Angular Grid (max. ang.)         AngularGrid ... 3 (Lebedev-194)
Angular grid pruning method      GridPruning ... 4 (adaptive)
Weight generation scheme         WeightScheme... Becke
Basis function cutoff            BFCut       ... 1.0000e-11
Integration weight cutoff        WCut        ... 1.0000e-14
Angular grids for H and He will be reduced by one unit
Partially contracted basis set               ... on
Rotationally invariant grid construction     ... off

Total number of grid points                  ...   176434
Total number of batches                      ...     2794
Average number of points per batch           ...       63
Average number of grid points per atom       ...     2417
UseSFitting                                  ... on

Time for X-Grid setup             =    3.119 sec


--------------------
CPCM SOLVATION MODEL
--------------------
CPCM parameters:
  Epsilon                                         ...       4.9000
  Refrac                                          ...       1.4500
  Rsolv                                           ...       1.3000
  Surface type                                    ... GAUSSIAN VDW
  Epsilon function type                           ...         CPCM
Radii:
 Radius for C  used is    3.8550 Bohr (=   2.0400 Ang.)
 Radius for H  used is    2.4944 Bohr (=   1.3200 Ang.)
 Radius for O  used is    3.4469 Bohr (=   1.8240 Ang.)
Calculating surface                               ...        done! (  0.0s)
GEPOL surface points                              ...         3607
GEPOL Volume                                      ...    3597.9955
GEPOL Surface-area                                ...    1781.2192
Calculating surface distance matrix               ...        done! (  0.1s)
Performing Cholesky decomposition & store         ...        done! (  0.6s)
Overall time for CPCM initialization              ...                 0.8s
--------------
SCF ITERATIONS
--------------
ITER       Energy         Delta-E        Max-DP      RMS-DP      [F,P]     Damp
               ***  Starting incremental Fock matrix formation  ***

  HOMO= 109 E= -3.994 eV LUMO=  7.697 eV gap=  11.691 eV
  0  -1165.0103165180   0.000000000000 0.09751558  0.00106483  0.1959541 0.7000

  HOMO= 109 E= -4.856 eV LUMO=  7.016 eV gap=  11.872 eV
  1  -1165.2288912507  -0.218574732724 0.06545415  0.00078373  0.0955366 0.7000
                               ***Turning on DIIS***

  HOMO= 109 E= -5.452 eV LUMO=  6.469 eV gap=  11.921 eV
  2  -1165.3296935503  -0.100802299542 0.10338259  0.00138845  0.0375588 0.0000

  HOMO= 109 E= -6.008 eV LUMO=  5.941 eV gap=  11.949 eV
  3  -1165.4739469082  -0.144253357910 0.05145348  0.00057139  0.0461410 0.0000

  HOMO= 109 E= -6.077 eV LUMO=  5.871 eV gap=  11.948 eV
  4  -1165.5094223315  -0.035475423348 0.01157554  0.00013435  0.0058340 0.0000

  HOMO= 109 E= -6.026 eV LUMO=  5.928 eV gap=  11.955 eV
  5  -1165.5102807359  -0.000858404389 0.00251410  0.00003804  0.0051981 0.0000

  HOMO= 109 E= -6.013 eV LUMO=  5.943 eV gap=  11.955 eV
  6  -1165.5103600108  -0.000079274862 0.00116647  0.00001173  0.0010611 0.0000

  HOMO= 109 E= -6.014 eV LUMO= -0.862 eV gap=   5.153 eV
  7  -1165.5103651370  -0.000005126194 0.00051350  0.00000603  0.0002375 0.0000
               *** Restarting incremental Fock matrix formation ***
                                   *** Resetting DIIS ***

  HOMO= 109 E= -6.014 eV LUMO= -0.860 eV gap=   5.153 eV
  8  -1165.5104203653  -0.000055228322 0.00033875  0.00000282  0.0001216 0.0000

  HOMO= 109 E= -6.014 eV LUMO= -0.860 eV gap=   5.154 eV
  9  -1165.5104203886  -0.000000023258 0.00013398  0.00000129  0.0001609 0.0000

  HOMO= 109 E= -6.014 eV LUMO= -0.861 eV gap=   5.154 eV
 10  -1165.5104205150  -0.000000126482 0.00006193  0.00000039  0.0000316 0.0000

  HOMO= 109 E= -6.014 eV LUMO= -0.861 eV gap=   5.154 eV
 11  -1165.5104205496  -0.000000034553 0.00002521  0.00000017  0.0000187 0.0000

  HOMO= 109 E= -6.014 eV LUMO= -0.861 eV gap=   5.154 eV
 12  -1165.5104205459   0.000000003672 0.00000742  0.00000005  0.0000035 0.0000
                 **** Energy Check signals convergence ****

               *****************************************************
               *                     SUCCESS                       *
               *           SCF CONVERGED AFTER  13 CYCLES          *
               *****************************************************

Old exchange energy                            =    -42.068169484 Eh
New exchange energy                            =    -42.068146514 Eh
Exchange energy change after final integration =      0.000022970 Eh
Total energy after final integration           =  -1165.510397583 Eh
Final COS-X integration done in                =    13.518 sec

----------------
TOTAL SCF ENERGY
----------------

Total Energy       :        -1165.51039758 Eh          -31715.15029 eV

Components:
Nuclear Repulsion  :         2766.65102086 Eh           75284.40166 eV
Electronic Energy  :        -3932.16141845 Eh         -106999.55195 eV
One Electron Energy:        -7074.99910382 Eh         -192520.51317 eV
Two Electron Energy:         3142.83768537 Eh           85520.96122 eV
Max COSX asymmetry :            0.00000191 Eh               0.00005 eV
CPCM Dielectric    :           -0.01359817 Eh              -0.37002 eV

Virial components:
Potential Energy   :        -2322.40727055 Eh          -63195.91465 eV
Kinetic Energy     :         1156.89687297 Eh           31480.76436 eV
Virial Ratio       :            2.00744537


DFT components:
N(Alpha)           :      110.000206738198 electrons
N(Beta)            :      110.000206738198 electrons
N(Total)           :      220.000413476395 electrons
E(X)               :     -125.746827998729 Eh       
E(C)               :       -7.329153979224 Eh       
E(XC)              :     -133.075981977953 Eh       
DFET-embed. en.    :        0.000000000000 Eh       
CPCM Solvation Model Properties:
Surface-charge          :           -0.03470705
Charge-correction       :           -0.00008267 Eh              -0.00225 eV
Free-energy (cav+disp)  :  This term is not implemented in the current solvation scheme

---------------
SCF CONVERGENCE
---------------

  Last Energy change         ...   -7.0384e-09  Tolerance :   1.0000e-07
  Last MAX-Density change    ...    0.0000e+00  Tolerance :   1.0000e-05
  Last RMS-Density change    ...    0.0000e+00  Tolerance :   1.0000e-06
  Last DIIS Error            ...    2.2710e-06  Tolerance :   1.0000e-07

             **** THE GBW FILE WAS UPDATED (inpJ.gbw) ****
             **** DENSITY inpJ.scfp WAS UPDATED ****
             **** ENERGY FILE WAS UPDATED (inpJ.en.tmp) ****
             **** THE GBW FILE WAS UPDATED (inpJ.gbw) ****
             **** DENSITY inpJ.scfp WAS UPDATED ****
----------------
ORBITAL ENERGIES
----------------

  NO   OCC          E(Eh)            E(eV) 
   0   2.0000     -19.212433      -522.7969 
   1   2.0000     -10.300538      -280.2919 
   2   2.0000     -10.270468      -279.4737 
   3   2.0000     -10.268384      -279.4169 
   4   2.0000     -10.264065      -279.2994 
   5   2.0000     -10.257504      -279.1209 
   6   2.0000     -10.257377      -279.1174 
   7   2.0000     -10.252083      -278.9734 
   8   2.0000     -10.251363      -278.9538 
   9   2.0000     -10.250151      -278.9208 
  10   2.0000     -10.248185      -278.8673 
  11   2.0000     -10.247680      -278.8536 
  12   2.0000     -10.246817      -278.8301 
  13   2.0000     -10.246631      -278.8250 
  14   2.0000     -10.244666      -278.7715 
  15   2.0000     -10.243046      -278.7274 
  16   2.0000     -10.242029      -278.6998 
  17   2.0000     -10.241828      -278.6943 
  18   2.0000     -10.241418      -278.6832 
  19   2.0000     -10.241059      -278.6734 
  20   2.0000     -10.240142      -278.6484 
  21   2.0000     -10.235749      -278.5289 
  22   2.0000     -10.235374      -278.5187 
  23   2.0000     -10.234179      -278.4862 
  24   2.0000     -10.224543      -278.2239 
  25   2.0000     -10.224517      -278.2233 
  26   2.0000     -10.224437      -278.2211 
  27   2.0000     -10.224300      -278.2174 
  28   2.0000     -10.221327      -278.1364 
  29   2.0000      -1.043156       -28.3857 
  30   2.0000      -0.902007       -24.5449 
  31   2.0000      -0.882304       -24.0087 
  32   2.0000      -0.859974       -23.4011 
  33   2.0000      -0.846452       -23.0331 
  34   2.0000      -0.822728       -22.3876 
  35   2.0000      -0.814929       -22.1754 
  36   2.0000      -0.796144       -21.6642 
  37   2.0000      -0.795136       -21.6368 
  38   2.0000      -0.777000       -21.1432 
  39   2.0000      -0.758942       -20.6519 
  40   2.0000      -0.741733       -20.1836 
  41   2.0000      -0.731218       -19.8975 
  42   2.0000      -0.715565       -19.4715 
  43   2.0000      -0.703126       -19.1330 
  44   2.0000      -0.702197       -19.1077 
  45   2.0000      -0.696447       -18.9513 
  46   2.0000      -0.671166       -18.2634 
  47   2.0000      -0.664976       -18.0949 
  48   2.0000      -0.635126       -17.2827 
  49   2.0000      -0.622448       -16.9377 
  50   2.0000      -0.613482       -16.6937 
  51   2.0000      -0.606808       -16.5121 
  52   2.0000      -0.597814       -16.2674 
  53   2.0000      -0.584059       -15.8931 
  54   2.0000      -0.558587       -15.1999 
  55   2.0000      -0.541347       -14.7308 
  56   2.0000      -0.532389       -14.4870 
  57   2.0000      -0.529428       -14.4065 
  58   2.0000      -0.515402       -14.0248 
  59   2.0000      -0.511691       -13.9238 
  60   2.0000      -0.506686       -13.7876 
  61   2.0000      -0.494461       -13.4550 
  62   2.0000      -0.481439       -13.1006 
  63   2.0000      -0.477838       -13.0026 
  64   2.0000      -0.470852       -12.8125 
  65   2.0000      -0.466652       -12.6983 
  66   2.0000      -0.465149       -12.6574 
  67   2.0000      -0.463346       -12.6083 
  68   2.0000      -0.459403       -12.5010 
  69   2.0000      -0.456649       -12.4261 
  70   2.0000      -0.450736       -12.2652 
  71   2.0000      -0.444577       -12.0976 
  72   2.0000      -0.436614       -11.8809 
  73   2.0000      -0.435241       -11.8435 
  74   2.0000      -0.431155       -11.7323 
  75   2.0000      -0.422223       -11.4893 
  76   2.0000      -0.420824       -11.4512 
  77   2.0000      -0.413909       -11.2630 
  78   2.0000      -0.413152       -11.2424 
  79   2.0000      -0.403968       -10.9925 
  80   2.0000      -0.400333       -10.8936 
  81   2.0000      -0.397095       -10.8055 
  82   2.0000      -0.396315       -10.7843 
  83   2.0000      -0.388087       -10.5604 
  84   2.0000      -0.382342       -10.4040 
  85   2.0000      -0.377064       -10.2604 
  86   2.0000      -0.376527       -10.2458 
  87   2.0000      -0.373722       -10.1695 
  88   2.0000      -0.366873        -9.9831 
  89   2.0000      -0.364290        -9.9128 
  90   2.0000      -0.361607        -9.8398 
  91   2.0000      -0.359912        -9.7937 
  92   2.0000      -0.351103        -9.5540 
  93   2.0000      -0.345989        -9.4148 
  94   2.0000      -0.343735        -9.3535 
  95   2.0000      -0.339787        -9.2461 
  96   2.0000      -0.336749        -9.1634 
  97   2.0000      -0.334221        -9.0946 
  98   2.0000      -0.331788        -9.0284 
  99   2.0000      -0.329294        -8.9606 
 100   2.0000      -0.327568        -8.9136 
 101   2.0000      -0.324460        -8.8290 
 102   2.0000      -0.320250        -8.7144 
 103   2.0000      -0.319128        -8.6839 
 104   2.0000      -0.311504        -8.4764 
 105   2.0000      -0.301909        -8.2154 
 106   2.0000      -0.276689        -7.5291 
 107   2.0000      -0.275008        -7.4833 
 108   2.0000      -0.255061        -6.9406 
 109   2.0000      -0.221019        -6.0142 
 110   0.0000      -0.031623        -0.8605 
 111   0.0000       0.019174         0.5217 
 112   0.0000       0.029832         0.8118 
 113   0.0000       0.081788         2.2256 
 114   0.0000       0.092462         2.5160 
 115   0.0000       0.099169         2.6985 
 116   0.0000       0.103601         2.8191 
 117   0.0000       0.107606         2.9281 
 118   0.0000       0.108854         2.9621 
 119   0.0000       0.113369         3.0849 
 120   0.0000       0.117804         3.2056 
 121   0.0000       0.119701         3.2572 
 122   0.0000       0.123474         3.3599 
 123   0.0000       0.128128         3.4865 
 124   0.0000       0.130471         3.5503 
 125   0.0000       0.135872         3.6973 
 126   0.0000       0.139210         3.7881 
 127   0.0000       0.140941         3.8352 
 128   0.0000       0.142609         3.8806 
 129   0.0000       0.150565         4.0971 
 130   0.0000       0.155113         4.2208 
 131   0.0000       0.161052         4.3825 
 132   0.0000       0.162565         4.4236 
 133   0.0000       0.165237         4.4963 
 134   0.0000       0.165561         4.5051 
 135   0.0000       0.169987         4.6256 
 136   0.0000       0.174473         4.7477 
 137   0.0000       0.175694         4.7809 
 138   0.0000       0.177425         4.8280 
 139   0.0000       0.178578         4.8594 
 140   0.0000       0.180528         4.9124 
 141   0.0000       0.184208         5.0126 
 142   0.0000       0.187162         5.0929 
 143   0.0000       0.192661         5.2426 
 144   0.0000       0.194882         5.3030 
 145   0.0000       0.197313         5.3691 
 146   0.0000       0.200737         5.4623 
 147   0.0000       0.202837         5.5195 
 148   0.0000       0.204420         5.5626 
 149   0.0000       0.208146         5.6640 
 150   0.0000       0.211586         5.7576 
 151   0.0000       0.219578         5.9750 
 152   0.0000       0.222144         6.0448 
 153   0.0000       0.224748         6.1157 
 154   0.0000       0.231853         6.3090 
 155   0.0000       0.232886         6.3372 
 156   0.0000       0.244359         6.6493 
 157   0.0000       0.246032         6.6949 
 158   0.0000       0.249602         6.7920 
 159   0.0000       0.251198         6.8354 
 160   0.0000       0.255051         6.9403 
 161   0.0000       0.257523         7.0076 
 162   0.0000       0.266442         7.2503 
 163   0.0000       0.267482         7.2785 
 164   0.0000       0.269186         7.3249 
 165   0.0000       0.272032         7.4024 
 166   0.0000       0.276053         7.5118 
 167   0.0000       0.278753         7.5852 
 168   0.0000       0.280994         7.6462 
 169   0.0000       0.289680         7.8826 
 170   0.0000       0.295627         8.0444 
 171   0.0000       0.299585         8.1521 
 172   0.0000       0.302719         8.2374 
 173   0.0000       0.305490         8.3128 
 174   0.0000       0.307274         8.3614 
 175   0.0000       0.318084         8.6555 
 176   0.0000       0.319127         8.6839 
 177   0.0000       0.336743         9.1632 
 178   0.0000       0.348516         9.4836 
 179   0.0000       0.354114         9.6359 
 180   0.0000       0.363533         9.8922 
 181   0.0000       0.378797        10.3076 
 182   0.0000       0.381138        10.3713 
 183   0.0000       0.409020        11.1300 
 184   0.0000       0.421481        11.4691 
 185   0.0000       0.463698        12.6179 
 186   0.0000       0.482047        13.1172 
 187   0.0000       0.490236        13.3400 
 188   0.0000       0.503363        13.6972 
 189   0.0000       0.517375        14.0785 
 190   0.0000       0.520795        14.1716 
 191   0.0000       0.528857        14.3909 
 192   0.0000       0.553254        15.0548 
 193   0.0000       0.563099        15.3227 
 194   0.0000       0.564427        15.3588 
 195   0.0000       0.571445        15.5498 
 196   0.0000       0.574901        15.6439 
 197   0.0000       0.579863        15.7789 
 198   0.0000       0.589406        16.0386 
 199   0.0000       0.607306        16.5256 
 200   0.0000       0.616863        16.7857 
 201   0.0000       0.629038        17.1170 
 202   0.0000       0.630066        17.1450 
 203   0.0000       0.641843        17.4654 
 204   0.0000       0.646184        17.5836 
 205   0.0000       0.650061        17.6891 
 206   0.0000       0.659874        17.9561 
 207   0.0000       0.664234        18.0747 
 208   0.0000       0.668576        18.1929 
 209   0.0000       0.670603        18.2480 
 210   0.0000       0.679406        18.4876 
 211   0.0000       0.687733        18.7142 
 212   0.0000       0.693050        18.8589 
 213   0.0000       0.699432        19.0325 
 214   0.0000       0.706535        19.2258 
 215   0.0000       0.709186        19.2979 
 216   0.0000       0.714883        19.4530 
 217   0.0000       0.720095        19.5948 
 218   0.0000       0.726553        19.7705 
 219   0.0000       0.729083        19.8394 
 220   0.0000       0.732361        19.9285 
 221   0.0000       0.736693        20.0464 
 222   0.0000       0.741879        20.1876 
 223   0.0000       0.742902        20.2154 
 224   0.0000       0.747805        20.3488 
 225   0.0000       0.750314        20.4171 
 226   0.0000       0.755750        20.5650 
 227   0.0000       0.761064        20.7096 
 228   0.0000       0.763051        20.7637 
 229   0.0000       0.764993        20.8165 
 230   0.0000       0.772481        21.0203 
 231   0.0000       0.775687        21.1075 
 232   0.0000       0.779592        21.2138 
 233   0.0000       0.781410        21.2633 
 234   0.0000       0.790704        21.5161 
 235   0.0000       0.795211        21.6388 
 236   0.0000       0.798654        21.7325 
 237   0.0000       0.803475        21.8637 
 238   0.0000       0.812244        22.1023 
 239   0.0000       0.814600        22.1664 
 240   0.0000       0.823424        22.4065 
 241   0.0000       0.827484        22.5170 
 242   0.0000       0.838041        22.8042 
 243   0.0000       0.848906        23.0999 
 244   0.0000       0.851134        23.1605 
 245   0.0000       0.855567        23.2812 
 246   0.0000       0.859719        23.3941 
 247   0.0000       0.860433        23.4136 
 248   0.0000       0.866622        23.5820 
 249   0.0000       0.869957        23.6727 
 250   0.0000       0.871333        23.7102 
 251   0.0000       0.871866        23.7247 
 252   0.0000       0.875904        23.8346 
 253   0.0000       0.876958        23.8632 
 254   0.0000       0.879143        23.9227 
 255   0.0000       0.881471        23.9860 
 256   0.0000       0.885804        24.1040 
 257   0.0000       0.889677        24.2093 
 258   0.0000       0.894207        24.3326 
 259   0.0000       0.894872        24.3507 
 260   0.0000       0.897271        24.4160 
 261   0.0000       0.901490        24.5308 
 262   0.0000       0.903801        24.5937 
 263   0.0000       0.910823        24.7848 
 264   0.0000       0.915790        24.9199 
 265   0.0000       0.919065        25.0090 
 266   0.0000       0.923119        25.1194 
 267   0.0000       0.926180        25.2026 
 268   0.0000       0.930334        25.3157 
 269   0.0000       0.932798        25.3827 
 270   0.0000       0.936549        25.4848 
 271   0.0000       0.941301        25.6141 
 272   0.0000       0.948863        25.8199 
 273   0.0000       0.950917        25.8758 
 274   0.0000       0.956363        26.0240 
 275   0.0000       0.960696        26.1419 
 276   0.0000       0.964470        26.2446 
 277   0.0000       0.967425        26.3250 
 278   0.0000       0.975314        26.5396 
 279   0.0000       0.979023        26.6406 
 280   0.0000       0.989808        26.9341 
 281   0.0000       0.995607        27.0918 
 282   0.0000       1.004319        27.3289 
 283   0.0000       1.005655        27.3653 
 284   0.0000       1.015376        27.6298 
 285   0.0000       1.022404        27.8210 
 286   0.0000       1.029194        28.0058 
 287   0.0000       1.031165        28.0594 
 288   0.0000       1.042155        28.3585 
 289   0.0000       1.063451        28.9380 
 290   0.0000       1.069132        29.0926 
 291   0.0000       1.070276        29.1237 
 292   0.0000       1.082823        29.4651 
 293   0.0000       1.090572        29.6760 
 294   0.0000       1.106478        30.1088 
 295   0.0000       1.110383        30.2151 
 296   0.0000       1.120825        30.4992 
 297   0.0000       1.127619        30.6841 
 298   0.0000       1.140923        31.0461 
 299   0.0000       1.148267        31.2459 
 300   0.0000       1.164785        31.6954 
 301   0.0000       1.176047        32.0019 
 302   0.0000       1.197423        32.5835 
 303   0.0000       1.217517        33.1303 
 304   0.0000       1.232920        33.5495 
 305   0.0000       1.238378        33.6980 
 306   0.0000       1.244381        33.8613 
 307   0.0000       1.264729        34.4150 
 308   0.0000       1.298173        35.3251 
 309   0.0000       1.311861        35.6976 
 310   0.0000       1.329971        36.1904 
 311   0.0000       1.340392        36.4739 
 312   0.0000       1.362838        37.0847 
 313   0.0000       1.374766        37.4093 
 314   0.0000       1.412134        38.4261 
 315   0.0000       1.525744        41.5176 
 316   0.0000       1.528432        41.5908 
 317   0.0000       1.562743        42.5244 
 318   0.0000       1.591619        43.3101 
 319   0.0000       1.675310        45.5875 
 320   0.0000       6.202011       168.7653 
 321   0.0000       6.232116       169.5845 
 322   0.0000       6.244236       169.9143 
 323   0.0000       6.274102       170.7270 
 324   0.0000       6.288355       171.1148 
 325   0.0000       6.294152       171.2726 
 326   0.0000       6.303661       171.5313 
 327   0.0000       6.315944       171.8656 
 328   0.0000       6.321998       172.0303 
 329   0.0000       6.326663       172.1572 
 330   0.0000       6.342393       172.5853 
 331   0.0000       6.351243       172.8261 
 332   0.0000       6.361859       173.1150 
 333   0.0000       6.378010       173.5545 
 334   0.0000       6.387716       173.8186 
 335   0.0000       6.394634       174.0068 
 336   0.0000       6.401151       174.1842 
 337   0.0000       6.407624       174.3603 
 338   0.0000       6.415239       174.5675 
 339   0.0000       6.420087       174.6994 
 340   0.0000       6.425292       174.8411 
 341   0.0000       6.440839       175.2641 
 342   0.0000       6.447028       175.4326 
 343   0.0000       6.454572       175.6378 
 344   0.0000       6.474253       176.1734 
 345   0.0000       6.477837       176.2709 
 346   0.0000       6.485240       176.4724 
 347   0.0000       6.494509       176.7246 
 348   0.0000       6.508006       177.0918 
 349   0.0000       6.515214       177.2880 
 350   0.0000       6.526340       177.5907 
 351   0.0000       6.531417       177.7289 
 352   0.0000       6.540738       177.9825 
 353   0.0000       6.545091       178.1010 
 354   0.0000       6.549950       178.2332 
 355   0.0000       6.553195       178.3215 
 356   0.0000       6.559722       178.4991 
 357   0.0000       6.563896       178.6127 
 358   0.0000       6.569744       178.7718 
 359   0.0000       6.576939       178.9676 
 360   0.0000       6.579701       179.0428 
 361   0.0000       6.585990       179.2139 
 362   0.0000       6.587908       179.2661 
 363   0.0000       6.594354       179.4415 
 364   0.0000       6.607060       179.7872 
 365   0.0000       6.608590       179.8289 
 366   0.0000       6.613527       179.9632 
 367   0.0000       6.614878       180.0000 
 368   0.0000       6.617545       180.0726 
 369   0.0000       6.622968       180.2201 
 370   0.0000       6.627216       180.3357 
 371   0.0000       6.629878       180.4082 
 372   0.0000       6.632843       180.4888 
 373   0.0000       6.635793       180.5691 
 374   0.0000       6.639850       180.6795 
[...]
     69 H        0.000      0.000      0.000      0.000      0.000      0.000
     70 H        0.000      0.000      0.000     -0.000      0.001      0.018
     71 H        0.000      0.000      0.000      0.000      0.001      0.011
     72 H        0.000      0.000      0.000      0.000      0.003      0.034
                 25 H       27 H       28 H       30 H       31 H       33 H  
      3 H        0.074     -0.003      0.002      0.000      0.000      0.087
      4 H        2.372     -0.106      0.060      0.000      0.000      2.610
      8 H        0.131      0.000      0.000      0.000      0.000      0.120
      9 H       -0.257      0.014      0.000      0.000      0.000     -0.302
     10 H        0.000      0.000      0.000      0.000      0.000      0.000
     11 H        0.000      0.000      0.000      0.000      0.000      0.000
     13 H       -0.038      0.000      0.000      0.000      0.000      0.000
     16 H       -0.262      0.013     -0.004     -0.029     -0.002     -0.300
     17 H       -0.235      0.012      0.000      0.000      0.000     -0.288
     19 H        0.901     -0.043      0.065      0.061      0.004      0.967
     21 H       -2.882      0.185      0.681     -0.223     -0.027     -2.444
     24 H      -13.608      4.380      2.297      0.665     -0.502     -0.146
     25 H        0.000     12.981      5.311     -0.638     -0.355     -2.240
     27 H       12.981      0.000    -13.656      4.014     13.017      0.065
     28 H        5.311    -13.656      0.000      2.632      4.135      0.285
     30 H       -0.638      4.014      2.632      0.000    -13.023      0.044
     31 H       -0.355     13.017      4.135    -13.023      0.000     -0.324
     33 H       -2.240      0.065      0.285      0.044     -0.324      0.000
     35 H       -0.024      0.001     -0.001      0.000     -0.000     -0.032
     37 H        0.280      0.005     -0.036      0.516     -0.037      6.494
     38 H        0.177      0.001     -0.029     -0.014      0.128     12.235
     40 H       -0.013      0.019      0.148     -0.003     -0.034     -0.247
     41 H        0.010      0.022     -0.025      0.014      0.078     -0.433
     42 H       -0.018      0.015     -0.015     -0.255     -0.369     -0.214
     45 H       -0.058     -0.121     -0.142     -0.150      1.851     -0.464
     46 H       -0.014     -0.223      0.014     -0.201     -0.466     -0.196
     47 H        0.014      0.044      0.066     -0.316      0.037      0.891
     48 H       -0.017      0.028      0.024      0.039      0.007     -0.020
     52 H        0.001      0.000      0.003     -0.014     -0.001      0.004
     53 H       -0.001     -0.000     -0.000     -0.002     -0.003     -0.007
     57 H        0.000      0.000      0.000      0.003      0.004      0.007
     58 H        0.000      0.000      0.000     -0.000     -0.000      0.000
     61 H        0.000      0.000      0.000     -0.000     -0.000     -0.000
     62 H        0.000      0.000      0.000      0.000      0.000      0.000
     63 H        0.000      0.000      0.000     -0.000     -0.000     -0.000
     64 H        0.000      0.000      0.000     -0.000      0.000      0.000
     65 H        0.000      0.000      0.000     -0.000      0.000      0.000
     66 H        0.000      0.000      0.000      0.000      0.000      0.000
     67 H        0.000      0.000      0.000      0.000      0.000      0.000
     68 H        0.000      0.000      0.000      0.000      0.000      0.000
     69 H        0.000      0.000      0.000      0.000      0.000      0.000
     70 H        0.003     -0.007     -0.008     -0.477     -0.093      0.004
     71 H       -0.000     -0.003     -0.004      0.057      0.005     -0.001
     72 H        0.000     -0.009     -0.010      0.068     -0.050      0.005
                 35 H       37 H       38 H       40 H       41 H       42 H  
      3 H       -0.271     -0.001     -0.001      0.000      0.000      0.000
      4 H       -0.649     -0.044     -0.019      0.000      0.000      0.000
      8 H       -0.030     -0.003     -0.002      0.000     -0.000      0.000
      9 H       -0.148      0.005      0.002      0.000      0.001      0.000
     10 H       -0.397     -0.000     -0.000      0.000      0.000      0.000
     11 H       -0.144     -0.002     -0.000      0.000      0.000      0.000
     13 H       12.473      0.000      0.000      0.000      0.000      0.000
     16 H       -0.002      0.004      0.004      0.000      0.001     -0.001
     17 H       -0.000      0.005      0.004     -0.000      0.001      0.000
     19 H        0.039     -0.015      0.086      0.011     -0.005      0.004
     21 H       -0.014      0.055     -0.570     -0.010      0.060     -0.023
     24 H       -0.001     -0.054     -0.079     -0.020      0.066     -0.024
     25 H       -0.024      0.280      0.177     -0.013      0.010     -0.018
     27 H        0.001      0.005      0.001      0.019      0.022      0.015
     28 H       -0.001     -0.036     -0.029      0.148     -0.025     -0.015
     30 H        0.000      0.516     -0.014     -0.003      0.014     -0.255
     31 H       -0.000     -0.037      0.128     -0.034      0.078     -0.369
     33 H       -0.032      6.494     12.235     -0.247     -0.433     -0.214
     35 H        0.000      0.000     -0.000      0.000      0.000      0.000
     37 H        0.000      0.000    -12.247      9.544      2.604     -0.260
     38 H       -0.000    -12.247      0.000      6.647     11.574     -0.488
     40 H        0.000      9.544      6.647      0.000    -13.279      9.280
     41 H        0.000      2.604     11.574    -13.279      0.000      8.772
     42 H        0.000     -0.260     -0.488      9.280      8.772      0.000
     45 H       -0.000      0.071     -0.063     -0.116     -0.063     -0.093
     46 H        0.000      0.058      0.033     -0.083      0.005      1.126
     47 H        0.000     -0.166      0.013      0.052      0.041     -0.415
     48 H        0.000      0.116     -0.006     -0.199     -0.434     10.589
     52 H        0.000     -0.016     -0.014      0.204     -0.198     -0.172
     53 H        0.000     -0.004     -0.007     -0.012      0.101      0.125
     57 H        0.000     -0.002      0.001      0.042      0.003     -0.107
     58 H        0.000      0.000      0.000     -0.003      0.000      0.005
     61 H        0.000     -0.000     -0.000     -0.002     -0.001      0.000
     62 H        0.000     -0.000     -0.000     -0.002     -0.001     -0.001
     63 H        0.000      0.000     -0.000     -0.013     -0.003      0.002
     64 H        0.000      0.000      0.000     -0.000      0.000      0.000
     65 H        0.000      0.000      0.000      0.001     -0.000     -0.001
     66 H        0.000      0.000      0.000     -0.000      0.001      0.001
     67 H        0.000      0.000      0.000      0.000      0.000     -0.001
     68 H        0.000      0.000      0.000      0.003      0.000      0.000
     69 H        0.000      0.000      0.000     -0.000     -0.000      0.001
     70 H        0.000     -0.005      0.000      0.084      0.031     -0.205
     71 H        0.000     -0.021      0.037      0.022     -0.044     -0.357
     72 H        0.000      0.065      0.015     -0.051      0.003     -0.463
                 45 H       46 H       47 H       48 H       52 H       53 H  
      3 H        0.001     -0.000     -0.001      0.000      0.000      0.000
      4 H        0.025     -0.018      0.000      0.000      0.000      0.000
      8 H        0.001     -0.001      0.000      0.000      0.000      0.000
      9 H       -0.003      0.002      0.000      0.000      0.000      0.000
     10 H        0.000     -0.000      0.000      0.000      0.000      0.000
     11 H        0.000      0.000      0.000      0.000      0.000      0.000
     13 H        0.000      0.000      0.000      0.000      0.000      0.000
     16 H       -0.003      0.001      0.002     -0.002      0.000      0.000
     17 H       -0.003      0.001      0.001     -0.002      0.000      0.000
     19 H        0.009     -0.010     -0.007      0.006      0.000      0.000
     21 H       -0.016      0.041      0.014     -0.017      0.001      0.000
     24 H       -0.022     -0.023     -0.016      0.005      0.000      0.000
     25 H       -0.058     -0.014      0.014     -0.017      0.001     -0.001
     27 H       -0.121     -0.223      0.044      0.028      0.000     -0.000
     28 H       -0.142      0.014      0.066      0.024      0.003     -0.000
     30 H       -0.150     -0.201     -0.316      0.039     -0.014     -0.002
     31 H        1.851     -0.466      0.037      0.007     -0.001     -0.003
     33 H       -0.464     -0.196      0.891     -0.020      0.004     -0.007
     35 H       -0.000      0.000      0.000      0.000      0.000      0.000
     37 H        0.071      0.058     -0.166      0.116     -0.016     -0.004
     38 H       -0.063      0.033      0.013     -0.006     -0.014     -0.007
     40 H       -0.116     -0.083      0.052     -0.199      0.204     -0.012
     41 H       -0.063      0.005      0.041     -0.434     -0.198      0.101
     42 H       -0.093      1.126     -0.415     10.589     -0.172      0.125
     45 H        0.000    -13.670    -13.073     -0.212      0.006     -0.016
     46 H      -13.670      0.000    -13.047     -0.178      0.024     -0.040
     47 H      -13.073    -13.047      0.000     -0.103      0.005     -0.009
     48 H       -0.212     -0.178     -0.103      0.000      4.904     -2.375
     52 H        0.006      0.024      0.005      4.904      0.000     17.376
     53 H       -0.016     -0.040     -0.009     -2.375     17.376      0.000
     57 H        0.011      0.000      0.010      1.458     -2.178      5.344
     58 H       -0.001      0.000     -0.001     -0.148      0.153     -0.186
     61 H       -0.000      0.000     -0.000     -0.039     -0.234     -0.541
     62 H       -0.000      0.000      0.000     -0.067     -0.233      0.675
     63 H       -0.000     -0.001     -0.000     -0.050     -0.186     -0.394
     64 H        0.000      0.000     -0.000     -0.002      0.045     -0.109
     65 H        0.000      0.000      0.000      0.026      0.017     -0.030
     66 H        0.000      0.000      0.000     -0.019      0.132      0.117
     67 H        0.000      0.000      0.000      0.001     -0.012      0.038
     68 H        0.000      0.000      0.000      0.193     -0.073      0.029
     69 H        0.000      0.000      0.000     -0.020      0.016      0.006
     70 H       -0.019     -0.061     -0.250      5.077      0.718     -0.227
     71 H        0.029     -0.033     -0.045     12.600     -0.529     -0.233
     72 H       -0.010     -0.031     -0.020      2.043     -0.394     -0.250
                 57 H       58 H       61 H       62 H       63 H       64 H  
      3 H        0.000      0.000      0.000      0.000      0.000      0.000
      4 H        0.000      0.000      0.000      0.000      0.000      0.000
      8 H        0.000      0.000      0.000      0.000      0.000      0.000
      9 H        0.000      0.000      0.000      0.000      0.000      0.000
     10 H        0.000      0.000      0.000      0.000      0.000      0.000
     11 H        0.000      0.000      0.000      0.000      0.000      0.000
     13 H        0.000      0.000      0.000      0.000      0.000      0.000
     16 H        0.000      0.000      0.000      0.000      0.000      0.000
     17 H        0.000      0.000      0.000      0.000      0.000      0.000
     19 H        0.000      0.000      0.000      0.000      0.000      0.000
     21 H        0.000      0.000      0.000      0.000      0.000      0.000
     24 H        0.000      0.000      0.000      0.000      0.000      0.000
     25 H        0.000      0.000      0.000      0.000      0.000      0.000
     27 H        0.000      0.000      0.000      0.000      0.000      0.000
     28 H        0.000      0.000      0.000      0.000      0.000      0.000
     30 H        0.003     -0.000     -0.000      0.000     -0.000     -0.000
     31 H        0.004     -0.000     -0.000      0.000     -0.000      0.000
     33 H        0.007      0.000     -0.000      0.000     -0.000      0.000
     35 H        0.000      0.000      0.000      0.000      0.000      0.000
     37 H       -0.002      0.000     -0.000     -0.000      0.000      0.000
     38 H        0.001      0.000     -0.000     -0.000     -0.000      0.000
     40 H        0.042     -0.003     -0.002     -0.002     -0.013     -0.000
     41 H        0.003      0.000     -0.001     -0.001     -0.003      0.000
     42 H       -0.107      0.005      0.000     -0.001      0.002      0.000
     45 H        0.011     -0.001     -0.000     -0.000     -0.000      0.000
     46 H        0.000      0.000      0.000      0.000     -0.001      0.000
     47 H        0.010     -0.001     -0.000      0.000     -0.000     -0.000
     48 H        1.458     -0.148     -0.039     -0.067     -0.050     -0.002
     52 H       -2.178      0.153     -0.234     -0.233     -0.186      0.045
     53 H        5.344     -0.186     -0.541      0.675     -0.394     -0.109
     57 H        0.000      9.801     12.684      4.994      2.068     -0.205
     58 H        9.801      0.000     -0.363     -0.207     -0.429      4.192
     61 H       12.684     -0.363      0.000    -12.751    -12.444      0.059
     62 H        4.994     -0.207    -12.751      0.000    -13.473      0.030
     63 H        2.068     -0.429    -12.444    -13.473      0.000      0.007
     64 H       -0.205      4.192      0.059      0.030      0.007      0.000
     65 H       -0.391     12.638      0.030      0.043     -0.058    -12.155
     66 H       -0.426      2.481     -0.025      0.009      0.718    -13.067
     67 H       -0.241      4.211     -0.022     -0.238      0.016      2.894
     68 H       -0.457      2.379      0.016     -0.007     -0.069      0.135
     69 H       -0.362     12.752      0.080     -0.018      0.012     -0.368
     70 H       -0.058      0.000      0.008      0.134      0.023     -0.001
     71 H       -0.033      0.001     -0.009      0.008     -0.006     -0.003
     72 H       -0.017      0.002     -0.006      0.024      0.010     -0.018
                 65 H       66 H       67 H       68 H       69 H       70 H  
      3 H        0.000      0.000      0.000      0.000      0.000      0.000
      4 H        0.000      0.000      0.000      0.000      0.000      0.000
      8 H        0.000      0.000      0.000      0.000      0.000      0.000
      9 H        0.000      0.000      0.000      0.000      0.000      0.000
     10 H        0.000      0.000      0.000      0.000      0.000      0.000
     11 H        0.000      0.000      0.000      0.000      0.000      0.000
     13 H        0.000      0.000      0.000      0.000      0.000      0.000
     16 H        0.000      0.000      0.000      0.000      0.000      0.000
     17 H        0.000      0.000      0.000      0.000      0.000      0.000
     19 H        0.000      0.000      0.000      0.000      0.000     -0.000
     21 H        0.000      0.000      0.000      0.000      0.000      0.001
     24 H        0.000      0.000      0.000      0.000      0.000      0.018
     25 H        0.000      0.000      0.000      0.000      0.000      0.003
     27 H        0.000      0.000      0.000      0.000      0.000     -0.007
     28 H        0.000      0.000      0.000      0.000      0.000     -0.008
     30 H       -0.000      0.000      0.000      0.000      0.000     -0.477
     31 H        0.000      0.000      0.000      0.000      0.000     -0.093
     33 H        0.000      0.000      0.000      0.000      0.000      0.004
     35 H        0.000      0.000      0.000      0.000      0.000      0.000
     37 H        0.000      0.000      0.000      0.000      0.000     -0.005
     38 H        0.000      0.000      0.000      0.000      0.000      0.000
     40 H        0.001     -0.000      0.000      0.003     -0.000      0.084
     41 H       -0.000      0.001      0.000      0.000     -0.000      0.031
     42 H       -0.001      0.001     -0.001      0.000      0.001     -0.205
     45 H        0.000      0.000      0.000      0.000      0.000     -0.019
     46 H        0.000      0.000      0.000      0.000      0.000     -0.061
     47 H        0.000      0.000      0.000      0.000      0.000     -0.250
     48 H        0.026     -0.019      0.001      0.193     -0.020      5.077
     52 H        0.017      0.132     -0.012     -0.073      0.016      0.718
     53 H       -0.030      0.117      0.038      0.029      0.006     -0.227
     57 H       -0.391     -0.426     -0.241     -0.457     -0.362     -0.058
     58 H       12.638      2.481      4.211      2.379     12.752      0.000
     61 H        0.030     -0.025     -0.022      0.016      0.080      0.008
     62 H        0.043      0.009     -0.238     -0.007     -0.018      0.134
     63 H       -0.058      0.718      0.016     -0.069      0.012      0.023
     64 H      -12.155    -13.067      2.894      0.135     -0.368     -0.001
     65 H        0.000    -12.777     -0.376     -0.229     -0.274     -0.000
     66 H      -12.777      0.000      0.177     -0.299     -0.227     -0.001
     67 H       -0.376      0.177      0.000    -13.056    -12.030      0.000
     68 H       -0.229     -0.299    -13.056      0.000    -12.749      0.000
     69 H       -0.274     -0.227    -12.030    -12.749      0.000      0.002
     70 H       -0.000     -0.001      0.000      0.000      0.002      0.000
     71 H       -0.000     -0.001     -0.000     -0.002      0.001    -12.712
     72 H       -0.005     -0.003      0.000     -0.002      0.001    -13.722
                 71 H       72 H  
      3 H        0.000      0.000
      4 H        0.000      0.000
      8 H        0.000      0.000
      9 H        0.000      0.000
     10 H        0.000      0.000
     11 H        0.000      0.000
     13 H        0.000      0.000
     16 H        0.000      0.000
     17 H        0.000      0.000
     19 H        0.000      0.000
     21 H        0.001      0.003
     24 H        0.011      0.034
     25 H       -0.000      0.000
     27 H       -0.003     -0.009
     28 H       -0.004     -0.010
     30 H        0.057      0.068
     31 H        0.005     -0.050
     33 H       -0.001      0.005
     35 H        0.000      0.000
     37 H       -0.021      0.065
     38 H        0.037      0.015
     40 H        0.022     -0.051
     41 H       -0.044      0.003
     42 H       -0.357     -0.463
     45 H        0.029     -0.010
     46 H       -0.033     -0.031
     47 H       -0.045     -0.020
     48 H       12.600      2.043
     52 H       -0.529     -0.394
     53 H       -0.233     -0.250
     57 H       -0.033     -0.017
     58 H        0.001      0.002
     61 H       -0.009     -0.006
     62 H        0.008      0.024
     63 H       -0.006      0.010
     64 H       -0.003     -0.018
     65 H       -0.000     -0.005
     66 H       -0.001     -0.003
     67 H       -0.000      0.000
     68 H       -0.002     -0.002
     69 H        0.001      0.001
     70 H      -12.712    -13.722
     71 H        0.000    -12.433
     72 H      -12.433      0.000

Maximum memory used throughout the entire EPRNMR-calculation: 986.5 MB

Timings for individual modules:

Sum of individual times         ...      410.514 sec (=   6.842 min)
GTO integral calculation        ...        0.687 sec (=   0.011 min)   0.2 %
SCF iterations                  ...      120.107 sec (=   2.002 min)  29.3 %
EPR/NMR calculation             ...      289.719 sec (=   4.829 min)  70.6 %
                             ****ORCA TERMINATED NORMALLY****
TOTAL RUN TIME: 0 days 0 hours 6 minutes 50 seconds 943 msec
