
                                 *****************
                                 * O   R   C   A *
                                 *****************

                                            #,                                       
                                            ###                                      
                                            ####                                     
                                            #####                                    
                                            ######                                   
                                           ########,                                 
                                     ,,################,,,,,                         
                               ,,#################################,,                 
                          ,,##########################################,,             
                       ,#########################################, ''#####,          
                    ,#############################################,,   '####,        
                  ,##################################################,,,,####,       
                ,###########''''           ''''###############################       
              ,#####''   ,,,,##########,,,,          '''####'''          '####       
            ,##' ,,,,###########################,,,                        '##       
           ' ,,###''''                  '''############,,,                           
         ,,##''                                '''############,,,,        ,,,,,,###''
      ,#''                                            '''#######################'''  
     '                                                          ''''####''''         
             ,#######,   #######,   ,#######,      ##                                
            ,#'     '#,  ##    ##  ,#'     '#,    #''#        ######   ,####,        
            ##       ##  ##   ,#'  ##            #'  '#       #        #'  '#        
            ##       ##  #######   ##           ,######,      #####,   #    #        
            '#,     ,#'  ##    ##  '#,     ,#' ,#      #,         ##   #,  ,#        
             '#######'   ##     ##  '#######'  #'      '#     #####' # '####'        



                  #######################################################
                  #                        -***-                        #
                  #          Department of theory and spectroscopy      #
                  #    Directorship and core code : Frank Neese         #
                  #        Max Planck Institute fuer Kohlenforschung    #
                  #                Kaiser Wilhelm Platz 1               #
                  #                 D-45470 Muelheim/Ruhr               #
                  #                      Germany                        #
                  #                                                     #
                  #                  All rights reserved                #
                  #                        -***-                        #
                  #######################################################


                         Program Version 5.0.2 -  RELEASE  -


 With contributions from (in alphabetic order):
   Daniel Aravena         : Magnetic Suceptibility
   Michael Atanasov       : Ab Initio Ligand Field Theory (pilot matlab implementation)
   Alexander A. Auer      : GIAO ZORA, VPT2 properties, NMR spectrum
   Ute Becker             : Parallelization
   Giovanni Bistoni       : ED, misc. LED, open-shell LED, HFLD
   Martin Brehm           : Molecular dynamics
   Dmytro Bykov           : SCF Hessian
   Vijay G. Chilkuri      : MRCI spin determinant printing, contributions to CSF-ICE
   Dipayan Datta          : RHF DLPNO-CCSD density
   Achintya Kumar Dutta   : EOM-CC, STEOM-CC
   Dmitry Ganyushin       : Spin-Orbit,Spin-Spin,Magnetic field MRCI
   Miquel Garcia          : C-PCM and meta-GGA Hessian, CC/C-PCM, Gaussian charge scheme
   Yang Guo               : DLPNO-NEVPT2, F12-NEVPT2, CIM, IAO-localization
   Andreas Hansen         : Spin unrestricted coupled pair/coupled cluster methods
   Benjamin Helmich-Paris : MC-RPA, TRAH-SCF, COSX integrals
   Lee Huntington         : MR-EOM, pCC
   Robert Izsak           : Overlap fitted RIJCOSX, COSX-SCS-MP3, EOM
   Marcus Kettner         : VPT2
   Christian Kollmar      : KDIIS, OOCD, Brueckner-CCSD(T), CCSD density, CASPT2, CASPT2-K
   Simone Kossmann        : Meta GGA functionals, TD-DFT gradient, OOMP2, MP2 Hessian
   Martin Krupicka        : Initial AUTO-CI
   Lucas Lang             : DCDCAS
   Marvin Lechner         : AUTO-CI (C++ implementation), FIC-MRCC
   Dagmar Lenk            : GEPOL surface, SMD
   Dimitrios Liakos       : Extrapolation schemes; Compound Job, initial MDCI parallelization
   Dimitrios Manganas     : Further ROCIS development; embedding schemes
   Dimitrios Pantazis     : SARC Basis sets
   Anastasios Papadopoulos: AUTO-CI, single reference methods and gradients
   Taras Petrenko         : DFT Hessian,TD-DFT gradient, ASA, ECA, R-Raman, ABS, FL, XAS/XES, NRVS
   Peter Pinski           : DLPNO-MP2, DLPNO-MP2 Gradient
   Christoph Reimann      : Effective Core Potentials
   Marius Retegan         : Local ZFS, SOC
   Christoph Riplinger    : Optimizer, TS searches, QM/MM, DLPNO-CCSD(T), (RO)-DLPNO pert. Triples
   Tobias Risthaus        : Range-separated hybrids, TD-DFT gradient, RPA, STAB
   Michael Roemelt        : Original ROCIS implementation
   Masaaki Saitow         : Open-shell DLPNO-CCSD energy and density
   Barbara Sandhoefer     : DKH picture change effects
   Avijit Sen             : IP-ROCIS
   Kantharuban Sivalingam : CASSCF convergence, NEVPT2, FIC-MRCI
   Bernardo de Souza      : ESD, SOC TD-DFT
   Georgi Stoychev        : AutoAux, RI-MP2 NMR, DLPNO-MP2 response
   Willem Van den Heuvel  : Paramagnetic NMR
   Boris Wezisla          : Elementary symmetry handling
   Frank Wennmohs         : Technical directorship


 We gratefully acknowledge several colleagues who have allowed us to
 interface, adapt or use parts of their codes:
   Stefan Grimme, W. Hujo, H. Kruse, P. Pracht,  : VdW corrections, initial TS optimization,
                  C. Bannwarth, S. Ehlert          DFT functionals, gCP, sTDA/sTD-DF
   Ed Valeev, F. Pavosevic, A. Kumar             : LibInt (2-el integral package), F12 methods
   Garnet Chan, S. Sharma, J. Yang, R. Olivares  : DMRG
   Ulf Ekstrom                                   : XCFun DFT Library
   Mihaly Kallay                                 : mrcc  (arbitrary order and MRCC methods)
   Jiri Pittner, Ondrej Demel                    : Mk-CCSD
   Frank Weinhold                                : gennbo (NPA and NBO analysis)
   Christopher J. Cramer and Donald G. Truhlar   : smd solvation model
   Lars Goerigk                                  : TD-DFT with DH, B97 family of functionals
   V. Asgeirsson, H. Jonsson                     : NEB implementation
   FAccTs GmbH                                   : IRC, NEB, NEB-TS, DLPNO-Multilevel, CI-OPT
                                                   MM, QMMM, 2- and 3-layer-ONIOM, Crystal-QMMM,
                                                   LR-CPCM, SF, NACMEs, symmetry and pop. for TD-DFT,
                                                   nearIR, NL-DFT gradient (VV10), updates on ESD,
                                                   ML-optimized integration grids
   S Lehtola, MJT Oliveira, MAL Marques          : LibXC Library
   Liviu Ungur et al                             : ANISO software


 Your calculation uses the libint2 library for the computation of 2-el integrals
 For citations please refer to: http://libint.valeyev.net

 Your ORCA version has been built with support for libXC version: 5.1.0
 For citations please refer to: https://tddft.org/programs/libxc/

 This ORCA versions uses:
   CBLAS   interface :  Fast vector & matrix operations
   LAPACKE interface :  Fast linear algebra routines
   SCALAPACK package :  Parallel linear algebra routines
   Shared memory     :  Shared parallel matrices
   BLAS/LAPACK       :  OpenBLAS 0.3.15  USE64BITINT DYNAMIC_ARCH NO_AFFINITY Zen SINGLE_THREADED
        Core in use  :  Zen
   Copyright (c) 2011-2014, The OpenBLAS Project


Your calculation utilizes the atom-pairwise dispersion correction
based on tight binding partial charges (D4)
Cite in your paper:
E.Caldeweyher, C.Bannwarth, S.Grimme, J.Chem.Phys., (2017), 147, 034112.
E.Caldeweyher, S.Ehlert, A.Hansen, H.Neugebauer, S.Grimme, J.Chem.Phys., (2018), in progress.
   

================================================================================

----- Orbital basis set information -----
Your calculation utilizes the basis: pcSseg-1
   F. Jensen, J. Chem. Theory Comput. 11, 132 (2015).

----- AuxJ basis set information -----
Your calculation utilizes the auxiliary basis: def2/J
   F. Weigend, Phys. Chem. Chem. Phys. 8, 1057 (2006).

================================================================================
                                        WARNINGS
                       Please study these warnings very carefully!
================================================================================



WARNING: Found flag for RIJCOSX approximation but no HF exchange needed!
  ===> : RIJCOSX  will be disabled and Split-RI-J is turned on

INFO   : the flag for use of the SHARK integral package has been found!

================================================================================
                                       INPUT FILE
================================================================================
NAME = inpS
|  1> ! revTPSS
|  2> ! D4
|  3> ! pcSseg-1
|  4> ! def2/J RIJCOSX
|  5> ! DEFGRID2
|  6> ! scfconv7
|  7> ! smallprint printgap noloewdin
|  8> ! NOSOSCF
|  9> %MaxCore 4000
| 10> %output
| 11>        print[P_BondOrder_M] 1
| 12>        print[P_Mayer] 1
| 13>        print[P_basis] 2
| 14> end
| 15> %pal
| 16>     nprocs 4
| 17> end
| 18> ! CPCM(chloroform)
| 19> *xyz 0 1
| 20> C   -4.9733518300   0.2565731700  -0.4616985000
| 21> C   -6.4283704300  -0.1389887500  -0.5461280100
| 22> C   -7.2900732700   0.8009031100   0.3070035400
| 23> H   -6.5686634700  -1.1757190800  -0.2196529500
| 24> H   -6.7757575100  -0.0615615900  -1.5870781900
| 25> C   -4.7178648400   1.6734235600  -0.8044761000
| 26> C   -5.6034317700   2.6588342000  -0.0744560700
| 27> C   -7.0825860900   2.2514984000  -0.1311903000
| 28> H   -5.4655475700   3.6661639300  -0.4816329500
| 29> H   -5.2871955900   2.6924950600   0.9792719300
| 30> H   -7.4527748100   2.3573115800  -1.1600716500
| 31> H   -7.6803635900   2.9148881500   0.5045049800
| 32> O   -7.0058199900   0.6209599200   1.7044175600
| 33> H   -8.3475521500   0.5323561800   0.1923876000
| 34> C   -4.0314047500  -0.6165745400  -0.0319518300
| 35> C   -3.8124970600   2.0564857700  -1.7110678900
| 36> H   -3.1983463700   1.3313487400  -2.2383796500
| 37> H   -3.6732512300   3.1076053500  -1.9526890200
| 38> C   -2.6339776100  -0.3217784600   0.1850220900
| 39> H   -4.3765276000  -1.6241962900   0.1966202200
| 40> C   -1.6736039400  -1.2003426900   0.5438581500
| 41> H   -2.3445275300   0.7184752200   0.0552328400
| 42> C   -1.8696816400  -2.6791120000   0.7618187000
| 43> C   -0.8873054900  -3.5154509000  -0.0804244600
| 44> H   -2.8952915900  -2.9976058500   0.5565369600
| 45> H   -1.6739157300  -2.8913407900   1.8250632900
| 46> C    0.5689990000  -3.0591270200   0.0821629300
| 47> H   -1.1791399200  -3.4553976000  -1.1365194600
| 48> H   -0.9755418500  -4.5703053700   0.2071205000
| 49> C    0.7326206600  -1.5586115800  -0.1986943400
| 50> H    1.2036956200  -3.6607797800  -0.5763005900
| 51> H    0.8984102000  -3.2566081900   1.1133506400
| 52> C   -0.2461622700  -0.7986519200   0.7540546100
| 53> H    0.0297174500  -1.1470668900   1.7664633300
| 54> C    0.1841928100   0.6600528700   0.6444694600
| 55> H   -6.0458667100   0.5448896500   1.8012913000
| 56> C    1.7226636400   0.5752868700   0.4919840700
| 57> H   -0.1252771400   1.2485580900   1.5144471000
| 58> H   -0.2612103100   1.1312382900  -0.2389328300
| 59> C    2.0787369800  -0.9235037400   0.2500485800
| 60> H    2.2396488100   0.9559970000   1.3783860500
| 61> H    2.0587878700   1.1863545500  -0.3543842600
| 62> H    2.3331578500  -1.3832953500   1.2184901900
| 63> C    3.3216937000  -1.0855509300  -0.6587252000
| 64> C    0.4325187700  -1.2350266900  -1.6677714000
| 65> H    0.6545905500  -0.1898536500  -1.9063785400
| 66> H   -0.6215543300  -1.4062796000  -1.9075292800
| 67> H    1.0352003100  -1.8624475200  -2.3334688200
| 68> H    3.0837555600  -0.5885873000  -1.6140488900
| 69> C    3.6744365500  -2.5415974800  -0.9557574800
| 70> C    4.4694507600  -0.3162370200  -0.0457584500
| 71> C    5.5947109200  -0.8351619500   0.4485268200
| 72> H    4.3224006800   0.7617445000   0.0048919100
| 73> H    5.7381182000  -1.9136731800   0.4062279800
| 74> C    6.7340072000  -0.0632855500   1.0691953400
| 75> C    6.3526457100   1.3700876900   1.4446719900
| 76> C    7.9931698200  -0.1065158200   0.1575146700
| 77> H    7.0111051300  -0.5963269700   1.9955519500
| 78> H    7.7343764200   0.4343089400  -0.7667693800
| 79> C    8.3829097900  -1.5399326400  -0.2182031600
| 80> C    9.1898719700   0.5921767800   0.8109579000
| 81> H    6.2233117700   1.9929502100   0.5511820000
| 82> H    7.1215074700   1.8342418600   2.0672484500
| 83> H    5.4131561300   1.3870177900   2.0069003900
| 84> H    7.6149295600  -2.0342453500  -0.8201062000
| 85> H    8.5488034700  -2.1433444600   0.6839315800
| 86> H    9.3128164000  -1.5428377800  -0.7970871600
| 87> H    9.0168730200   1.6605211800   0.9664534700
| 88> H    10.0809568800   0.4891962800   0.1821150300
| 89> H    9.4133552900   0.1373347600   1.7849308300
| 90> H    2.9083429300  -3.0143312700  -1.5733150800
| 91> H    3.7734733600  -3.1275242900  -0.0342176900
| 92> H    4.6235947800  -2.6040618900  -1.4993738600
| 93> *
| 94> %eprnmr
| 95>  Nuclei = all H { shift }
| 96>  origin giao
| 97>  giao_2el giao_2el_same_as_scf
| 98>  giao_1el giao_1el_analytic
| 99> end
|100> 
|101>                          ****END OF INPUT****
================================================================================

                       ****************************
                       * Single Point Calculation *
                       ****************************

---------------------------------
CARTESIAN COORDINATES (ANGSTROEM)
---------------------------------
  C     -4.973352    0.256573   -0.461699
  C     -6.428370   -0.138989   -0.546128
  C     -7.290073    0.800903    0.307004
  H     -6.568663   -1.175719   -0.219653
  H     -6.775758   -0.061562   -1.587078
  C     -4.717865    1.673424   -0.804476
  C     -5.603432    2.658834   -0.074456
  C     -7.082586    2.251498   -0.131190
  H     -5.465548    3.666164   -0.481633
  H     -5.287196    2.692495    0.979272
  H     -7.452775    2.357312   -1.160072
  H     -7.680364    2.914888    0.504505
  O     -7.005820    0.620960    1.704418
  H     -8.347552    0.532356    0.192388
  C     -4.031405   -0.616575   -0.031952
  C     -3.812497    2.056486   -1.711068
  H     -3.198346    1.331349   -2.238380
  H     -3.673251    3.107605   -1.952689
  C     -2.633978   -0.321778    0.185022
  H     -4.376528   -1.624196    0.196620
  C     -1.673604   -1.200343    0.543858
  H     -2.344528    0.718475    0.055233
  C     -1.869682   -2.679112    0.761819
  C     -0.887305   -3.515451   -0.080424
  H     -2.895292   -2.997606    0.556537
  H     -1.673916   -2.891341    1.825063
  C      0.568999   -3.059127    0.082163
  H     -1.179140   -3.455398   -1.136519
  H     -0.975542   -4.570305    0.207121
  C      0.732621   -1.558612   -0.198694
  H      1.203696   -3.660780   -0.576301
  H      0.898410   -3.256608    1.113351
  C     -0.246162   -0.798652    0.754055
  H      0.029717   -1.147067    1.766463
  C      0.184193    0.660053    0.644469
  H     -6.045867    0.544890    1.801291
  C      1.722664    0.575287    0.491984
  H     -0.125277    1.248558    1.514447
  H     -0.261210    1.131238   -0.238933
  C      2.078737   -0.923504    0.250049
  H      2.239649    0.955997    1.378386
  H      2.058788    1.186355   -0.354384
  H      2.333158   -1.383295    1.218490
  C      3.321694   -1.085551   -0.658725
  C      0.432519   -1.235027   -1.667771
  H      0.654591   -0.189854   -1.906379
  H     -0.621554   -1.406280   -1.907529
  H      1.035200   -1.862448   -2.333469
  H      3.083756   -0.588587   -1.614049
  C      3.674437   -2.541597   -0.955757
  C      4.469451   -0.316237   -0.045758
  C      5.594711   -0.835162    0.448527
  H      4.322401    0.761745    0.004892
  H      5.738118   -1.913673    0.406228
  C      6.734007   -0.063286    1.069195
  C      6.352646    1.370088    1.444672
  C      7.993170   -0.106516    0.157515
  H      7.011105   -0.596327    1.995552
  H      7.734376    0.434309   -0.766769
  C      8.382910   -1.539933   -0.218203
  C      9.189872    0.592177    0.810958
  H      6.223312    1.992950    0.551182
  H      7.121507    1.834242    2.067248
  H      5.413156    1.387018    2.006900
  H      7.614930   -2.034245   -0.820106
  H      8.548803   -2.143344    0.683932
  H      9.312816   -1.542838   -0.797087
  H      9.016873    1.660521    0.966453
  H     10.080957    0.489196    0.182115
  H      9.413355    0.137335    1.784931
  H      2.908343   -3.014331   -1.573315
  H      3.773473   -3.127524   -0.034218
  H      4.623595   -2.604062   -1.499374

----------------------------
CARTESIAN COORDINATES (A.U.)
----------------------------
  NO LB      ZA    FRAG     MASS         X           Y           Z
   0 C     6.0000    0    12.011   -9.398273    0.484853   -0.872484
   1 C     6.0000    0    12.011  -12.147860   -0.262651   -1.032032
   2 C     6.0000    0    12.011  -13.776242    1.513488    0.580153
   3 H     1.0000    0     1.008  -12.412975   -2.221787   -0.415084
   4 H     1.0000    0     1.008  -12.804326   -0.116335   -2.999143
   5 C     6.0000    0    12.011   -8.915472    3.162312   -1.520240
   6 C     6.0000    0    12.011  -10.588951    5.024468   -0.140702
   7 C     6.0000    0    12.011  -13.384148    4.254715   -0.247914
   8 H     1.0000    0     1.008  -10.328388    6.928046   -0.910154
   9 H     1.0000    0     1.008   -9.991352    5.088078    1.850556
  10 H     1.0000    0     1.008  -14.083703    4.454673   -2.192218
  11 H     1.0000    0     1.008  -14.513784    5.508340    0.953376
  12 O     8.0000    0    15.999  -13.239081    1.173444    3.220882
  13 H     1.0000    0     1.008  -15.774587    1.006007    0.363560
  14 C     6.0000    0    12.011   -7.618251   -1.165157   -0.060380
  15 C     6.0000    0    12.011   -7.204575    3.886195   -3.233450
  16 H     1.0000    0     1.008   -6.043999    2.515885   -4.229925
  17 H     1.0000    0     1.008   -6.941439    5.872523   -3.690047
  18 C     6.0000    0    12.011   -4.977496   -0.608073    0.349641
  19 H     1.0000    0     1.008   -8.270439   -3.069286    0.371558
  20 C     6.0000    0    12.011   -3.162653   -2.268319    1.027743
  21 H     1.0000    0     1.008   -4.430515    1.357721    0.104375
  22 C     6.0000    0    12.011   -3.533186   -5.062788    1.439629
  23 C     6.0000    0    12.011   -1.676764   -6.643239   -0.151980
  24 H     1.0000    0     1.008   -5.471308   -5.664654    1.051702
  25 H     1.0000    0     1.008   -3.163242   -5.463842    3.448870
  26 C     6.0000    0    12.011    1.075252   -5.780912    0.155265
  27 H     1.0000    0     1.008   -2.228252   -6.529755   -2.147711
  28 H     1.0000    0     1.008   -1.843507   -8.636625    0.391401
  29 C     6.0000    0    12.011    1.384452   -2.945349   -0.375478
  30 H     1.0000    0     1.008    2.274655   -6.917871   -1.089050
  31 H     1.0000    0     1.008    1.697749   -6.154098    2.103928
  32 C     6.0000    0    12.011   -0.465179   -1.509233    1.424957
  33 H     1.0000    0     1.008    0.056158   -2.167642    3.338132
  34 C     6.0000    0    12.011    0.348074    1.247319    1.217871
  35 H     1.0000    0     1.008  -11.425032    1.029692    3.403947
  36 C     6.0000    0    12.011    3.255363    1.087135    0.929715
  37 H     1.0000    0     1.008   -0.236739    2.359433    2.861890
  38 H     1.0000    0     1.008   -0.493616    2.137731   -0.451518
  39 C     6.0000    0    12.011    3.928244   -1.745169    0.472523
  40 H     1.0000    0     1.008    4.232323    1.806573    2.604772
  41 H     1.0000    0     1.008    3.890545    2.241885   -0.669689
  42 H     1.0000    0     1.008    4.409029   -2.614049    2.302613
  43 C     6.0000    0    12.011    6.277091   -2.051394   -1.244810
  44 C     6.0000    0    12.011    0.817342   -2.333862   -3.151631
  45 H     1.0000    0     1.008    1.236997   -0.358771   -3.602533
  46 H     1.0000    0     1.008   -1.174567   -2.657483   -3.604708
  47 H     1.0000    0     1.008    1.956245   -3.519516   -4.409617
  48 H     1.0000    0     1.008    5.827453   -1.112269   -3.050110
  49 C     6.0000    0    12.011    6.943679   -4.802923   -1.806120
  50 C     6.0000    0    12.011    8.446038   -0.597601   -0.086471
  51 C     6.0000    0    12.011   10.572471   -1.578227    0.847593
  52 H     1.0000    0     1.008    8.168154    1.439488    0.009244
  53 H     1.0000    0     1.008   10.843472   -3.616318    0.767660
  54 C     6.0000    0    12.011   12.725429   -0.119592    2.020486
  55 C     6.0000    0    12.011   12.004761    2.589091    2.730034
  56 C     6.0000    0    12.011   15.104902   -0.201286    0.297660
  57 H     1.0000    0     1.008   13.249069   -1.126895    3.771047
  58 H     1.0000    0     1.008   14.615853    0.820725   -1.448984
  59 C     6.0000    0    12.011   15.841404   -2.910051   -0.412344
  60 C     6.0000    0    12.011   17.366341    1.119052    1.532488
  61 H     1.0000    0     1.008   11.760355    3.766130    1.041583
  62 H     1.0000    0     1.008   13.457699    3.466215    3.906533
  63 H     1.0000    0     1.008   10.229383    2.621084    3.792492
  64 H     1.0000    0     1.008   14.390131   -3.844167   -1.549776
  65 H     1.0000    0     1.008   16.154897   -4.050334    1.292443
  66 H     1.0000    0     1.008   17.598673   -2.915541   -1.506276
  67 H     1.0000    0     1.008   17.039421    3.137930    1.826332
  68 H     1.0000    0     1.008   19.050248    0.924447    0.344148
  69 H     1.0000    0     1.008   17.788663    0.259525    3.373030
  70 H     1.0000    0     1.008    5.495972   -5.696261   -2.973135
  71 H     1.0000    0     1.008    7.130831   -5.910164   -0.064662
  72 H     1.0000    0     1.008    8.737328   -4.920964   -2.833406

--------------------------------
INTERNAL COORDINATES (ANGSTROEM)
--------------------------------
 C      0   0   0     0.000000000000     0.00000000     0.00000000
 C      1   0   0     1.510190948542     0.00000000     0.00000000
 C      2   1   0     1.534197488775   110.46231333     0.00000000
 H      2   1   3     1.095936986791   110.76029052   237.87284912
 H      2   1   3     1.100113642175   109.79785102   118.75733453
 C      1   2   3     1.479944293804   113.83717778   305.86080556
 C      6   1   2     1.512677150332   114.25636881    50.32107481
 C      3   2   1     1.529474245173   110.21368149    56.60660544
 H      7   6   1     1.095225204768   110.24486429   188.39808155
 H      7   6   1     1.100673009127   108.28471291    71.70479317
 H      8   3   2     1.098559488537   108.29842832    64.68186292
 H      8   3   2     1.096144328510   109.50310848   181.65381796
 O      3   2   1     1.437339703101   110.66221197   292.49872330
 H      3   2   1     1.097048699448   109.47177017   177.04181189
 C      1   2   3     1.354375658883   121.26208264   122.28054288
 C      6   1   2     1.337286860583   123.23886223   232.29575041
 H     16   6   1     1.086766982632   121.35949516   359.01736027
 H     16   6   1     1.087484502462   120.94282475   178.40486963
 C     15   1   2     1.444570878272   126.07782047   184.96923433
 H     15   1   2     1.089337667900   116.26743849     3.02928010
 C     19  15   1     1.350168882111   126.52784905   183.81621121
 H     19  15   1     1.087545087333   115.76855029     4.67405686
 C     21  19  15     1.507551636924   125.74609765     1.37335914
 C     23  21  19     1.540746311470   111.74576298   126.17956215
 H     23  21  19     1.093368508237   112.37041170     2.33825973
 H     23  21  19     1.101750611067   107.78022275   244.73773579
 C     24  23  21     1.534760212685   112.68730072    50.71212886
 H     24  23  21     1.097319635475   109.07662881   288.55426237
 H     24  23  21     1.096898223231   109.11219143   172.61977923
 C     27  24  23     1.535317374165   111.85945360   306.23666396
 H     27  24  23     1.094714597612   108.84534917   182.67444790
 H     27  24  23     1.100390223714   109.26698428    66.21546958
 C     21  19  15     1.497707497395   122.73168964   180.35375338
 H     33  21  19     1.105655474169   106.36786477   125.92141120
 C     33  21  19     1.524806238298   121.02989143     3.39180394
 H     13   3   2     0.967823076426   107.65648582    42.57056831
 C     35  33  21     1.548331218984   103.60005210   196.80649462
 H     35  33  21     1.094975405212   112.16606230    74.78986805
 H     35  33  21     1.095809858189   110.76696485   315.14480240
 C     30  27  24     1.554593620098   116.02426203   166.31404748
 H     37  35  33     1.094496386121   111.74888750   249.18910682
 H     37  35  33     1.096687082791   110.48969856   130.61549202
 H     40  30  27     1.101824602964   106.44967395   320.84136770
 C     40  30  27     1.548247552168   118.87908570    81.13496607
 C     30  27  24     1.533934722743   111.13186578   294.47187558
 H     45  30  27     1.094822326350   111.74196883   186.42813787
 H     45  30  27     1.094477729490   111.42057187    66.43458491
 H     45  30  27     1.095461086287   110.70379093   306.37178862
 H     44  40  30     1.102828527326   106.74346741    62.13570650
 C     44  40  30     1.527326831217   113.53735261   303.10772333
 C     44  40  30     1.511594653836   108.55948505   176.70415048
 C     51  44  40     1.334095738243   126.35038278   114.09649383
 H     51  44  40     1.089143398482   114.83885168   295.69318930
 H     52  51  44     1.088825657788   118.81507561     1.10636556
 C     52  51  44     1.509641878797   126.15637766   180.48764351
 C     55  52  51     1.530025537662   113.06584123    15.78066921
 C     55  52  51     1.555159478607   110.84289138   249.30869885
 H     55  52  51     1.104107325914   106.70863157   134.36240767
 H     57  55  52     1.101710692513   106.73714657    65.32156319
 C     57  55  52     1.532235266483   112.06767057   306.96891104
 C     57  55  52     1.532075533367   111.69843944   183.77312998
 H     56  55  52     1.096817828578   111.19154801   288.71027460
 H     56  55  52     1.092789525968   111.24484951   168.53195423
 H     56  55  52     1.095001403187   110.75306379    48.74555775
 H     60  57  55     1.093812579238   112.27890355    64.01257818
 H     60  57  55     1.097940629859   110.55429200   303.26547787
 H     60  57  55     1.095372735016   110.36542711   184.18218701
 H     61  57  55     1.093374257060   112.49920015   296.28380797
 H     61  57  55     1.095481928358   110.34423475   176.12292553
 H     61  57  55     1.097929563246   110.39081873    57.14091053
 H     50  44  40     1.091674887560   111.14731058    67.29188623
 H     50  44  40     1.096519083721   111.52018097   306.83831851
 H     50  44  40     1.095592039355   110.54460336   186.72698608

---------------------------
INTERNAL COORDINATES (A.U.)
---------------------------
 C      0   0   0     0.000000000000     0.00000000     0.00000000
 C      1   0   0     2.853847302672     0.00000000     0.00000000
 C      2   1   0     2.899213089135   110.46231333     0.00000000
 H      2   1   3     2.071020765070   110.76029052   237.87284912
 H      2   1   3     2.078913499901   109.79785102   118.75733453
 C      1   2   3     2.796689408750   113.83717778   305.86080556
 C      6   1   2     2.858545543168   114.25636881    50.32107481
 C      3   2   1     2.890287452263   110.21368149    56.60660544
 H      7   6   1     2.069675691978   110.24486429   188.39808155
 H      7   6   1     2.079970550249   108.28471291    71.70479317
 H      8   3   2     2.075976575156   108.29842832    64.68186292
 H      8   3   2     2.071412584136   109.50310848   181.65381796
 O      3   2   1     2.716178400273   110.66221197   292.49872330
 H      3   2   1     2.073121597531   109.47177017   177.04181189
 C      1   2   3     2.559399077738   121.26208264   122.28054288
 C      6   1   2     2.527105928993   123.23886223   232.29575041
 H     16   6   1     2.053691968562   121.35949516   359.01736027
 H     16   6   1     2.055047884536   120.94282475   178.40486963
 C     15   1   2     2.729843340973   126.07782047   184.96923433
 H     15   1   2     2.058549859696   116.26743849     3.02928010
 C     19  15   1     2.551449421733   126.52784905   183.81621121
 H     19  15   1     2.055162373350   115.76855029     4.67405686
 C     21  19  15     2.848859726531   125.74609765     1.37335914
 C     23  21  19     2.911588570528   111.74576298   126.17956215
 H     23  21  19     2.066167044022   112.37041170     2.33825973
 H     23  21  19     2.082006922798   107.78022275   244.73773579
 C     24  23  21     2.900276483212   112.68730072    50.71212886
 H     24  23  21     2.073633592422   109.07662881   288.55426237
 H     24  23  21     2.072837238691   109.11219143   172.61977923
 C     27  24  23     2.901329365822   111.85945360   306.23666396
 H     27  24  23     2.068710784293   108.84534917   182.67444790
 H     27  24  23     2.079436163264   109.26698428    66.21546958
 C     21  19  15     2.830256998796   122.73168964   180.35375338
 H     33  21  19     2.089386044650   106.36786477   125.92141120
 C     33  21  19     2.881466197677   121.02989143     3.39180394
 H     13   3   2     1.828920560534   107.65648582    42.57056831
 C     35  33  21     2.925921968480   103.60005210   196.80649462
 H     35  33  21     2.069203639231   112.16606230    74.78986805
 H     35  33  21     2.070780526828   110.76696485   315.14480240
 C     30  27  24     2.937756191527   116.02426203   166.31404748
 H     37  35  33     2.068298424336   111.74888750   249.18910682
 H     37  35  33     2.072438241084   110.48969856   130.61549202
 H     40  30  27     2.082146747219   106.44967395   320.84136770
 C     40  30  27     2.925763861112   118.87908570    81.13496607
 C     30  27  24     2.898716533296   111.13186578   294.47187558
 H     45  30  27     2.068914362104   111.74196883   186.42813787
 H     45  30  27     2.068263168412   111.42057187    66.43458491
 H     45  30  27     2.070121443450   110.70379093   306.37178862
 H     44  40  30     2.084043889322   106.74346741    62.13570650
 C     44  40  30     2.886229427990   113.53735261   303.10772333
 C     44  40  30     2.856499921249   108.55948505   176.70415048
 C     51  44  40     2.521075581710   126.35038278   114.09649383
 H     51  44  40     2.058182743700   114.83885168   295.69318930
 H     52  51  44     2.057582300807   118.81507561     1.10636556
 C     52  51  44     2.852809711225   126.15637766   180.48764351
 C     55  52  51     2.891329244087   113.06584123    15.78066921
 C     55  52  51     2.938825509139   110.84289138   249.30869885
 H     55  52  51     2.086460468433   106.70863157   134.36240767
 H     57  55  52     2.081931487662   106.73714657    65.32156319
 C     57  55  52     2.895505026389   112.06767057   306.96891104
 C     57  55  52     2.895203174545   111.69843944   183.77312998
 H     56  55  52     2.072685314815   111.19154801   288.71027460
 H     56  55  52     2.065072926097   111.24484951   168.53195423
 H     56  55  52     2.069252768283   110.75306379    48.74555775
 H     60  57  55     2.067006216598   112.27890355    64.01257818
 H     60  57  55     2.074807101738   110.55429200   303.26547787
 H     60  57  55     2.069954483744   110.36542711   184.18218701
 H     61  57  55     2.066177907724   112.49920015   296.28380797
 H     61  57  55     2.070160829257   110.34423475   176.12292553
 H     61  57  55     2.074786188870   110.39081873    57.14091053
 H     50  44  40     2.062966564769   111.14731058    67.29188623
 H     50  44  40     2.072120768852   111.52018097   306.83831851
 H     50  44  40     2.070368908885   110.54460336   186.72698608

---------------------
BASIS SET INFORMATION
---------------------
There are 3 groups of distinct atoms

 Group   1 Type C   : 8s5p1d contracted to 3s3p1d pattern {521/311/1}
 Group   2 Type H   : 4s2p contracted to 2s1p pattern {31/2}
 Group   3 Type O   : 8s5p1d contracted to 3s3p1d pattern {521/311/1}

Atom   0C    basis set group =>   1
Atom   1C    basis set group =>   1
Atom   2C    basis set group =>   1
Atom   3H    basis set group =>   2
Atom   4H    basis set group =>   2
Atom   5C    basis set group =>   1
Atom   6C    basis set group =>   1
Atom   7C    basis set group =>   1
Atom   8H    basis set group =>   2
Atom   9H    basis set group =>   2
Atom  10H    basis set group =>   2
Atom  11H    basis set group =>   2
Atom  12O    basis set group =>   3
Atom  13H    basis set group =>   2
Atom  14C    basis set group =>   1
Atom  15C    basis set group =>   1
Atom  16H    basis set group =>   2
Atom  17H    basis set group =>   2
Atom  18C    basis set group =>   1
Atom  19H    basis set group =>   2
Atom  20C    basis set group =>   1
Atom  21H    basis set group =>   2
Atom  22C    basis set group =>   1
Atom  23C    basis set group =>   1
Atom  24H    basis set group =>   2
Atom  25H    basis set group =>   2
Atom  26C    basis set group =>   1
Atom  27H    basis set group =>   2
Atom  28H    basis set group =>   2
Atom  29C    basis set group =>   1
Atom  30H    basis set group =>   2
Atom  31H    basis set group =>   2
Atom  32C    basis set group =>   1
Atom  33H    basis set group =>   2
Atom  34C    basis set group =>   1
Atom  35H    basis set group =>   2
Atom  36C    basis set group =>   1
Atom  37H    basis set group =>   2
Atom  38H    basis set group =>   2
Atom  39C    basis set group =>   1
Atom  40H    basis set group =>   2
Atom  41H    basis set group =>   2
Atom  42H    basis set group =>   2
Atom  43C    basis set group =>   1
Atom  44C    basis set group =>   1
Atom  45H    basis set group =>   2
Atom  46H    basis set group =>   2
Atom  47H    basis set group =>   2
Atom  48H    basis set group =>   2
Atom  49C    basis set group =>   1
Atom  50C    basis set group =>   1
Atom  51C    basis set group =>   1
Atom  52H    basis set group =>   2
Atom  53H    basis set group =>   2
Atom  54C    basis set group =>   1
Atom  55C    basis set group =>   1
Atom  56C    basis set group =>   1
Atom  57H    basis set group =>   2
Atom  58H    basis set group =>   2
Atom  59C    basis set group =>   1
Atom  60C    basis set group =>   1
Atom  61H    basis set group =>   2
Atom  62H    basis set group =>   2
Atom  63H    basis set group =>   2
Atom  64H    basis set group =>   2
Atom  65H    basis set group =>   2
Atom  66H    basis set group =>   2
Atom  67H    basis set group =>   2
Atom  68H    basis set group =>   2
Atom  69H    basis set group =>   2
Atom  70H    basis set group =>   2
Atom  71H    basis set group =>   2
Atom  72H    basis set group =>   2

-------------------------
BASIS SET IN INPUT FORMAT
-------------------------

 # Basis set for element : H 
 NewGTO H 
 S 3 
   1      12.2518000000      0.0372173893
   2       1.8687100000      0.2538082070
   3       0.4182080000      0.7973867639
 S 1 
   1       0.1061000000      1.0000000000
 P 2 
   1       9.0000000000      0.0402678705
   2       1.0000000000      0.9880231245
  end;

 # Basis set for element : C 
 NewGTO C 
 S 5 
   1    1243.2000000000      0.0056300977
   2     187.1450000000      0.0419506039
   3      42.5126000000      0.1846643605
   4      11.7393000000      0.4665574214
   5       3.5054800000      0.4482347783
 S 2 
   1       5.3908900000     -0.1481148174
   2       0.4933410000      1.0519817143
 S 1 
   1       0.1497410000      1.0000000000
 P 3 
   1      59.6736000000      0.0113906672
   2       9.1805600000      0.1672414929
   3       1.9365800000      0.9041087436
 P 1 
   1       0.5262960000      1.0000000000
 P 1 
   1       0.1363190000      1.0000000000
 D 1 
   1       0.8000000000      1.0000000000
  end;

 # Basis set for element : O 
 NewGTO O 
 S 5 
   1    2288.6400000000      0.0054511382
   2     344.4160000000      0.0407189228
   3      78.2538000000      0.1813694209
   4      21.7195000000      0.4655368202
   5       6.5590700000      0.4512113212
 S 2 
   1      10.4656000000     -0.1502112012
   2       0.9643510000      1.0528679834
 S 1 
   1       0.2851270000      1.0000000000
 P 3 
   1     110.8840000000      0.0113058003
   2      17.0590000000      0.1699226452
   3       3.6899900000      0.9008060328
 P 1 
   1       0.9929960000      1.0000000000
 P 1 
   1       0.2449240000      1.0000000000
 D 1 
   1       1.0000000000      1.0000000000
  end;

---------------------------------
AUXILIARY/J BASIS SET INFORMATION
---------------------------------
There are 3 groups of distinct atoms

 Group   1 Type C   : 12s5p4d2f1g contracted to 6s4p3d1f1g pattern {711111/2111/211/2/1}
 Group   2 Type H   : 5s2p1d contracted to 3s1p1d pattern {311/2/1}
 Group   3 Type O   : 12s5p4d2f1g contracted to 6s4p3d1f1g pattern {711111/2111/211/2/1}

Atom   0C    basis set group =>   1
Atom   1C    basis set group =>   1
Atom   2C    basis set group =>   1
Atom   3H    basis set group =>   2
Atom   4H    basis set group =>   2
Atom   5C    basis set group =>   1
Atom   6C    basis set group =>   1
Atom   7C    basis set group =>   1
Atom   8H    basis set group =>   2
Atom   9H    basis set group =>   2
Atom  10H    basis set group =>   2
Atom  11H    basis set group =>   2
Atom  12O    basis set group =>   3
Atom  13H    basis set group =>   2
Atom  14C    basis set group =>   1
Atom  15C    basis set group =>   1
Atom  16H    basis set group =>   2
Atom  17H    basis set group =>   2
Atom  18C    basis set group =>   1
Atom  19H    basis set group =>   2
Atom  20C    basis set group =>   1
Atom  21H    basis set group =>   2
Atom  22C    basis set group =>   1
Atom  23C    basis set group =>   1
Atom  24H    basis set group =>   2
Atom  25H    basis set group =>   2
Atom  26C    basis set group =>   1
Atom  27H    basis set group =>   2
Atom  28H    basis set group =>   2
Atom  29C    basis set group =>   1
Atom  30H    basis set group =>   2
Atom  31H    basis set group =>   2
Atom  32C    basis set group =>   1
Atom  33H    basis set group =>   2
Atom  34C    basis set group =>   1
Atom  35H    basis set group =>   2
Atom  36C    basis set group =>   1
Atom  37H    basis set group =>   2
Atom  38H    basis set group =>   2
Atom  39C    basis set group =>   1
Atom  40H    basis set group =>   2
Atom  41H    basis set group =>   2
Atom  42H    basis set group =>   2
Atom  43C    basis set group =>   1
Atom  44C    basis set group =>   1
Atom  45H    basis set group =>   2
Atom  46H    basis set group =>   2
Atom  47H    basis set group =>   2
Atom  48H    basis set group =>   2
Atom  49C    basis set group =>   1
Atom  50C    basis set group =>   1
Atom  51C    basis set group =>   1
Atom  52H    basis set group =>   2
Atom  53H    basis set group =>   2
Atom  54C    basis set group =>   1
Atom  55C    basis set group =>   1
Atom  56C    basis set group =>   1
Atom  57H    basis set group =>   2
Atom  58H    basis set group =>   2
Atom  59C    basis set group =>   1
Atom  60C    basis set group =>   1
Atom  61H    basis set group =>   2
Atom  62H    basis set group =>   2
Atom  63H    basis set group =>   2
Atom  64H    basis set group =>   2
Atom  65H    basis set group =>   2
Atom  66H    basis set group =>   2
Atom  67H    basis set group =>   2
Atom  68H    basis set group =>   2
Atom  69H    basis set group =>   2
Atom  70H    basis set group =>   2
Atom  71H    basis set group =>   2
Atom  72H    basis set group =>   2

-------------------------------------
AUXILIARY/J BASIS SET IN INPUT FORMAT
-------------------------------------

 # Auxiliary/J basis set for element : H 
 NewAuxJGTO H 
 S 3 
   1      15.6752927000      0.1007184237
   2       3.6063578000      0.3404257499
   3       1.2080016000      0.6491996172
 S 1 
   1       0.4726794000      1.0000000000
 S 1 
   1       0.2018100000      1.0000000000
 P 2 
   1       2.0281365000      0.5596620919
   2       0.5358730000      0.5596620919
 D 1 
   1       2.2165124000      1.0000000000
  end;

 # Auxiliary/J basis set for element : C 
 NewAuxJGTO C 
 S 7 
   1    1861.0916331000      0.0134602335
   2     642.9939764000      0.0299160374
   3     235.1105725000      0.1008649584
   4      90.7028894000      0.2370970548
   5      36.7794552000      0.3924037254
   6      15.6046273000      0.3195862154
   7       6.8907294000      0.0530104441
 S 1 
   1       3.1478850000     -1.0000000000
 S 1 
   1       1.4777287000      1.0000000000
 S 1 
   1       0.7076466000      1.0000000000
 S 1 
   1       0.3430122000      1.0000000000
 S 1 
   1       0.1669453000      1.0000000000
 P 2 
   1      13.5472892000     -0.6769313712
   2       5.4669419000     -0.3779500978
 P 1 
   1       2.1751721000      1.0000000000
 P 1 
   1       0.8582194000      1.0000000000
 P 1 
   1       0.3376720000      1.0000000000
 D 2 
   1       5.9287253000     -0.3533329857
   2       1.9809209000     -0.7456525731
 D 1 
   1       0.8055417000     -1.0000000000
 D 1 
   1       0.3531244000     -1.0000000000
 F 2 
   1       1.6755626000      0.6311076882
   2       0.5997536000      0.4968166032
 G 1 
   1       1.0024600000     -1.0000000000
  end;

 # Auxiliary/J basis set for element : O 
 NewAuxJGTO O 
 S 7 
   1    2876.8216605000      0.0168151159
   2    1004.7443032000      0.0340137548
   3     369.7579954000      0.1194951309
   4     142.9442404000      0.2664627624
   5      57.8366425000      0.4202764046
   6      24.3864983000      0.2765077335
   7      10.6622662000      0.0057008815
 S 1 
   1       4.8070437000     -1.0000000000
 S 1 
   1       2.2210770000      1.0000000000
 S 1 
   1       1.0447795000      1.0000000000
 S 1 
   1       0.4968425000      1.0000000000
 S 1 
   1       0.2371384000      1.0000000000
 P 2 
   1      64.2613382000     -0.2731534179
   2      16.3006076000     -0.8168011598
 P 1 
   1       4.3550542000      1.0000000000
 P 1 
   1       1.2019554000      1.0000000000
 P 1 
   1       0.3354196000      1.0000000000
 D 2 
   1       9.2146611000     -0.4661230638
   2       2.8435251000     -0.6600908911
 D 1 
   1       0.9955759000     -1.0000000000
 D 1 
   1       0.3649441000     -1.0000000000
 F 2 
   1       2.6420115000      0.5931563945
   2       0.7345613000      0.5931563945
 G 1 
   1       1.3931000000     -1.0000000000
  end;



           ************************************************************
           *        Program running with 4 parallel MPI-processes     *
           *              working on a common directory               *
           ************************************************************
------------------------------------------------------------------------------
                           ORCA GTO INTEGRAL CALCULATION
                           -- RI-GTO INTEGRALS CHOSEN --
------------------------------------------------------------------------------
------------------------------------------------------------------------------
                   ___                                                        
                  /   \      - P O W E R E D   B Y -                         
                 /     \                                                     
                 |  |  |   _    _      __       _____    __    __             
                 |  |  |  | |  | |    /  \     |  _  \  |  |  /  |          
                  \  \/   | |  | |   /    \    | | | |  |  | /  /          
                 / \  \   | |__| |  /  /\  \   | |_| |  |  |/  /          
                |  |  |   |  __  | /  /__\  \  |    /   |      \           
                |  |  |   | |  | | |   __   |  |    \   |  |\   \          
                \     /   | |  | | |  |  |  |  | |\  \  |  | \   \       
                 \___/    |_|  |_| |__|  |__|  |_| \__\ |__|  \__/        
                                                                              
                      - O R C A' S   B I G   F R I E N D -                    
                                      &                                       
                       - I N T E G R A L  F E E D E R -                       
                                                                              
 v1 FN, 2020, v2 2021                                                         
------------------------------------------------------------------------------


Reading SHARK input file inpS.SHARKINP.tmp ... ok
----------------------
SHARK INTEGRAL PACKAGE
----------------------

Number of atoms                             ...     73
Number of basis functions                   ...    713
Number of shells                            ...    335
Maximum angular momentum                    ...      2
Integral batch strategy                     ... SHARK/LIBINT Hybrid
RI-J (if used) integral strategy            ... SPLIT-RIJ (Revised 2003 algorithm where possible)
Printlevel                                  ...      1
Contraction scheme used                     ... SEGMENTED contraction
Coulomb Range Separation                    ... NOT USED
Exchange Range Separation                   ... NOT USED
Finite Nucleus Model                        ... NOT USED
Auxiliary Coulomb fitting basis             ... AVAILABLE
   # of basis functions in Aux-J            ...   1905
   # of shells in Aux-J                     ...    655
   Maximum angular momentum in Aux-J        ...      4
Auxiliary J/K fitting basis                 ... NOT available
Auxiliary Correlation fitting basis         ... NOT available
Auxiliary 'external' fitting basis          ... NOT available
Integral threshold                          ...     3.000000e-11
Primitive cut-off                           ...     1.000000e-12
Primitive pair pre-selection threshold      ...     1.000000e-12

Calculating pre-screening integrals         ... done (  0.1 sec) Dimension = 335
Organizing shell pair data                  ... done (  0.2 sec)
Shell pair information
Total number of shell pairs                 ...     56280
Shell pairs after pre-screening             ...     31219
Total number of primitive shell pairs       ...    225367
Primitive shell pairs kept                  ...     73675
          la=0 lb=0:   9516 shell pairs
          la=1 lb=0:  12828 shell pairs
          la=1 lb=1:   4208 shell pairs
          la=2 lb=0:   2727 shell pairs
          la=2 lb=1:   1745 shell pairs
          la=2 lb=2:    195 shell pairs

Calculating one electron integrals          ... done (  0.1 sec)
Calculating RI/J V-Matrix + Cholesky decomp.... done (  0.1 sec)
Calculating Nuclear repulsion               ... done (  0.0 sec) ENN=   2766.651020861877 Eh

SHARK setup successfully completed in   0.7 seconds

Maximum memory used throughout the entire GTOINT-calculation: 60.8 MB


           ************************************************************
           *        Program running with 4 parallel MPI-processes     *
           *              working on a common directory               *
           ************************************************************
-------------------------------------------------------------------------------
                                 ORCA SCF
-------------------------------------------------------------------------------

------------
SCF SETTINGS
------------
Hamiltonian:
 Density Functional     Method          .... DFT(GTOs)
 Exchange Functional    Exchange        .... revTPSS
 Correlation Functional Correlation     .... revTPSS
 LDA part of GGA corr.  LDAOpt          .... PW91-LDA
 Gradients option       PostSCFGGA      .... off
   Density functional embedding theory  .... OFF
 RI-approximation to the Coulomb term is turned on
   Number of AuxJ basis functions       .... 1905


General Settings:
 Integral files         IntName         .... inpS
 Hartree-Fock type      HFTyp           .... RHF
 Total Charge           Charge          ....    0
 Multiplicity           Mult            ....    1
 Number of Electrons    NEL             ....  220
 Basis Dimension        Dim             ....  713
 Nuclear Repulsion      ENuc            ....   2766.6510208619 Eh

Convergence Acceleration:
 DIIS                   CNVDIIS         .... on
   Start iteration      DIISMaxIt       ....    12
   Startup error        DIISStart       ....  0.200000
   # of expansion vecs  DIISMaxEq       ....     5
   Bias factor          DIISBfac        ....   1.050
   Max. coefficient     DIISMaxC        ....  10.000
 Trust-Rad. Augm. Hess. CNVTRAH         .... auto
   Auto Start mean grad. ratio tolernc. ....  1.125000
   Auto Start start iteration           ....    20
   Auto Start num. interpolation iter.  ....    10
   Max. Number of Micro iterations      ....    16
   Max. Number of Macro iterations      .... Maxiter - #DIIS iter
   Number of Davidson start vectors     ....     2
   Converg. threshold I  (grad. norm)   ....   1.000e-04
   Converg. threshold II (energy diff.) ....   1.000e-07
   Grad. Scal. Fac. for Micro threshold ....   0.100
   Minimum threshold for Micro iter.    ....   0.010
   NR start threshold (gradient norm)   ....   0.001
   Initial trust radius                 ....   0.400
   Minimum AH scaling param. (alpha)    ....   1.000
   Maximum AH scaling param. (alpha)    .... 1000.000
   Orbital update algorithm             .... Taylor
   White noise on init. David. guess    .... on
   Maximum white noise                  ....   0.010
   Quad. conv. algorithm                .... NR
 SOSCF                  CNVSOSCF        .... off
 Level Shifting         CNVShift        .... on
   Level shift para.    LevelShift      ....    0.2500
   Turn off err/grad.   ShiftErr        ....    0.0010
 Zerner damping         CNVZerner       .... off
 Static damping         CNVDamp         .... on
   Fraction old density DampFac         ....    0.7000
   Max. Damping (<1)    DampMax         ....    0.9800
   Min. Damping (>=0)   DampMin         ....    0.0000
   Turn off err/grad.   DampErr         ....    0.1000
 Fernandez-Rico         CNVRico         .... off

SCF Procedure:
 Maximum # iterations   MaxIter         ....   125
 SCF integral mode      SCFMode         .... Direct
   Integral package                     .... SHARK and LIBINT hybrid scheme
 Reset frequency        DirectResetFreq ....    20
 Integral Threshold     Thresh          ....  3.000e-11 Eh
 Primitive CutOff       TCut            ....  1.000e-12 Eh

Convergence Tolerance:
 Convergence Check Mode ConvCheckMode   .... Total+1el-Energy
 Convergence forced     ConvForced      .... 0
 Energy Change          TolE            ....  1.000e-07 Eh
 1-El. energy change                    ....  1.000e-04 Eh
 DIIS Error             TolErr          ....  1.000e-07


Diagonalization of the overlap matrix:
Smallest eigenvalue                        ... 5.100e-04
Time for diagonalization                   ...    0.066 sec
Threshold for overlap eigenvalues          ... 1.000e-08
Number of eigenvalues below threshold      ... 0
Time for construction of square roots      ...    0.048 sec
Total time needed                          ...    0.116 sec

Time for model grid setup =    0.757 sec

------------------------------
INITIAL GUESS: MODEL POTENTIAL
------------------------------
Loading Hartree-Fock densities                     ... done
Calculating cut-offs                               ... done
Initializing the effective Hamiltonian             ... done
Setting up the integral package (SHARK)            ... done
Starting the Coulomb interaction                   ... done (   0.6 sec)
Reading the grid                                   ... done
Mapping shells                                     ... done
Starting the XC term evaluation                    ... done (   0.3 sec)
  promolecular density results
     # of electrons  =    219.973464226
     EX              =   -164.433541965
     EC              =     -7.329244936
     EX+EC           =   -171.762786900
Transforming the Hamiltonian                       ... done (   0.0 sec)
Diagonalizing the Hamiltonian                      ... done (   0.1 sec)
Back transforming the eigenvectors                 ... done (   0.0 sec)
Now organizing SCF variables                       ... done
                      ------------------
                      INITIAL GUESS DONE (   1.8 sec)
                      ------------------
-------------------
DFT GRID GENERATION
-------------------

General Integration Accuracy     IntAcc      ... 4.388
Radial Grid Type                 RadialGrid  ... OptM3 with GC (2021)
Angular Grid (max. ang.)         AngularGrid ... 4 (Lebedev-302)
Angular grid pruning method      GridPruning ... 4 (adaptive)
Weight generation scheme         WeightScheme... Becke
Basis function cutoff            BFCut       ... 1.0000e-11
Integration weight cutoff        WCut        ... 1.0000e-14
Angular grids for H and He will be reduced by one unit
Partially contracted basis set               ... off
Rotationally invariant grid construction     ... off

Total number of grid points                  ...   309905
Total number of batches                      ...     4882
Average number of points per batch           ...       63
Average number of grid points per atom       ...     4245
Time for grid setup =    2.986 sec


--------------------
CPCM SOLVATION MODEL
--------------------
CPCM parameters:
  Epsilon                                         ...       4.9000
  Refrac                                          ...       1.4500
  Rsolv                                           ...       1.3000
  Surface type                                    ... GAUSSIAN VDW
  Epsilon function type                           ...         CPCM
Radii:
 Radius for C  used is    3.8550 Bohr (=   2.0400 Ang.)
 Radius for H  used is    2.4944 Bohr (=   1.3200 Ang.)
 Radius for O  used is    3.4469 Bohr (=   1.8240 Ang.)
Calculating surface                               ...        done! (  0.0s)
GEPOL surface points                              ...         3607
GEPOL Volume                                      ...    3597.9955
GEPOL Surface-area                                ...    1781.2192
Calculating surface distance matrix               ...        done! (  0.1s)
Performing Cholesky decomposition & store         ...        done! (  0.5s)
Overall time for CPCM initialization              ...                 0.6s
--------------
SCF ITERATIONS
--------------
ITER       Energy         Delta-E        Max-DP      RMS-DP      [F,P]     Damp
               ***  Starting incremental Fock matrix formation  ***

  HOMO= 109 E= -1.933 eV LUMO=  7.769 eV gap=   9.702 eV
  0  -1167.5232166905   0.000000000000 0.05534989  0.00082764  0.2623845 0.7000

  HOMO= 109 E= -3.446 eV LUMO=  6.670 eV gap=  10.115 eV
  1  -1167.8960804820  -0.372863791537 0.02890353  0.00061142  0.1009852 0.7000
                               ***Turning on DIIS***

  HOMO= 109 E= -4.418 eV LUMO=  5.787 eV gap=  10.205 eV
  2  -1168.0422488093  -0.146168327310 0.04767179  0.00100981  0.0319754 0.0000

  HOMO= 109 E= -5.037 eV LUMO=  5.205 eV gap=  10.243 eV
  3  -1168.2394910592  -0.197242249892 0.02319164  0.00047093  0.0540592 0.0000

  HOMO= 109 E= -5.062 eV LUMO=  5.181 eV gap=  10.243 eV
  4  -1168.3063517525  -0.066860693320 0.00758714  0.00015150  0.0104536 0.0000

  HOMO= 109 E= -5.018 eV LUMO=  5.232 eV gap=  10.250 eV
  5  -1168.3093993590  -0.003047606413 0.00348761  0.00005700  0.0105303 0.0000

  HOMO= 109 E= -4.998 eV LUMO=  5.250 eV gap=  10.247 eV
  6  -1168.3096757643  -0.000276405333 0.00124689  0.00001918  0.0029522 0.0000

  HOMO= 109 E= -4.999 eV LUMO= -1.555 eV gap=   3.444 eV
  7  -1168.3096951130  -0.000019348713 0.00070836  0.00001165  0.0004903 0.0000

  HOMO= 109 E= -4.998 eV LUMO= -1.553 eV gap=   3.444 eV
  8  -1168.3096981011  -0.000002988112 0.00026113  0.00000287  0.0003713 0.0000

  HOMO= 109 E= -4.996 eV LUMO= -1.551 eV gap=   3.444 eV
  9  -1168.3096987277  -0.000000626549 0.00015817  0.00000151  0.0002508 0.0000

  HOMO= 109 E= -4.996 eV LUMO= -1.552 eV gap=   3.444 eV
 10  -1168.3096990022  -0.000000274581 0.00006874  0.00000071  0.0000962 0.0000

  HOMO= 109 E= -4.996 eV LUMO= -1.552 eV gap=   3.444 eV
 11  -1168.3096990325  -0.000000030276 0.00003003  0.00000028  0.0000300 0.0000

  HOMO= 109 E= -4.996 eV LUMO= -1.552 eV gap=   3.444 eV
 12  -1168.3096990197   0.000000012863 0.00001492  0.00000013  0.0000170 0.0000

  HOMO= 109 E= -4.996 eV LUMO= -1.552 eV gap=   3.444 eV
 13  -1168.3096990428  -0.000000023174 0.00000654  0.00000006  0.0000074 0.0000
                 **** Energy Check signals convergence ****

               *****************************************************
               *                     SUCCESS                       *
               *           SCF CONVERGED AFTER  14 CYCLES          *
               *****************************************************


----------------
TOTAL SCF ENERGY
----------------

Total Energy       :        -1168.30969905 Eh          -31791.32315 eV

Components:
Nuclear Repulsion  :         2766.65102086 Eh           75284.40166 eV
Electronic Energy  :        -3934.96071992 Eh         -107075.72481 eV
One Electron Energy:        -7079.41579284 Eh         -192640.69739 eV
Two Electron Energy:         3144.45507292 Eh           85564.97257 eV
CPCM Dielectric    :           -0.00915804 Eh              -0.24920 eV

Virial components:
Potential Energy   :        -2330.40961590 Eh          -63413.66954 eV
Kinetic Energy     :         1162.09991684 Eh           31622.34639 eV
Virial Ratio       :            2.00534359


DFT components:
N(Alpha)           :      110.000158435559 electrons
N(Beta)            :      110.000158435559 electrons
N(Total)           :      220.000316871118 electrons
E(X)               :     -169.584235476044 Eh       
E(C)               :       -7.444694711365 Eh       
E(XC)              :     -177.028930187410 Eh       
DFET-embed. en.    :        0.000000000000 Eh       
CPCM Solvation Model Properties:
Surface-charge          :           -0.04572169
Charge-correction       :           -0.00007058 Eh              -0.00192 eV
Free-energy (cav+disp)  :  This term is not implemented in the current solvation scheme

---------------
SCF CONVERGENCE
---------------

  Last Energy change         ...   -1.1487e-08  Tolerance :   1.0000e-07
  Last MAX-Density change    ...    2.7434e-06  Tolerance :   1.0000e-05
  Last RMS-Density change    ...    2.8498e-08  Tolerance :   1.0000e-06
  Last DIIS Error            ...    3.4871e-06  Tolerance :   1.0000e-07

             **** THE GBW FILE WAS UPDATED (inpS.gbw) ****
             **** DENSITY inpS.scfp WAS UPDATED ****
             **** ENERGY FILE WAS UPDATED (inpS.en.tmp) ****
             **** THE GBW FILE WAS UPDATED (inpS.gbw) ****
             **** DENSITY inpS.scfp WAS UPDATED ****
----------------
ORBITAL ENERGIES
----------------

  NO   OCC          E(Eh)            E(eV) 
   0   2.0000     -18.903750      -514.3972 
   1   2.0000     -10.057323      -273.6737 
   2   2.0000     -10.016514      -272.5632 
   3   2.0000     -10.014838      -272.5176 
   4   2.0000     -10.012413      -272.4516 
   5   2.0000     -10.012333      -272.4494 
   6   2.0000     -10.012101      -272.4431 
   7   2.0000     -10.011961      -272.4393 
   8   2.0000     -10.010735      -272.4060 
   9   2.0000     -10.010189      -272.3911 
  10   2.0000     -10.009773      -272.3798 
  11   2.0000     -10.009062      -272.3604 
  12   2.0000     -10.007726      -272.3241 
  13   2.0000     -10.007286      -272.3121 
  14   2.0000     -10.006769      -272.2980 
  15   2.0000     -10.006390      -272.2877 
  16   2.0000     -10.005052      -272.2513 
  17   2.0000     -10.001027      -272.1418 
  18   2.0000     -10.000779      -272.1350 
  19   2.0000     -10.000750      -272.1342 
  20   2.0000     -10.000329      -272.1228 
  21   2.0000      -9.999660      -272.1046 
  22   2.0000      -9.996943      -272.0306 
  23   2.0000      -9.996078      -272.0071 
  24   2.0000      -9.996063      -272.0067 
  25   2.0000      -9.995978      -272.0044 
  26   2.0000      -9.995785      -271.9991 
  27   2.0000      -9.995736      -271.9978 
  28   2.0000      -9.995559      -271.9930 
  29   2.0000      -0.954379       -25.9700 
  30   2.0000      -0.808257       -21.9938 
  31   2.0000      -0.789679       -21.4883 
  32   2.0000      -0.770613       -20.9694 
  33   2.0000      -0.757248       -20.6058 
  34   2.0000      -0.734833       -19.9958 
  35   2.0000      -0.728573       -19.8255 
  36   2.0000      -0.709233       -19.2992 
  37   2.0000      -0.708880       -19.2896 
  38   2.0000      -0.693874       -18.8813 
  39   2.0000      -0.676630       -18.4120 
  40   2.0000      -0.659339       -17.9415 
  41   2.0000      -0.651874       -17.7384 
  42   2.0000      -0.636952       -17.3323 
  43   2.0000      -0.627870       -17.0852 
  44   2.0000      -0.625664       -17.0252 
  45   2.0000      -0.619978       -16.8705 
  46   2.0000      -0.593154       -16.1406 
  47   2.0000      -0.589921       -16.0526 
  48   2.0000      -0.560670       -15.2566 
  49   2.0000      -0.547988       -14.9115 
  50   2.0000      -0.542095       -14.7512 
  51   2.0000      -0.536306       -14.5936 
  52   2.0000      -0.527432       -14.3521 
  53   2.0000      -0.514376       -13.9969 
  54   2.0000      -0.488982       -13.3059 
  55   2.0000      -0.474648       -12.9158 
  56   2.0000      -0.468453       -12.7473 
  57   2.0000      -0.463574       -12.6145 
  58   2.0000      -0.451401       -12.2832 
  59   2.0000      -0.447592       -12.1796 
  60   2.0000      -0.439927       -11.9710 
  61   2.0000      -0.431835       -11.7508 
  62   2.0000      -0.417265       -11.3544 
  63   2.0000      -0.415980       -11.3194 
  64   2.0000      -0.409398       -11.1403 
  65   2.0000      -0.405391       -11.0313 
  66   2.0000      -0.403219       -10.9722 
  67   2.0000      -0.402043       -10.9401 
  68   2.0000      -0.397984       -10.8297 
  69   2.0000      -0.395051       -10.7499 
  70   2.0000      -0.389377       -10.5955 
  71   2.0000      -0.386050       -10.5050 
  72   2.0000      -0.379292       -10.3210 
  73   2.0000      -0.376244       -10.2381 
  74   2.0000      -0.371433       -10.1072 
  75   2.0000      -0.366521        -9.9735 
  76   2.0000      -0.361784        -9.8446 
  77   2.0000      -0.358135        -9.7454 
  78   2.0000      -0.356310        -9.6957 
  79   2.0000      -0.349209        -9.5025 
  80   2.0000      -0.346296        -9.4232 
  81   2.0000      -0.344390        -9.3713 
  82   2.0000      -0.342139        -9.3101 
  83   2.0000      -0.335666        -9.1339 
  84   2.0000      -0.326649        -8.8886 
  85   2.0000      -0.324140        -8.8203 
  86   2.0000      -0.323503        -8.8030 
  87   2.0000      -0.320736        -8.7277 
  88   2.0000      -0.316376        -8.6090 
  89   2.0000      -0.312093        -8.4925 
  90   2.0000      -0.308484        -8.3943 
  91   2.0000      -0.307881        -8.3779 
  92   2.0000      -0.300316        -8.1720 
  93   2.0000      -0.297448        -8.0940 
  94   2.0000      -0.291233        -7.9249 
  95   2.0000      -0.288819        -7.8592 
  96   2.0000      -0.285977        -7.7818 
  97   2.0000      -0.284958        -7.7541 
  98   2.0000      -0.282561        -7.6889 
  99   2.0000      -0.280316        -7.6278 
 100   2.0000      -0.275134        -7.4868 
 101   2.0000      -0.274362        -7.4658 
 102   2.0000      -0.271542        -7.3890 
 103   2.0000      -0.269573        -7.3355 
 104   2.0000      -0.260469        -7.0877 
 105   2.0000      -0.251229        -6.8363 
 106   2.0000      -0.230059        -6.2602 
 107   2.0000      -0.228737        -6.2243 
 108   2.0000      -0.212503        -5.7825 
 109   2.0000      -0.183609        -4.9963 
 110   0.0000      -0.057031        -1.5519 
 111   0.0000      -0.014414        -0.3922 
 112   0.0000      -0.003721        -0.1013 
 113   0.0000       0.029386         0.7996 
 114   0.0000       0.038794         1.0556 
 115   0.0000       0.042025         1.1436 
 116   0.0000       0.046567         1.2672 
 117   0.0000       0.050646         1.3781 
 118   0.0000       0.051872         1.4115 
 119   0.0000       0.056355         1.5335 
 120   0.0000       0.060822         1.6551 
 121   0.0000       0.062678         1.7056 
 122   0.0000       0.068623         1.8673 
 123   0.0000       0.072787         1.9806 
 124   0.0000       0.078061         2.1241 
 125   0.0000       0.081268         2.2114 
 126   0.0000       0.082319         2.2400 
 127   0.0000       0.085904         2.3376 
 128   0.0000       0.088563         2.4099 
 129   0.0000       0.090976         2.4756 
 130   0.0000       0.098168         2.6713 
 131   0.0000       0.100410         2.7323 
 132   0.0000       0.104200         2.8354 
 133   0.0000       0.106944         2.9101 
 134   0.0000       0.108356         2.9485 
 135   0.0000       0.110960         3.0194 
 136   0.0000       0.112700         3.0667 
 137   0.0000       0.113841         3.0978 
 138   0.0000       0.120479         3.2784 
 139   0.0000       0.124081         3.3764 
 140   0.0000       0.124832         3.3969 
 141   0.0000       0.128302         3.4913 
 142   0.0000       0.130921         3.5626 
 143   0.0000       0.134040         3.6474 
 144   0.0000       0.138405         3.7662 
 145   0.0000       0.141174         3.8415 
 146   0.0000       0.142143         3.8679 
 147   0.0000       0.146406         3.9839 
 148   0.0000       0.148621         4.0442 
 149   0.0000       0.152265         4.1433 
 150   0.0000       0.156027         4.2457 
 151   0.0000       0.157801         4.2940 
 152   0.0000       0.161336         4.3902 
 153   0.0000       0.161814         4.4032 
 154   0.0000       0.164953         4.4886 
 155   0.0000       0.168757         4.5921 
 156   0.0000       0.175332         4.7710 
 157   0.0000       0.177572         4.8320 
 158   0.0000       0.184341         5.0162 
 159   0.0000       0.186127         5.0648 
 160   0.0000       0.190005         5.1703 
 161   0.0000       0.192431         5.2363 
 162   0.0000       0.197018         5.3611 
 163   0.0000       0.200137         5.4460 
 164   0.0000       0.202034         5.4976 
 165   0.0000       0.204520         5.5653 
 166   0.0000       0.206106         5.6084 
 167   0.0000       0.208787         5.6814 
 168   0.0000       0.213504         5.8097 
 169   0.0000       0.214126         5.8267 
 170   0.0000       0.219273         5.9667 
 171   0.0000       0.226579         6.1655 
 172   0.0000       0.227590         6.1930 
 173   0.0000       0.230103         6.2614 
 174   0.0000       0.232129         6.3165 
 175   0.0000       0.241801         6.5798 
 176   0.0000       0.249005         6.7758 
 177   0.0000       0.256807         6.9881 
 178   0.0000       0.262684         7.1480 
 179   0.0000       0.266934         7.2636 
 180   0.0000       0.274203         7.4614 
 181   0.0000       0.285019         7.7558 
 182   0.0000       0.289751         7.8845 
 183   0.0000       0.294845         8.0231 
 184   0.0000       0.301500         8.2042 
 185   0.0000       0.327179         8.9030 
 186   0.0000       0.334395         9.0993 
 187   0.0000       0.336791         9.1646 
 188   0.0000       0.343723         9.3532 
 189   0.0000       0.355189         9.6652 
 190   0.0000       0.358340         9.7509 
 191   0.0000       0.361602         9.8397 
 192   0.0000       0.367019         9.9871 
 193   0.0000       0.371910        10.1202 
 194   0.0000       0.377991        10.2856 
 195   0.0000       0.382161        10.3991 
 196   0.0000       0.384960        10.4753 
 197   0.0000       0.387745        10.5511 
 198   0.0000       0.395998        10.7757 
 199   0.0000       0.399976        10.8839 
 200   0.0000       0.402217        10.9449 
 201   0.0000       0.404896        11.0178 
 202   0.0000       0.413030        11.2391 
 203   0.0000       0.418965        11.4006 
 204   0.0000       0.423236        11.5168 
 205   0.0000       0.433999        11.8097 
 206   0.0000       0.438558        11.9338 
 207   0.0000       0.448254        12.1976 
 208   0.0000       0.452044        12.3007 
 209   0.0000       0.459459        12.5025 
 210   0.0000       0.460158        12.5215 
 211   0.0000       0.466185        12.6855 
 212   0.0000       0.468991        12.7619 
 213   0.0000       0.472649        12.8614 
 214   0.0000       0.474981        12.9249 
 215   0.0000       0.479535        13.0488 
 216   0.0000       0.482233        13.1222 
 217   0.0000       0.491724        13.3805 
 218   0.0000       0.493908        13.4399 
 219   0.0000       0.498925        13.5765 
 220   0.0000       0.503725        13.7071 
 221   0.0000       0.506648        13.7866 
 222   0.0000       0.510728        13.8976 
 223   0.0000       0.515546        14.0287 
 224   0.0000       0.523881        14.2555 
 225   0.0000       0.525380        14.2963 
 226   0.0000       0.532882        14.5004 
 227   0.0000       0.538398        14.6505 
 228   0.0000       0.542251        14.7554 
 229   0.0000       0.543540        14.7905 
 230   0.0000       0.552938        15.0462 
 231   0.0000       0.554747        15.0954 
 232   0.0000       0.559023        15.2118 
 233   0.0000       0.559608        15.2277 
 234   0.0000       0.565144        15.3783 
 235   0.0000       0.566657        15.4195 
 236   0.0000       0.572542        15.5797 
 237   0.0000       0.573378        15.6024 
 238   0.0000       0.576713        15.6932 
 239   0.0000       0.580280        15.7902 
 240   0.0000       0.582840        15.8599 
 241   0.0000       0.584162        15.8958 
 242   0.0000       0.590746        16.0750 
 243   0.0000       0.592432        16.1209 
 244   0.0000       0.594660        16.1815 
 245   0.0000       0.597986        16.2720 
 246   0.0000       0.598928        16.2977 
 247   0.0000       0.602561        16.3965 
 248   0.0000       0.604029        16.4365 
 249   0.0000       0.604546        16.4505 
 250   0.0000       0.605610        16.4795 
 251   0.0000       0.608066        16.5463 
 252   0.0000       0.609921        16.5968 
 253   0.0000       0.613319        16.6893 
 254   0.0000       0.616842        16.7851 
 255   0.0000       0.618730        16.8365 
 256   0.0000       0.619618        16.8607 
 257   0.0000       0.626797        17.0560 
 258   0.0000       0.629927        17.1412 
 259   0.0000       0.631698        17.1894 
 260   0.0000       0.635278        17.2868 
 261   0.0000       0.638065        17.3626 
 262   0.0000       0.640424        17.4268 
 263   0.0000       0.642619        17.4865 
 264   0.0000       0.648219        17.6389 
 265   0.0000       0.650618        17.7042 
 266   0.0000       0.651565        17.7300 
 267   0.0000       0.652564        17.7572 
 268   0.0000       0.655321        17.8322 
 269   0.0000       0.657298        17.8860 
 270   0.0000       0.658730        17.9250 
 271   0.0000       0.666626        18.1398 
 272   0.0000       0.667614        18.1667 
 273   0.0000       0.670463        18.2442 
 274   0.0000       0.674473        18.3533 
 275   0.0000       0.678471        18.4621 
 276   0.0000       0.680693        18.5226 
 277   0.0000       0.684867        18.6362 
 278   0.0000       0.686633        18.6842 
 279   0.0000       0.689636        18.7660 
 280   0.0000       0.691589        18.8191 
 281   0.0000       0.697831        18.9889 
 282   0.0000       0.698994        19.0206 
 283   0.0000       0.707489        19.2518 
 284   0.0000       0.710696        19.3390 
 285   0.0000       0.711498        19.3608 
 286   0.0000       0.719695        19.5839 
 287   0.0000       0.721795        19.6410 
 288   0.0000       0.730460        19.8768 
 289   0.0000       0.735448        20.0125 
 290   0.0000       0.740827        20.1589 
 291   0.0000       0.748392        20.3648 
 292   0.0000       0.751641        20.4532 
 293   0.0000       0.759431        20.6652 
 294   0.0000       0.765524        20.8310 
 295   0.0000       0.771046        20.9812 
 296   0.0000       0.774940        21.0872 
 297   0.0000       0.780757        21.2455 
 298   0.0000       0.790722        21.5166 
 299   0.0000       0.791853        21.5474 
 300   0.0000       0.796640        21.6777 
 301   0.0000       0.803792        21.8723 
 302   0.0000       0.810733        22.0612 
 303   0.0000       0.820180        22.3182 
 304   0.0000       0.830462        22.5980 
 305   0.0000       0.857882        23.3442 
 306   0.0000       0.862700        23.4752 
 307   0.0000       0.886156        24.1135 
 308   0.0000       0.895295        24.3622 
 309   0.0000       0.911204        24.7951 
 310   0.0000       0.930702        25.3257 
 311   0.0000       0.936546        25.4847 
 312   0.0000       0.949591        25.8397 
 313   0.0000       0.963447        26.2167 
 314   0.0000       0.977080        26.5877 
 315   0.0000       0.988352        26.8944 
 316   0.0000       1.003508        27.3068 
 317   0.0000       1.022494        27.8235 
 318   0.0000       1.025450        27.9039 
 319   0.0000       1.037787        28.2396 
 320   0.0000       1.052202        28.6319 
 321   0.0000       1.059948        28.8427 
 322   0.0000       1.073856        29.2211 
 323   0.0000       1.091986        29.7144 
 324   0.0000       1.105450        30.0808 
 325   0.0000       1.113435        30.2981 
 326   0.0000       1.149330        31.2749 
 327   0.0000       1.155749        31.4495 
 328   0.0000       1.175732        31.9933 
 329   0.0000       1.178243        32.0616 
 330   0.0000       1.194627        32.5074 
 331   0.0000       1.217078        33.1184 
 332   0.0000       1.228515        33.4296 
 333   0.0000       1.240970        33.7685 
 334   0.0000       1.252702        34.0878 
 335   0.0000       1.266200        34.4551 
 336   0.0000       1.281081        34.8600 
 337   0.0000       1.291770        35.1509 
 338   0.0000       1.301414        35.4133 
 339   0.0000       1.312191        35.7065 
 340   0.0000       1.326332        36.0913 
 341   0.0000       1.336081        36.3566 
 342   0.0000       1.344747        36.5924 
 343   0.0000       1.360447        37.0197 
 344   0.0000       1.364486        37.1295 
 345   0.0000       1.370584        37.2955 
 346   0.0000       1.384714        37.6800 
 347   0.0000       1.390425        37.8354 
 348   0.0000       1.395702        37.9790 
 349   0.0000       1.412118        38.4257 
 350   0.0000       1.417963        38.5847 
 351   0.0000       1.429205        38.8906 
 352   0.0000       1.436616        39.0923 
 353   0.0000       1.440131        39.1880 
 354   0.0000       1.453085        39.5404 
 355   0.0000       1.468154        39.9505 
 356   0.0000       1.472805        40.0771 
 357   0.0000       1.495378        40.6913 
 358   0.0000       1.502809        40.8935 
 359   0.0000       1.507605        41.0240 
 360   0.0000       1.519134        41.3377 
 361   0.0000       1.521734        41.4085 
 362   0.0000       1.526623        41.5415 
 363   0.0000       1.550737        42.1977 
 364   0.0000       1.556653        42.3587 
 365   0.0000       1.561608        42.4935 
 366   0.0000       1.579229        42.9730 
 367   0.0000       1.587889        43.2087 
 368   0.0000       1.603509        43.6337 
 369   0.0000       1.611073        43.8395 
 370   0.0000       1.616294        43.9816 
 371   0.0000       1.623018        44.1646 
 372   0.0000       1.630216        44.3604 
 373   0.0000       1.642091        44.6836 
 374   0.0000       1.649927        44.8968 
 375   0.0000       1.659807        45.1656 
 376   0.0000       1.666569        45.3497 
 377   0.0000       1.674361        45.5617 
 378   0.0000       1.680918        45.7401 
 379   0.0000       1.684735        45.8440 
 380   0.0000       1.686320        45.8871 
 381   0.0000       1.692004        46.0418 
 382   0.0000       1.694894        46.1204 
 383   0.0000       1.703788        46.3624 
 384   0.0000       1.708332        46.4861 
 385   0.0000       1.714387        46.6508 
 386   0.0000       1.717641        46.7394 
 387   0.0000       1.722459        46.8705 
 388   0.0000       1.732046        47.1314 
 389   0.0000       1.736278        47.2465 
 390   0.0000       1.742237        47.4087 
 391   0.0000       1.748187        47.5706 
 392   0.0000       1.752926        47.6996 
 393   0.0000       1.766050        48.0567 
 394   0.0000       1.770282        48.1718 
 395   0.0000       1.771310        48.1998 
 396   0.0000       1.778258        48.3889 
 397   0.0000       1.785842        48.5952 
 398   0.0000       1.790714        48.7278 
 399   0.0000       1.793283        48.7977 
 400   0.0000       1.802624        49.0519 
 401   0.0000       1.804608        49.1059 
 402   0.0000       1.810446        49.2647 
 403   0.0000       1.813911        49.3590 
 404   0.0000       1.818962        49.4965 
 405   0.0000       1.823777        49.6275 
 406   0.0000       1.828114        49.7455 
 407   0.0000       1.834122        49.9090 
 408   0.0000       1.839539        50.0564 
 409   0.0000       1.846683        50.2508 
 410   0.0000       1.860672        50.6315 
 411   0.0000       1.865452        50.7615 
 412   0.0000       1.877065        51.0775 
 413   0.0000       1.883895        51.2634 
 414   0.0000       1.891594        51.4729 
 415   0.0000       1.893024        51.5118 
 416   0.0000       1.900460        51.7142 
 417   0.0000       1.907849        51.9152 
 418   0.0000       1.921296        52.2811 
 419   0.0000       1.926237        52.4156 
 420   0.0000       1.929306        52.4991 
 421   0.0000       1.937824        52.7309 
 422   0.0000       1.947522        52.9948 
 423   0.0000       1.951442        53.1014 
 424   0.0000       1.954991        53.1980 
 425   0.0000       1.961729        53.3814 
 426   0.0000       1.966457        53.5100 
 427   0.0000       1.971614        53.6503 
 428   0.0000       1.973934        53.7135 
 429   0.0000       1.978350        53.8337 
 430   0.0000       1.981762        53.9265 
 431   0.0000       1.987401        54.0799 
 432   0.0000       1.989852        54.1466 
 433   0.0000       1.993939        54.2578 
 434   0.0000       2.001200        54.4554 
 435   0.0000       2.004786        54.5530 
 436   0.0000       2.008848        54.6635 
 437   0.0000       2.010558        54.7101 
 438   0.0000       2.013828        54.7991 
 439   0.0000       2.022746        55.0417 
 440   0.0000       2.028283        55.1924 
 441   0.0000       2.031285        55.2741 
 442   0.0000       2.035091        55.3776 
 443   0.0000       2.043492        55.6062 
[...]

 --------------
 Nucleus  47H :
 --------------

Diamagnetic contribution to the shielding tensor (ppm) : 
            32.003         -2.845        -4.770
            -4.196         35.454         8.943
            -6.655          8.444        48.439

Paramagnetic contribution to the shielding tensor (ppm): 
            -0.782          0.887         2.827
             2.019         -7.543        -5.904
             4.061         -4.611       -13.757

Total shielding tensor (ppm): 
            31.221         -1.958        -1.942
            -2.177         27.911         3.039
            -2.595          3.833        34.682


 Diagonalized sT*s matrix:
 
 sDSO            30.829           30.930           54.137  iso=      38.632
 sPSO            -4.612           -0.810          -16.660  iso=      -7.361
        ---------------  ---------------  ---------------
 Total           26.217           30.120           37.477  iso=      31.271

 --------------
 Nucleus  48H :
 --------------

Diamagnetic contribution to the shielding tensor (ppm) : 
            35.322         -0.744        -2.173
            -1.387         31.326        -3.819
            -7.220         -3.009        51.390

Paramagnetic contribution to the shielding tensor (ppm): 
            -4.428          1.349         2.055
             1.465         -3.542         1.887
             8.519          0.692       -20.647

Total shielding tensor (ppm): 
            30.894          0.605        -0.117
             0.079         27.785        -1.932
             1.300         -2.317        30.743


 Diagonalized sT*s matrix:
 
 sDSO            33.870           38.121           46.048  iso=      39.346
 sPSO            -7.273           -7.279          -14.065  iso=      -9.539
        ---------------  ---------------  ---------------
 Total           26.597           30.841           31.983  iso=      29.807

 --------------
 Nucleus  52H :
 --------------

Diamagnetic contribution to the shielding tensor (ppm) : 
            40.240         -2.384        -0.680
             1.975         53.649        -1.575
             4.208          3.464        30.293

Paramagnetic contribution to the shielding tensor (ppm): 
            -6.125          4.069         3.262
             0.863        -31.693         2.675
            -2.147         -2.717        -8.284

Total shielding tensor (ppm): 
            34.115          1.685         2.582
             2.838         21.955         1.100
             2.061          0.747        22.010


 Diagonalized sT*s matrix:
 
 sDSO            41.393           41.877           40.911  iso=      41.394
 sPSO           -20.333          -19.841           -5.929  iso=     -15.367
        ---------------  ---------------  ---------------
 Total           21.060           22.037           34.983  iso=      26.026

 --------------
 Nucleus  53H :
 --------------

Diamagnetic contribution to the shielding tensor (ppm) : 
            38.090         -4.492         1.287
           -11.209         53.788        11.134
            -2.643         -1.815        38.277

Paramagnetic contribution to the shielding tensor (ppm): 
            -4.862          5.883         1.275
            13.535        -31.684        -9.933
             4.496          2.519       -15.886

Total shielding tensor (ppm): 
            33.228          1.391         2.562
             2.326         22.104         1.201
             1.854          0.704        22.391


 Diagonalized sT*s matrix:
 
 sDSO            42.386           51.641           36.128  iso=      43.385
 sPSO           -21.100          -29.202           -2.130  iso=     -17.477
        ---------------  ---------------  ---------------
 Total           21.286           22.439           33.998  iso=      25.908

 --------------
 Nucleus  57H :
 --------------

Diamagnetic contribution to the shielding tensor (ppm) : 
            32.401         -0.481         2.168
             0.313         46.288         0.647
            17.407          1.098        34.945

Paramagnetic contribution to the shielding tensor (ppm): 
            -3.352          0.308        -1.366
            -0.545        -16.565        -2.525
           -15.177         -3.674        -3.000

Total shielding tensor (ppm): 
            29.048         -0.173         0.802
            -0.232         29.723        -1.878
             2.229         -2.577        31.945


 Diagonalized sT*s matrix:
 
 sDSO            32.182           39.967           41.485  iso=      37.878
 sPSO            -4.312          -10.864           -7.741  iso=      -7.639
        ---------------  ---------------  ---------------
 Total           27.870           29.103           33.743  iso=      30.239

 --------------
 Nucleus  58H :
 --------------

Diamagnetic contribution to the shielding tensor (ppm) : 
            34.319         -0.249        -0.495
             0.888         23.802       -11.185
           -12.390         -8.405        36.472

Paramagnetic contribution to the shielding tensor (ppm): 
            -3.815          0.082         1.197
            -1.196          6.013         9.074
            12.690          5.941        -4.028

Total shielding tensor (ppm): 
            30.505         -0.167         0.701
            -0.308         29.816        -2.111
             0.300         -2.464        32.444


 Diagonalized sT*s matrix:
 
 sDSO            18.661           36.153           39.779  iso=      31.531
 sPSO             9.829           -5.738           -5.920  iso=      -0.610
        ---------------  ---------------  ---------------
 Total           28.491           30.415           33.859  iso=      30.922

 --------------
 Nucleus  61H :
 --------------

Diamagnetic contribution to the shielding tensor (ppm) : 
            28.168         -1.709        -0.911
            15.186         45.103        -7.990
             5.381         -1.861        34.356

Paramagnetic contribution to the shielding tensor (ppm): 
             2.063          1.031         2.417
           -16.245        -11.535         4.839
            -4.027         -1.266        -5.419

Total shielding tensor (ppm): 
            30.231         -0.679         1.506
            -1.059         33.568        -3.151
             1.354         -3.127        28.937


 Diagonalized sT*s matrix:
 
 sDSO            29.425           35.197           43.005  iso=      35.876
 sPSO            -2.343           -5.083           -7.465  iso=      -4.964
        ---------------  ---------------  ---------------
 Total           27.082           30.114           35.540  iso=      30.912

 --------------
 Nucleus  62H :
 --------------

Diamagnetic contribution to the shielding tensor (ppm) : 
            29.159          4.684         3.533
            26.112         35.369         0.268
            25.159          9.476        34.985

Paramagnetic contribution to the shielding tensor (ppm): 
             2.701         -3.342        -1.333
           -24.122         -4.818         4.795
           -23.050         -4.396        -6.210

Total shielding tensor (ppm): 
            31.860          1.342         2.200
             1.990         30.551         5.064
             2.109          5.079        28.775


 Diagonalized sT*s matrix:
 
 sDSO            30.090           13.730           55.693  iso=      33.171
 sPSO            -5.625           16.605          -19.307  iso=      -2.775
        ---------------  ---------------  ---------------
 Total           24.465           30.335           36.386  iso=      30.395

 --------------
 Nucleus  63H :
 --------------

Diamagnetic contribution to the shielding tensor (ppm) : 
            36.167         -3.354        -7.977
            11.247         45.682         3.117
             8.928         11.826        35.122

Paramagnetic contribution to the shielding tensor (ppm): 
            -1.672          2.719         5.001
           -12.467        -17.567        -0.312
           -12.268         -8.300        -5.428

Total shielding tensor (ppm): 
            34.495         -0.635        -2.976
            -1.220         28.116         2.806
            -3.340          3.527        29.694


 Diagonalized sT*s matrix:
 
 sDSO            32.672           47.853           36.448  iso=      38.991
 sPSO            -7.222          -17.693            0.247  iso=      -8.222
        ---------------  ---------------  ---------------
 Total           25.450           30.160           36.695  iso=      30.768

 --------------
 Nucleus  64H :
 --------------

Diamagnetic contribution to the shielding tensor (ppm) : 
            33.407          1.307         3.231
           -20.911         33.045        10.306
           -12.710          4.296        26.961

Paramagnetic contribution to the shielding tensor (ppm): 
            -0.903         -0.446        -1.618
            23.504         -2.709        -5.252
            13.969          0.914         0.942

Total shielding tensor (ppm): 
            32.504          0.861         1.613
             2.593         30.336         5.053
             1.259          5.210        27.904


 Diagonalized sT*s matrix:
 
 sDSO            22.104           44.751           26.558  iso=      31.138
 sPSO             1.743          -13.738            9.326  iso=      -0.890
        ---------------  ---------------  ---------------
 Total           23.847           31.013           35.884  iso=      30.248

 --------------
 Nucleus  65H :
 --------------

Diamagnetic contribution to the shielding tensor (ppm) : 
            28.676         -4.875         1.180
           -24.405         29.112        -5.766
            -2.365         -9.835        24.575

Paramagnetic contribution to the shielding tensor (ppm): 
             1.146          2.650         0.151
            22.246          4.661         2.533
             3.004          7.232         4.924

Total shielding tensor (ppm): 
            29.822         -2.225         1.331
            -2.159         33.772        -3.234
             0.639         -2.602        29.499


 Diagonalized sT*s matrix:
 
 sDSO            17.487           22.696           42.180  iso=      27.454
 sPSO            10.520            6.229           -6.019  iso=       3.577
        ---------------  ---------------  ---------------
 Total           28.007           28.925           36.161  iso=      31.031

 --------------
 Nucleus  66H :
 --------------

Diamagnetic contribution to the shielding tensor (ppm) : 
            36.587         -5.242        -7.565
           -21.405         11.196        -3.974
           -16.763         -2.514        22.181

Paramagnetic contribution to the shielding tensor (ppm): 
            -2.782          3.689         3.147
            19.024         17.919         6.564
            11.873          4.969         7.582

Total shielding tensor (ppm): 
            33.805         -1.553        -4.418
            -2.381         29.115         2.590
            -4.891          2.455        29.763


 Diagonalized sT*s matrix:
 
 sDSO            21.416            3.051           45.496  iso=      23.321
 sPSO             4.778           25.526           -7.585  iso=       7.573
        ---------------  ---------------  ---------------
 Total           26.195           28.577           37.911  iso=      30.894

 --------------
 Nucleus  67H :
 --------------

Diamagnetic contribution to the shielding tensor (ppm) : 
            29.065          3.171         1.153
            25.795         25.874        -4.334
            10.942         -0.913        17.717

Paramagnetic contribution to the shielding tensor (ppm): 
             2.005         -0.485        -0.680
           -24.371          8.948         6.563
           -11.365          3.664         7.423

Total shielding tensor (ppm): 
            31.070          2.686         0.472
             1.424         34.822         2.229
            -0.423          2.751        25.141


 Diagonalized sT*s matrix:
 
 sDSO            19.803           17.661           35.192  iso=      24.219
 sPSO             4.701           12.660            1.016  iso=       6.126
        ---------------  ---------------  ---------------
 Total           24.504           30.320           36.208  iso=      30.344

 --------------
 Nucleus  68H :
 --------------

Diamagnetic contribution to the shielding tensor (ppm) : 
            40.999          1.813        -3.884
             7.594          2.595        -6.465
            -6.299        -10.650        11.620

Paramagnetic contribution to the shielding tensor (ppm): 
            -4.246         -0.172         0.408
            -5.325         25.188         6.947
             3.463         11.114        16.493

Total shielding tensor (ppm): 
            36.753          1.641        -3.477
             2.269         27.783         0.482
            -2.836          0.464        28.112


 Diagonalized sT*s matrix:
 
 sDSO            14.504           -1.804           42.514  iso=      18.405
 sPSO            11.722           30.156           -4.443  iso=      12.478
        ---------------  ---------------  ---------------
 Total           26.226           28.352           38.070  iso=      30.883

 --------------
 Nucleus  69H :
 --------------

Diamagnetic contribution to the shielding tensor (ppm) : 
            31.657          0.362         5.795
             6.780         10.529        -8.291
            20.128         -6.865        25.794

Paramagnetic contribution to the shielding tensor (ppm): 
             0.441         -0.720        -1.514
            -6.643         17.480         7.802
           -16.344          5.967         7.494

Total shielding tensor (ppm): 
            32.099         -0.358         4.281
             0.137         28.010        -0.490
             3.784         -0.898        33.288


 Diagonalized sT*s matrix:
 
 sDSO             5.255           21.332           41.394  iso=      22.660
 sPSO            22.547            7.452           -4.584  iso=       8.472
        ---------------  ---------------  ---------------
 Total           27.802           28.784           36.810  iso=      31.132

 --------------
 Nucleus  70H :
 --------------

Diamagnetic contribution to the shielding tensor (ppm) : 
            30.783          2.371         4.864
            -6.711         38.823        12.449
            -2.416          8.718        40.639

Paramagnetic contribution to the shielding tensor (ppm): 
             2.524         -1.762        -3.998
             7.808         -8.693        -7.676
             3.444         -4.203       -13.164

Total shielding tensor (ppm): 
            33.307          0.609         0.866
             1.098         30.130         4.773
             1.027          4.515        27.475


 Diagonalized sT*s matrix:
 
 sDSO            29.689           40.047           40.509  iso=      36.748
 sPSO            -5.723           -7.835           -5.775  iso=      -6.444
        ---------------  ---------------  ---------------
 Total           23.966           32.212           34.734  iso=      30.304

 --------------
 Nucleus  71H :
 --------------

Diamagnetic contribution to the shielding tensor (ppm) : 
            27.882         -5.897         0.528
           -10.681         41.250         2.354
            -0.412         -7.296        43.410

Paramagnetic contribution to the shielding tensor (ppm): 
             3.676          4.894         0.538
             9.225         -8.677        -5.793
             1.067          3.865       -14.859

Total shielding tensor (ppm): 
            31.558         -1.004         1.066
            -1.456         32.573        -3.439
             0.655         -3.431        28.551


 Diagonalized sT*s matrix:
 
 sDSO            41.024           24.840           46.678  iso=      37.514
 sPSO           -14.446            6.102          -11.515  iso=      -6.620
        ---------------  ---------------  ---------------
 Total           26.578           30.942           35.163  iso=      30.894

 --------------
 Nucleus  72H :
 --------------

Diamagnetic contribution to the shielding tensor (ppm) : 
            35.450         -8.151        -7.671
           -13.044         25.903         9.463
           -18.216          4.678        37.606

Paramagnetic contribution to the shielding tensor (ppm): 
            -0.266          6.637         4.162
            11.092          2.152        -6.590
            14.352         -0.918        -8.789

Total shielding tensor (ppm): 
            35.184         -1.514        -3.509
            -1.952         28.056         2.872
            -3.864          3.760        28.817


 Diagonalized sT*s matrix:
 
 sDSO            24.677           22.143           52.139  iso=      32.986
 sPSO             0.254            7.169          -14.325  iso=      -2.301
        ---------------  ---------------  ---------------
 Total           24.931           29.312           37.814  iso=      30.686



--------------------------------
CHEMICAL SHIELDING SUMMARY (ppm)
--------------------------------


  Nucleus  Element    Isotropic     Anisotropy
  -------  -------  ------------   ------------
      3       H           29.366          6.482 
      4       H           29.045          7.406 
      8       H           29.564          7.972 
      9       H           29.342          5.408 
     10       H           30.098          8.327 
     11       H           29.855         10.215 
     13       H           27.732          7.759 
     16       H           26.792          4.734 
     17       H           26.504          4.821 
     19       H           25.405         10.442 
     21       H           25.571         14.840 
     24       H           28.904         10.156 
     25       H           30.044          9.535 
     27       H           30.232          7.045 
     28       H           30.119         11.780 
     30       H           29.730          8.475 
     31       H           30.471          6.816 
     33       H           29.831          4.235 
     35       H           30.152         14.758 
     37       H           30.316         10.749 
     38       H           30.189          9.899 
     40       H           29.838          9.977 
     41       H           30.230          8.060 
     42       H           30.782          5.045 
     45       H           31.223          7.391 
     46       H           31.016          7.994 
     47       H           31.271          9.308 
     48       H           29.807          3.263 
     52       H           26.026         13.434 
     53       H           25.908         12.136 
     57       H           30.239          5.257 
     58       H           30.922          4.406 
     61       H           30.912          6.942 
     62       H           30.395          8.986 
     63       H           30.768          8.890 
     64       H           30.248          8.455 
     65       H           31.031          7.695 
     66       H           30.894         10.525 
     67       H           30.344          8.796 
     68       H           30.883         10.781 
     69       H           31.132          8.517 
     70       H           30.304          6.645 
     71       H           30.894          6.403 
     72       H           30.686         10.693 



Maximum memory used throughout the entire EPRNMR-calculation: 140.2 MB

Timings for individual modules:

Sum of individual times         ...      142.085 sec (=   2.368 min)
GTO integral calculation        ...        0.848 sec (=   0.014 min)   0.6 %
SCF iterations                  ...       95.861 sec (=   1.598 min)  67.5 %
EPR/NMR calculation             ...       45.376 sec (=   0.756 min)  31.9 %
                             ****ORCA TERMINATED NORMALLY****
TOTAL RUN TIME: 0 days 0 hours 2 minutes 22 seconds 588 msec
