
                                 *****************
                                 * O   R   C   A *
                                 *****************

                                            #,                                       
                                            ###                                      
                                            ####                                     
                                            #####                                    
                                            ######                                   
                                           ########,                                 
                                     ,,################,,,,,                         
                               ,,#################################,,                 
                          ,,##########################################,,             
                       ,#########################################, ''#####,          
                    ,#############################################,,   '####,        
                  ,##################################################,,,,####,       
                ,###########''''           ''''###############################       
              ,#####''   ,,,,##########,,,,          '''####'''          '####       
            ,##' ,,,,###########################,,,                        '##       
           ' ,,###''''                  '''############,,,                           
         ,,##''                                '''############,,,,        ,,,,,,###''
      ,#''                                            '''#######################'''  
     '                                                          ''''####''''         
             ,#######,   #######,   ,#######,      ##                                
            ,#'     '#,  ##    ##  ,#'     '#,    #''#        ######   ,####,        
            ##       ##  ##   ,#'  ##            #'  '#       #        #'  '#        
            ##       ##  #######   ##           ,######,      #####,   #    #        
            '#,     ,#'  ##    ##  '#,     ,#' ,#      #,         ##   #,  ,#        
             '#######'   ##     ##  '#######'  #'      '#     #####' # '####'        



                  #######################################################
                  #                        -***-                        #
                  #          Department of theory and spectroscopy      #
                  #    Directorship and core code : Frank Neese         #
                  #        Max Planck Institute fuer Kohlenforschung    #
                  #                Kaiser Wilhelm Platz 1               #
                  #                 D-45470 Muelheim/Ruhr               #
                  #                      Germany                        #
                  #                                                     #
                  #                  All rights reserved                #
                  #                        -***-                        #
                  #######################################################


                         Program Version 5.0.2 -  RELEASE  -


 With contributions from (in alphabetic order):
   Daniel Aravena         : Magnetic Suceptibility
   Michael Atanasov       : Ab Initio Ligand Field Theory (pilot matlab implementation)
   Alexander A. Auer      : GIAO ZORA, VPT2 properties, NMR spectrum
   Ute Becker             : Parallelization
   Giovanni Bistoni       : ED, misc. LED, open-shell LED, HFLD
   Martin Brehm           : Molecular dynamics
   Dmytro Bykov           : SCF Hessian
   Vijay G. Chilkuri      : MRCI spin determinant printing, contributions to CSF-ICE
   Dipayan Datta          : RHF DLPNO-CCSD density
   Achintya Kumar Dutta   : EOM-CC, STEOM-CC
   Dmitry Ganyushin       : Spin-Orbit,Spin-Spin,Magnetic field MRCI
   Miquel Garcia          : C-PCM and meta-GGA Hessian, CC/C-PCM, Gaussian charge scheme
   Yang Guo               : DLPNO-NEVPT2, F12-NEVPT2, CIM, IAO-localization
   Andreas Hansen         : Spin unrestricted coupled pair/coupled cluster methods
   Benjamin Helmich-Paris : MC-RPA, TRAH-SCF, COSX integrals
   Lee Huntington         : MR-EOM, pCC
   Robert Izsak           : Overlap fitted RIJCOSX, COSX-SCS-MP3, EOM
   Marcus Kettner         : VPT2
   Christian Kollmar      : KDIIS, OOCD, Brueckner-CCSD(T), CCSD density, CASPT2, CASPT2-K
   Simone Kossmann        : Meta GGA functionals, TD-DFT gradient, OOMP2, MP2 Hessian
   Martin Krupicka        : Initial AUTO-CI
   Lucas Lang             : DCDCAS
   Marvin Lechner         : AUTO-CI (C++ implementation), FIC-MRCC
   Dagmar Lenk            : GEPOL surface, SMD
   Dimitrios Liakos       : Extrapolation schemes; Compound Job, initial MDCI parallelization
   Dimitrios Manganas     : Further ROCIS development; embedding schemes
   Dimitrios Pantazis     : SARC Basis sets
   Anastasios Papadopoulos: AUTO-CI, single reference methods and gradients
   Taras Petrenko         : DFT Hessian,TD-DFT gradient, ASA, ECA, R-Raman, ABS, FL, XAS/XES, NRVS
   Peter Pinski           : DLPNO-MP2, DLPNO-MP2 Gradient
   Christoph Reimann      : Effective Core Potentials
   Marius Retegan         : Local ZFS, SOC
   Christoph Riplinger    : Optimizer, TS searches, QM/MM, DLPNO-CCSD(T), (RO)-DLPNO pert. Triples
   Tobias Risthaus        : Range-separated hybrids, TD-DFT gradient, RPA, STAB
   Michael Roemelt        : Original ROCIS implementation
   Masaaki Saitow         : Open-shell DLPNO-CCSD energy and density
   Barbara Sandhoefer     : DKH picture change effects
   Avijit Sen             : IP-ROCIS
   Kantharuban Sivalingam : CASSCF convergence, NEVPT2, FIC-MRCI
   Bernardo de Souza      : ESD, SOC TD-DFT
   Georgi Stoychev        : AutoAux, RI-MP2 NMR, DLPNO-MP2 response
   Willem Van den Heuvel  : Paramagnetic NMR
   Boris Wezisla          : Elementary symmetry handling
   Frank Wennmohs         : Technical directorship


 We gratefully acknowledge several colleagues who have allowed us to
 interface, adapt or use parts of their codes:
   Stefan Grimme, W. Hujo, H. Kruse, P. Pracht,  : VdW corrections, initial TS optimization,
                  C. Bannwarth, S. Ehlert          DFT functionals, gCP, sTDA/sTD-DF
   Ed Valeev, F. Pavosevic, A. Kumar             : LibInt (2-el integral package), F12 methods
   Garnet Chan, S. Sharma, J. Yang, R. Olivares  : DMRG
   Ulf Ekstrom                                   : XCFun DFT Library
   Mihaly Kallay                                 : mrcc  (arbitrary order and MRCC methods)
   Jiri Pittner, Ondrej Demel                    : Mk-CCSD
   Frank Weinhold                                : gennbo (NPA and NBO analysis)
   Christopher J. Cramer and Donald G. Truhlar   : smd solvation model
   Lars Goerigk                                  : TD-DFT with DH, B97 family of functionals
   V. Asgeirsson, H. Jonsson                     : NEB implementation
   FAccTs GmbH                                   : IRC, NEB, NEB-TS, DLPNO-Multilevel, CI-OPT
                                                   MM, QMMM, 2- and 3-layer-ONIOM, Crystal-QMMM,
                                                   LR-CPCM, SF, NACMEs, symmetry and pop. for TD-DFT,
                                                   nearIR, NL-DFT gradient (VV10), updates on ESD,
                                                   ML-optimized integration grids
   S Lehtola, MJT Oliveira, MAL Marques          : LibXC Library
   Liviu Ungur et al                             : ANISO software


 Your calculation uses the libint2 library for the computation of 2-el integrals
 For citations please refer to: http://libint.valeyev.net

 Your ORCA version has been built with support for libXC version: 5.1.0
 For citations please refer to: https://tddft.org/programs/libxc/

 This ORCA versions uses:
   CBLAS   interface :  Fast vector & matrix operations
   LAPACKE interface :  Fast linear algebra routines
   SCALAPACK package :  Parallel linear algebra routines
   Shared memory     :  Shared parallel matrices
   BLAS/LAPACK       :  OpenBLAS 0.3.15  USE64BITINT DYNAMIC_ARCH NO_AFFINITY Zen SINGLE_THREADED
        Core in use  :  Zen
   Copyright (c) 2011-2014, The OpenBLAS Project


Your calculation utilizes the atom-pairwise dispersion correction
based on tight binding partial charges (D4)
Cite in your paper:
E.Caldeweyher, C.Bannwarth, S.Grimme, J.Chem.Phys., (2017), 147, 034112.
E.Caldeweyher, S.Ehlert, A.Hansen, H.Neugebauer, S.Grimme, J.Chem.Phys., (2018), in progress.
   

================================================================================

----- Orbital basis set information -----
Your calculation utilizes the basis: pcJ-0
   F. Jensen, Theor. Chem. Acc. 126, 371 (2010).

----- AuxJ basis set information -----
Your calculation utilizes the auxiliary basis: def2/J
   F. Weigend, Phys. Chem. Chem. Phys. 8, 1057 (2006).

================================================================================
                                        WARNINGS
                       Please study these warnings very carefully!
================================================================================


INFO   : the flag for use of the SHARK integral package has been found!

================================================================================
                                       INPUT FILE
================================================================================
NAME = inpJ
|  1> ! pbe0
|  2> ! D4
|  3> ! pcJ-0
|  4> ! def2/J RIJCOSX
|  5> ! DEFGRID2
|  6> ! scfconv7
|  7> ! smallprint printgap noloewdin
|  8> ! NOSOSCF
|  9> %MaxCore 4000
| 10> %output
| 11>        print[P_BondOrder_M] 1
| 12>        print[P_Mayer] 1
| 13>        print[P_basis] 2
| 14> end
| 15> %pal
| 16>     nprocs 4
| 17> end
| 18> ! CPCM(chloroform)
| 19> *xyz 0 1
| 20> C   -5.0239014700   0.2170792100  -0.5107102000
| 21> C   -6.4720986600  -0.1715194100  -0.6942168700
| 22> C   -7.3835764800   0.7479105300   0.1285559000
| 23> H   -6.6321841700  -1.2160566800  -0.4039493800
| 24> H   -6.7555824000  -0.0661908000  -1.7519863300
| 25> C   -4.7435942500   1.6431040600  -0.7884673000
| 26> C   -5.6770448300   2.6112811900  -0.0957540600
| 27> C   -7.1491040400   2.2083986000  -0.2611445200
| 28> H   -5.5117671800   3.6281193300  -0.4675546300
| 29> H   -5.4323013800   2.6184128800   0.9773554000
| 30> H   -7.4508125600   2.3384707400  -1.3094144200
| 31> H   -7.7877083600   2.8573744300   0.3492210200
| 32> O   -7.1829851200   0.5351118100   1.5358222000
| 33> H   -8.4322494900   0.4837137400  -0.0554837200
| 34> C   -4.1090696700  -0.6768720200  -0.0654275100
| 35> C   -3.7726780200   2.0499401500  -1.6136348300
| 36> H   -3.1229542900   1.3385523800  -2.1164691000
| 37> H   -3.6135484300   3.1073676300  -1.8115445100
| 38> C   -2.7267080600  -0.3973440300   0.2491941400
| 39> H   -4.4675742000  -1.6923250000   0.0990262300
| 40> C   -1.7815678600  -1.3021095900   0.5816489200
| 41> H   -2.4378518000   0.6509632400   0.2216778800
| 42> C   -1.9750074700  -2.7960003100   0.6379579500
| 43> C   -0.9577757200  -3.5291012500  -0.2583400800
| 44> H   -2.9901382400  -3.0950721900   0.3635712200
| 45> H   -1.8109449700  -3.1199929300   1.6779138300
| 46> C    0.4888888400  -3.0933997900   0.0099941300
| 47> H   -1.2123289700  -3.3464745700  -1.3100278000
| 48> H   -1.0514004000  -4.6102230300  -0.0982100900
| 49> C    0.6548250200  -1.5707851200  -0.0876073400
| 50> H    1.1513659200  -3.6118654400  -0.6910505300
| 51> H    0.7803521700  -3.4115036800   1.0223730100
| 52> C   -0.3680844100  -0.9230552400   0.9005014100
| 53> H   -0.1351558300  -1.3830888200   1.8783980400
| 54> C    0.0608449300   0.5396009500   0.9765517300
| 55> H   -6.2303297700   0.4578741600   1.6874833500
| 56> C    1.6048665700   0.4706479800   0.8839313700
| 57> H   -0.2899996000   1.0236717400   1.8939894100
| 58> H   -0.3471603400   1.1098867000   0.1346214400
| 59> C    1.9768472500  -0.9884022500   0.4835367000
| 60> H    2.0832023000   0.7430104800   1.8300818400
| 61> H    1.9847827100   1.1731926700   0.1328684700
| 62> H    2.1982715400  -1.5574419200   1.4016842800
| 63> C    3.2485314200  -1.0269473800  -0.3879271700
| 64> C    0.4177959900  -1.0806201700  -1.5231899500
| 65> H    0.6432771500  -0.0145180700  -1.6278413200
| 66> H   -0.6226532200  -1.2258072100  -1.8297310900
| 67> H    1.0559168300  -1.6255796400  -2.2276112100
| 68> H    3.0610570600  -0.4426532800  -1.3007929800
| 69> C    3.6709617400  -2.4484525000  -0.7891190800
| 70> C    4.3804543100  -0.3712985400   0.3595192100
| 71> C    5.0745416200   0.6806571900  -0.0739711300
| 72> H    4.6289867800  -0.8332136200   1.3177278900
| 73> H    4.7948326300   1.1175522400  -1.0372515200
| 74> C    6.2214439800   1.3690759900   0.6186613000
| 75> C    6.5786530300   0.7488254200   1.9684437600
| 76> C    5.9530584400   2.8984390400   0.6892959700
| 77> H    7.0988594800   1.2574896000  -0.0417476100
| 78> H    5.6748184200   3.2025443600  -0.3316738600
| 79> C    7.2066157700   3.6871052400   1.0750508900
| 80> C    4.7852020100   3.2488764000   1.6136533300
| 81> H    5.7341453600   0.7874228300   2.6651324000
| 82> H    7.4230723000   1.2688582900   2.4298866400
| 83> H    6.8620632300  -0.3020167600   1.8483953300
| 84> H    8.0545490300   3.4284679900   0.4302799200
| 85> H    7.4984229300   3.4936645100   2.1135508700
| 86> H    7.0256448100   4.7637374900   0.9817964300
| 87> H    3.8893351400   2.6709558200   1.3617488600
| 88> H    4.5388599800   4.3134830000   1.5343281000
| 89> H    5.0365078600   3.0458452000   2.6611412200
| 90> H    2.9521428100  -2.9102471800  -1.4707589900
| 91> H    3.7627812500  -3.0901231600   0.0959078100
| 92> H    4.6435914000  -2.4252573200  -1.2920625300
| 93> *
| 94> %eprnmr
| 95>  Nuclei = all H { ssfc }
| 96>  SpinSpinRThresh 8.0
| 97> end
| 98> 
| 99>                          ****END OF INPUT****
================================================================================

                       ****************************
                       * Single Point Calculation *
                       ****************************

---------------------------------
CARTESIAN COORDINATES (ANGSTROEM)
---------------------------------
  C     -5.023901    0.217079   -0.510710
  C     -6.472099   -0.171519   -0.694217
  C     -7.383576    0.747911    0.128556
  H     -6.632184   -1.216057   -0.403949
  H     -6.755582   -0.066191   -1.751986
  C     -4.743594    1.643104   -0.788467
  C     -5.677045    2.611281   -0.095754
  C     -7.149104    2.208399   -0.261145
  H     -5.511767    3.628119   -0.467555
  H     -5.432301    2.618413    0.977355
  H     -7.450813    2.338471   -1.309414
  H     -7.787708    2.857374    0.349221
  O     -7.182985    0.535112    1.535822
  H     -8.432249    0.483714   -0.055484
  C     -4.109070   -0.676872   -0.065428
  C     -3.772678    2.049940   -1.613635
  H     -3.122954    1.338552   -2.116469
  H     -3.613548    3.107368   -1.811545
  C     -2.726708   -0.397344    0.249194
  H     -4.467574   -1.692325    0.099026
  C     -1.781568   -1.302110    0.581649
  H     -2.437852    0.650963    0.221678
  C     -1.975007   -2.796000    0.637958
  C     -0.957776   -3.529101   -0.258340
  H     -2.990138   -3.095072    0.363571
  H     -1.810945   -3.119993    1.677914
  C      0.488889   -3.093400    0.009994
  H     -1.212329   -3.346475   -1.310028
  H     -1.051400   -4.610223   -0.098210
  C      0.654825   -1.570785   -0.087607
  H      1.151366   -3.611865   -0.691051
  H      0.780352   -3.411504    1.022373
  C     -0.368084   -0.923055    0.900501
  H     -0.135156   -1.383089    1.878398
  C      0.060845    0.539601    0.976552
  H     -6.230330    0.457874    1.687483
  C      1.604867    0.470648    0.883931
  H     -0.290000    1.023672    1.893989
  H     -0.347160    1.109887    0.134621
  C      1.976847   -0.988402    0.483537
  H      2.083202    0.743010    1.830082
  H      1.984783    1.173193    0.132868
  H      2.198272   -1.557442    1.401684
  C      3.248531   -1.026947   -0.387927
  C      0.417796   -1.080620   -1.523190
  H      0.643277   -0.014518   -1.627841
  H     -0.622653   -1.225807   -1.829731
  H      1.055917   -1.625580   -2.227611
  H      3.061057   -0.442653   -1.300793
  C      3.670962   -2.448452   -0.789119
  C      4.380454   -0.371299    0.359519
  C      5.074542    0.680657   -0.073971
  H      4.628987   -0.833214    1.317728
  H      4.794833    1.117552   -1.037252
  C      6.221444    1.369076    0.618661
  C      6.578653    0.748825    1.968444
  C      5.953058    2.898439    0.689296
  H      7.098859    1.257490   -0.041748
  H      5.674818    3.202544   -0.331674
  C      7.206616    3.687105    1.075051
  C      4.785202    3.248876    1.613653
  H      5.734145    0.787423    2.665132
  H      7.423072    1.268858    2.429887
  H      6.862063   -0.302017    1.848395
  H      8.054549    3.428468    0.430280
  H      7.498423    3.493665    2.113551
  H      7.025645    4.763737    0.981796
  H      3.889335    2.670956    1.361749
  H      4.538860    4.313483    1.534328
  H      5.036508    3.045845    2.661141
  H      2.952143   -2.910247   -1.470759
  H      3.762781   -3.090123    0.095908
  H      4.643591   -2.425257   -1.292063

----------------------------
CARTESIAN COORDINATES (A.U.)
----------------------------
  NO LB      ZA    FRAG     MASS         X           Y           Z
   0 C     6.0000    0    12.011   -9.493798    0.410220   -0.965102
   1 C     6.0000    0    12.011  -12.230494   -0.324125   -1.311880
   2 C     6.0000    0    12.011  -13.952937    1.413346    0.242935
   3 H     1.0000    0     1.008  -12.533012   -2.298014   -0.763354
   4 H     1.0000    0     1.008  -12.766201   -0.125082   -3.310774
   5 C     6.0000    0    12.011   -8.964094    3.105017   -1.489987
   6 C     6.0000    0    12.011  -10.728060    4.934606   -0.180949
   7 C     6.0000    0    12.011  -13.509849    4.173269   -0.493492
   8 H     1.0000    0     1.008  -10.415730    6.856152   -0.883550
   9 H     1.0000    0     1.008  -10.265562    4.948083    1.846934
  10 H     1.0000    0     1.008  -14.079995    4.419069   -2.474435
  11 H     1.0000    0     1.008  -14.716636    5.399655    0.659932
  12 O     8.0000    0    15.999  -13.573875    1.011215    2.902283
  13 H     1.0000    0     1.008  -15.934642    0.914086   -0.104849
  14 C     6.0000    0    12.011   -7.765016   -1.279103   -0.123640
  15 C     6.0000    0    12.011   -7.129328    3.873825   -3.049328
  16 H     1.0000    0     1.008   -5.901528    2.529497   -3.999547
  17 H     1.0000    0     1.008   -6.828617    5.872074   -3.423323
  18 C     6.0000    0    12.011   -5.152731   -0.750871    0.470909
  19 H     1.0000    0     1.008   -8.442492   -3.198031    0.187132
  20 C     6.0000    0    12.011   -3.366675   -2.460631    1.099157
  21 H     1.0000    0     1.008   -4.606872    1.230142    0.418910
  22 C     6.0000    0    12.011   -3.732223   -5.283675    1.205566
  23 C     6.0000    0    12.011   -1.809934   -6.669035   -0.488192
  24 H     1.0000    0     1.008   -5.650542   -5.848839    0.687050
  25 H     1.0000    0     1.008   -3.422190   -5.895932    3.170798
  26 C     6.0000    0    12.011    0.923866   -5.845678    0.018886
  27 H     1.0000    0     1.008   -2.290970   -6.323920   -2.475594
  28 H     1.0000    0     1.008   -1.986859   -8.712059   -0.185590
  29 C     6.0000    0    12.011    1.237440   -2.968354   -0.165554
  30 H     1.0000    0     1.008    2.175766   -6.825437   -1.305896
  31 H     1.0000    0     1.008    1.474652   -6.446808    1.932005
  32 C     6.0000    0    12.011   -0.695579   -1.744322    1.701701
  33 H     1.0000    0     1.008   -0.255408   -2.613659    3.549658
  34 C     6.0000    0    12.011    0.114980    1.019698    1.845415
  35 H     1.0000    0     1.008  -11.773617    0.865257    3.188881
  36 C     6.0000    0    12.011    3.032758    0.889396    1.670388
  37 H     1.0000    0     1.008   -0.548020    1.934459    3.579121
  38 H     1.0000    0     1.008   -0.656038    2.097382    0.254398
  39 C     6.0000    0    12.011    3.735700   -1.867810    0.913752
  40 H     1.0000    0     1.008    3.936682    1.404086    3.458353
  41 H     1.0000    0     1.008    3.750696    2.217013    0.251085
  42 H     1.0000    0     1.008    4.154131   -2.943139    2.648799
  43 C     6.0000    0    12.011    6.138835   -1.940649   -0.733076
  44 C     6.0000    0    12.011    0.789520   -2.042076   -2.878412
  45 H     1.0000    0     1.008    1.215618   -0.027435   -3.076174
  46 H     1.0000    0     1.008   -1.176644   -2.316440   -3.457691
  47 H     1.0000    0     1.008    1.995394   -3.071900   -4.209575
  48 H     1.0000    0     1.008    5.784560   -0.836493   -2.458142
  49 C     6.0000    0    12.011    6.937112   -4.626905   -1.491219
  50 C     6.0000    0    12.011    8.277859   -0.701653    0.679393
  51 C     6.0000    0    12.011    9.589494    1.286256   -0.139785
  52 H     1.0000    0     1.008    8.747517   -1.574546    2.490145
  53 H     1.0000    0     1.008    9.060921    2.111868   -1.960121
  54 C     6.0000    0    12.011   11.756825    2.587179    1.169100
  55 C     6.0000    0    12.011   12.431853    1.415075    3.719820
  56 C     6.0000    0    12.011   11.249650    5.477256    1.302581
  57 H     1.0000    0     1.008   13.414900    2.376311   -0.078892
  58 H     1.0000    0     1.008   10.723853    6.051932   -0.626773
  59 C     6.0000    0    12.011   13.618530    6.967619    2.031552
  60 C     6.0000    0    12.011    9.042721    6.139487    3.049363
  61 H     1.0000    0     1.008   10.835964    1.488014    5.036370
  62 H     1.0000    0     1.008   14.027574    2.397795    4.591820
  63 H     1.0000    0     1.008   12.967420   -0.570729    3.492961
  64 H     1.0000    0     1.008   15.220892    6.478866    0.813111
  65 H     1.0000    0     1.008   14.169966    6.602069    3.994032
  66 H     1.0000    0     1.008   13.276545    9.002159    1.855326
  67 H     1.0000    0     1.008    7.349778    5.047375    2.573332
  68 H     1.0000    0     1.008    8.577202    8.151302    2.899460
  69 H     1.0000    0     1.008    9.517621    5.755813    5.028828
  70 H     1.0000    0     1.008    5.578741   -5.499570   -2.779332
  71 H     1.0000    0     1.008    7.110626   -5.839486    0.181239
  72 H     1.0000    0     1.008    8.775116   -4.583072   -2.441644

--------------------------------
INTERNAL COORDINATES (ANGSTROEM)
--------------------------------
 C      0   0   0     0.000000000000     0.00000000     0.00000000
 C      1   0   0     1.510615333738     0.00000000     0.00000000
 C      2   1   0     1.533981180450   110.50544173     0.00000000
 H      2   1   3     1.095874397311   110.67473405   237.86676682
 H      2   1   3     1.100151524763   109.82810899   118.76664158
 C      1   2   3     1.479617523890   114.00029957   306.32731335
 C      6   1   2     1.512794954126   114.45370039    49.53829506
 C      3   2   1     1.529663082211   110.15400048    56.73450367
 H      7   6   1     1.095222428733   110.22002662   188.84276625
 H      7   6   1     1.100688025946   108.26275818    72.19181438
 H      8   3   2     1.098552036041   108.30359927    64.34618115
 H      8   3   2     1.096143785215   109.51893957   181.34025213
 O      3   2   1     1.437330382360   110.70048949   292.72465016
 H      3   2   1     1.096989337906   109.49247983   177.20095971
 C      1   2   3     1.354379082061   121.17792876   123.24157762
 C      6   1   2     1.337570701821   123.12498083   231.43793990
 H     16   6   1     1.086763906153   121.35289721   359.07035122
 H     16   6   1     1.087494065874   120.94649441   178.45809630
 C     15   1   2     1.445007370446   126.16272900   185.24065332
 H     15   1   2     1.089364624550   116.27009971     3.08878747
 C     19  15   1     1.349969220747   126.42278479   186.15829908
 H     19  15   1     1.087723869298   115.78360567     6.87736093
 C     21  19  15     1.507414698376   125.70098793     2.50503981
 C     23  21  19     1.541281148921   111.40513009   124.17255099
 H     23  21  19     1.093262341439   112.38845151     0.62221043
 H     23  21  19     1.101542533935   107.91712823   242.70148027
 C     24  23  21     1.534495799819   112.67296140    51.35206561
 H     24  23  21     1.097359066911   108.96976851   289.20322370
 H     24  23  21     1.096919093458   109.12133154   173.27981698
 C     27  24  23     1.534736555920   111.87026645   306.31568025
 H     27  24  23     1.095055307767   108.90268349   182.84025000
 H     27  24  23     1.100478057136   109.17690156    66.37166566
 C     21  19  15     1.497759851931   122.92457987   180.31364127
 H     33  21  19     1.105517271269   106.36995286   127.57027876
 C     33  21  19     1.526147817228   121.22496751     5.00546276
 H     13   3   2     0.967739104759   107.61613957    42.65671653
 C     35  33  21     1.548333254809   103.56858180   196.87500352
 H     35  33  21     1.095038040730   112.04712728    74.88166794
 H     35  33  21     1.095691904789   110.84736100   315.27222686
 C     30  27  24     1.553421416844   116.14057173   166.16959824
 H     37  35  33     1.094617336736   111.89985172   249.43310456
 H     37  35  33     1.096357968291   110.97760312   130.82671019
 H     40  30  27     1.102646743475   106.47350861   320.91016804
 C     40  30  27     1.542114013940   118.98983355    81.70942338
 C     30  27  24     1.535363758008   111.06942514   294.00628642
 H     45  30  27     1.094699662182   111.62295926   186.40777344
 H     45  30  27     1.094340580298   111.48962294    66.35049912
 H     45  30  27     1.095622353699   110.63716063   306.24531396
 H     44  40  30     1.099941006609   108.37098768    60.89487090
 C     44  40  30     1.536254904009   113.41947817   300.01730560
 C     44  40  30     1.506585849288   109.16707471   178.26343352
 C     51  44  40     1.332772271116   124.98785752   238.41893645
 H     51  44  40     1.092381711767   114.96712276    59.38377720
 H     52  51  44     1.094085697539   117.93133541     1.14653780
 C     52  51  44     1.506335006117   127.42221737   180.67777380
 C     55  52  51     1.527816011276   113.49762880   359.74044527
 C     55  52  51     1.554339536071   109.82205828   231.42641482
 H     55  52  51     1.103833959652   106.49376031   117.89237140
 H     57  55  52     1.101034489992   105.85817705   310.29241235
 C     57  55  52     1.530427134144   112.15211582   193.51264964
 C     57  55  52     1.530075656091   112.61879859    67.72956093
 H     56  55  52     1.095471599747   111.55029945   299.87578484
 H     56  55  52     1.093804196797   111.11209100   179.22035752
 H     56  55  52     1.094989613776   110.68681063    59.70575198
 H     60  57  55     1.096181392041   111.33047624    52.13067719
 H     60  57  55     1.095925610208   111.46824042   291.40639644
 H     60  57  55     1.095711588153   110.46380046   172.15708888
 H     61  57  55     1.095456757502   111.37384761   307.93846994
 H     61  57  55     1.095611290843   110.51345365   187.65500705
 H     61  57  55     1.096178442643   111.09321458    68.41633422
 H     50  44  40     1.092972070781   111.89938587    67.37088116
 H     50  44  40     1.097016250720   110.70544781   306.68507209
 H     50  44  40     1.095216227868   110.15276419   187.34023340

---------------------------
INTERNAL COORDINATES (A.U.)
---------------------------
 C      0   0   0     0.000000000000     0.00000000     0.00000000
 C      1   0   0     2.854649274467     0.00000000     0.00000000
 C      2   1   0     2.898804325639   110.50544173     0.00000000
 H      2   1   3     2.070902488094   110.67473405   237.86676682
 H      2   1   3     2.078985087617   109.82810899   118.76664158
 C      1   2   3     2.796071903103   114.00029957   306.32731335
 C      6   1   2     2.858768160076   114.45370039    49.53829506
 C      3   2   1     2.890644302549   110.15400048    56.73450367
 H      7   6   1     2.069670446034   110.22002662   188.84276625
 H      7   6   1     2.079998927925   108.26275818    72.19181438
 H      8   3   2     2.075962491980   108.30359927    64.34618115
 H      8   3   2     2.071411557457   109.51893957   181.34025213
 O      3   2   1     2.716160786625   110.70048949   292.72465016
 H      3   2   1     2.073009420473   109.49247983   177.20095971
 C      1   2   3     2.559405546606   121.17792876   123.24157762
 C      6   1   2     2.527642311199   123.12498083   231.43793990
 H     16   6   1     2.053686154860   121.35289721   359.07035122
 H     16   6   1     2.055065956766   120.94649441   178.45809630
 C     15   1   2     2.730668191641   126.16272900   185.24065332
 H     15   1   2     2.058600800382   116.27009971     3.08878747
 C     19  15   1     2.551072116434   126.42278479   186.15829908
 H     19  15   1     2.055500222302   115.78360567     6.87736093
 C     21  19  15     2.848600950177   125.70098793     2.50503981
 C     23  21  19     2.912599266836   111.40513009   124.17255099
 H     23  21  19     2.065966417848   112.38845151     0.62221043
 H     23  21  19     2.081613714002   107.91712823   242.70148027
 C     24  23  21     2.899776815311   112.67296140    51.35206561
 H     24  23  21     2.073708107038   108.96976851   289.20322370
 H     24  23  21     2.072876677705   109.12133154   173.27981698
 C     27  24  23     2.900231778407   111.87026645   306.31568025
 H     27  24  23     2.069354633177   108.90268349   182.84025000
 H     27  24  23     2.079602144377   109.17690156    66.37166566
 C     21  19  15     2.830355934532   122.92457987   180.31364127
 H     33  21  19     2.089124879018   106.36995286   127.57027876
 C     33  21  19     2.884001414443   121.22496751     5.00546276
 H     13   3   2     1.828761877081   107.61613957    42.65671653
 C     35  33  21     2.925925815631   103.56858180   196.87500352
 H     35  33  21     2.069322003206   112.04712728    74.88166794
 H     35  33  21     2.070557627206   110.84736100   315.27222686
 C     30  27  24     2.935541048404   116.14057173   166.16959824
 H     37  35  33     2.068526987873   111.89985172   249.43310456
 H     37  35  33     2.071816304813   110.97760312   130.82671019
 H     40  30  27     2.083700367627   106.47350861   320.91016804
 C     40  30  27     2.914173153629   118.98983355    81.70942338
 C     30  27  24     2.901417018584   111.06942514   294.00628642
 H     45  30  27     2.068682560421   111.62295926   186.40777344
 H     45  30  27     2.068003993999   111.48962294    66.35049912
 H     45  30  27     2.070426194693   110.63716063   306.24531396
 H     44  40  30     2.078587265960   108.37098768    60.89487090
 C     44  40  30     2.903101040470   113.41947817   300.01730560
 C     44  40  30     2.847034652395   109.16707471   178.26343352
 C     51  44  40     2.518574591294   124.98785752   238.41893645
 H     51  44  40     2.064302268944   114.96712276    59.38377720
 H     52  51  44     2.067522335389   117.93133541     1.14653780
 C     52  51  44     2.846560627500   127.42221737   180.67777380
 C     55  52  51     2.887153844331   113.49762880   359.74044527
 C     55  52  51     2.937276042300   109.82205828   231.42641482
 H     55  52  51     2.085943881064   106.49376031   117.89237140
 H     57  55  52     2.080653650087   105.85817705   310.29241235
 C     57  55  52     2.892088151454   112.15211582   193.51264964
 C     57  55  52     2.891423954192   112.61879859    67.72956093
 H     56  55  52     2.070141311011   111.55029945   299.87578484
 H     56  55  52     2.066990376080   111.11209100   179.22035752
 H     56  55  52     2.069230489524   110.68681063    59.70575198
 H     60  57  55     2.071482624058   111.33047624    52.13067719
 H     60  57  55     2.070999266444   111.46824042   291.40639644
 H     60  57  55     2.070594823374   110.46380046   172.15708888
 H     61  57  55     2.070113263232   111.37384761   307.93846994
 H     61  57  55     2.070405288925   110.51345365   187.65500705
 H     61  57  55     2.071477050503   111.09321458    68.41633422
 H     50  44  40     2.065417885801   111.89938587    67.37088116
 H     50  44  40     2.073060278323   110.70544781   306.68507209
 H     50  44  40     2.069658728096   110.15276419   187.34023340

---------------------
BASIS SET INFORMATION
---------------------
There are 3 groups of distinct atoms

 Group   1 Type C   : 7s4p contracted to 4s3p pattern {4111/211}
 Group   2 Type H   : 5s contracted to 3s pattern {311}
 Group   3 Type O   : 7s4p contracted to 4s3p pattern {4111/211}

Atom   0C    basis set group =>   1
Atom   1C    basis set group =>   1
Atom   2C    basis set group =>   1
Atom   3H    basis set group =>   2
Atom   4H    basis set group =>   2
Atom   5C    basis set group =>   1
Atom   6C    basis set group =>   1
Atom   7C    basis set group =>   1
Atom   8H    basis set group =>   2
Atom   9H    basis set group =>   2
Atom  10H    basis set group =>   2
Atom  11H    basis set group =>   2
Atom  12O    basis set group =>   3
Atom  13H    basis set group =>   2
Atom  14C    basis set group =>   1
Atom  15C    basis set group =>   1
Atom  16H    basis set group =>   2
Atom  17H    basis set group =>   2
Atom  18C    basis set group =>   1
Atom  19H    basis set group =>   2
Atom  20C    basis set group =>   1
Atom  21H    basis set group =>   2
Atom  22C    basis set group =>   1
Atom  23C    basis set group =>   1
Atom  24H    basis set group =>   2
Atom  25H    basis set group =>   2
Atom  26C    basis set group =>   1
Atom  27H    basis set group =>   2
Atom  28H    basis set group =>   2
Atom  29C    basis set group =>   1
Atom  30H    basis set group =>   2
Atom  31H    basis set group =>   2
Atom  32C    basis set group =>   1
Atom  33H    basis set group =>   2
Atom  34C    basis set group =>   1
Atom  35H    basis set group =>   2
Atom  36C    basis set group =>   1
Atom  37H    basis set group =>   2
Atom  38H    basis set group =>   2
Atom  39C    basis set group =>   1
Atom  40H    basis set group =>   2
Atom  41H    basis set group =>   2
Atom  42H    basis set group =>   2
Atom  43C    basis set group =>   1
Atom  44C    basis set group =>   1
Atom  45H    basis set group =>   2
Atom  46H    basis set group =>   2
Atom  47H    basis set group =>   2
Atom  48H    basis set group =>   2
Atom  49C    basis set group =>   1
Atom  50C    basis set group =>   1
Atom  51C    basis set group =>   1
Atom  52H    basis set group =>   2
Atom  53H    basis set group =>   2
Atom  54C    basis set group =>   1
Atom  55C    basis set group =>   1
Atom  56C    basis set group =>   1
Atom  57H    basis set group =>   2
Atom  58H    basis set group =>   2
Atom  59C    basis set group =>   1
Atom  60C    basis set group =>   1
Atom  61H    basis set group =>   2
Atom  62H    basis set group =>   2
Atom  63H    basis set group =>   2
Atom  64H    basis set group =>   2
Atom  65H    basis set group =>   2
Atom  66H    basis set group =>   2
Atom  67H    basis set group =>   2
Atom  68H    basis set group =>   2
Atom  69H    basis set group =>   2
Atom  70H    basis set group =>   2
Atom  71H    basis set group =>   2
Atom  72H    basis set group =>   2

-------------------------
BASIS SET IN INPUT FORMAT
-------------------------

 # Basis set for element : H 
 NewGTO H 
 S 3 
   1    1357.7500000000      0.0012928364
   2      54.3100000000      0.0588280685
   3       4.3448000000      0.9761499708
 S 1 
   1       0.6604910000      1.0000000000
 S 1 
   1       0.1366870000      1.0000000000
  end;

 # Basis set for element : C 
 NewGTO C 
 S 4 
   1  139534.0000000000      0.0001655246
   2    5581.3600000000      0.0074486101
   3     446.5090000000      0.1285821065
   4      67.4620000000      0.9218029311
 S 1 
   1      15.0674000000      1.0000000000
 S 1 
   1       3.9387600000      1.0000000000
 S 1 
   1       0.2999150000      1.0000000000
 P 2 
   1      28.3900000000      0.0816325586
   2       4.3676900000      0.9660360576
 P 1 
   1       0.8698170000      1.0000000000
 P 1 
   1       0.1889340000      1.0000000000
  end;

 # Basis set for element : O 
 NewGTO O 
 S 4 
   1  253789.0000000000      0.0001641076
   2   10151.6000000000      0.0074010921
   3     812.1250000000      0.1277711901
   4     122.6930000000      0.9223372164
 S 1 
   1      27.5608000000      1.0000000000
 S 1 
   1       7.3172600000      1.0000000000
 S 1 
   1       0.5792400000      1.0000000000
 P 2 
   1      53.4157000000      0.0793786106
   2       8.2177900000      0.9670506337
 P 1 
   1       1.6754400000      1.0000000000
 P 1 
   1       0.3506720000      1.0000000000
  end;

---------------------------------
AUXILIARY/J BASIS SET INFORMATION
---------------------------------
There are 3 groups of distinct atoms

 Group   1 Type C   : 12s5p4d2f1g contracted to 6s4p3d1f1g pattern {711111/2111/211/2/1}
 Group   2 Type H   : 5s2p1d contracted to 3s1p1d pattern {311/2/1}
 Group   3 Type O   : 12s5p4d2f1g contracted to 6s4p3d1f1g pattern {711111/2111/211/2/1}

Atom   0C    basis set group =>   1
Atom   1C    basis set group =>   1
Atom   2C    basis set group =>   1
Atom   3H    basis set group =>   2
Atom   4H    basis set group =>   2
Atom   5C    basis set group =>   1
Atom   6C    basis set group =>   1
Atom   7C    basis set group =>   1
Atom   8H    basis set group =>   2
Atom   9H    basis set group =>   2
Atom  10H    basis set group =>   2
Atom  11H    basis set group =>   2
Atom  12O    basis set group =>   3
Atom  13H    basis set group =>   2
Atom  14C    basis set group =>   1
Atom  15C    basis set group =>   1
Atom  16H    basis set group =>   2
Atom  17H    basis set group =>   2
Atom  18C    basis set group =>   1
Atom  19H    basis set group =>   2
Atom  20C    basis set group =>   1
Atom  21H    basis set group =>   2
Atom  22C    basis set group =>   1
Atom  23C    basis set group =>   1
Atom  24H    basis set group =>   2
Atom  25H    basis set group =>   2
Atom  26C    basis set group =>   1
Atom  27H    basis set group =>   2
Atom  28H    basis set group =>   2
Atom  29C    basis set group =>   1
Atom  30H    basis set group =>   2
Atom  31H    basis set group =>   2
Atom  32C    basis set group =>   1
Atom  33H    basis set group =>   2
Atom  34C    basis set group =>   1
Atom  35H    basis set group =>   2
Atom  36C    basis set group =>   1
Atom  37H    basis set group =>   2
Atom  38H    basis set group =>   2
Atom  39C    basis set group =>   1
Atom  40H    basis set group =>   2
Atom  41H    basis set group =>   2
Atom  42H    basis set group =>   2
Atom  43C    basis set group =>   1
Atom  44C    basis set group =>   1
Atom  45H    basis set group =>   2
Atom  46H    basis set group =>   2
Atom  47H    basis set group =>   2
Atom  48H    basis set group =>   2
Atom  49C    basis set group =>   1
Atom  50C    basis set group =>   1
Atom  51C    basis set group =>   1
Atom  52H    basis set group =>   2
Atom  53H    basis set group =>   2
Atom  54C    basis set group =>   1
Atom  55C    basis set group =>   1
Atom  56C    basis set group =>   1
Atom  57H    basis set group =>   2
Atom  58H    basis set group =>   2
Atom  59C    basis set group =>   1
Atom  60C    basis set group =>   1
Atom  61H    basis set group =>   2
Atom  62H    basis set group =>   2
Atom  63H    basis set group =>   2
Atom  64H    basis set group =>   2
Atom  65H    basis set group =>   2
Atom  66H    basis set group =>   2
Atom  67H    basis set group =>   2
Atom  68H    basis set group =>   2
Atom  69H    basis set group =>   2
Atom  70H    basis set group =>   2
Atom  71H    basis set group =>   2
Atom  72H    basis set group =>   2

-------------------------------------
AUXILIARY/J BASIS SET IN INPUT FORMAT
-------------------------------------

 # Auxiliary/J basis set for element : H 
 NewAuxJGTO H 
 S 3 
   1      15.6752927000      0.1007184237
   2       3.6063578000      0.3404257499
   3       1.2080016000      0.6491996172
 S 1 
   1       0.4726794000      1.0000000000
 S 1 
   1       0.2018100000      1.0000000000
 P 2 
   1       2.0281365000      0.5596620919
   2       0.5358730000      0.5596620919
 D 1 
   1       2.2165124000      1.0000000000
  end;

 # Auxiliary/J basis set for element : C 
 NewAuxJGTO C 
 S 7 
   1    1861.0916331000      0.0134602335
   2     642.9939764000      0.0299160374
   3     235.1105725000      0.1008649584
   4      90.7028894000      0.2370970548
   5      36.7794552000      0.3924037254
   6      15.6046273000      0.3195862154
   7       6.8907294000      0.0530104441
 S 1 
   1       3.1478850000     -1.0000000000
 S 1 
   1       1.4777287000      1.0000000000
 S 1 
   1       0.7076466000      1.0000000000
 S 1 
   1       0.3430122000      1.0000000000
 S 1 
   1       0.1669453000      1.0000000000
 P 2 
   1      13.5472892000     -0.6769313712
   2       5.4669419000     -0.3779500978
 P 1 
   1       2.1751721000      1.0000000000
 P 1 
   1       0.8582194000      1.0000000000
 P 1 
   1       0.3376720000      1.0000000000
 D 2 
   1       5.9287253000     -0.3533329857
   2       1.9809209000     -0.7456525731
 D 1 
   1       0.8055417000     -1.0000000000
 D 1 
   1       0.3531244000     -1.0000000000
 F 2 
   1       1.6755626000      0.6311076882
   2       0.5997536000      0.4968166032
 G 1 
   1       1.0024600000     -1.0000000000
  end;

 # Auxiliary/J basis set for element : O 
 NewAuxJGTO O 
 S 7 
   1    2876.8216605000      0.0168151159
   2    1004.7443032000      0.0340137548
   3     369.7579954000      0.1194951309
   4     142.9442404000      0.2664627624
   5      57.8366425000      0.4202764046
   6      24.3864983000      0.2765077335
   7      10.6622662000      0.0057008815
 S 1 
   1       4.8070437000     -1.0000000000
 S 1 
   1       2.2210770000      1.0000000000
 S 1 
   1       1.0447795000      1.0000000000
 S 1 
   1       0.4968425000      1.0000000000
 S 1 
   1       0.2371384000      1.0000000000
 P 2 
   1      64.2613382000     -0.2731534179
   2      16.3006076000     -0.8168011598
 P 1 
   1       4.3550542000      1.0000000000
 P 1 
   1       1.2019554000      1.0000000000
 P 1 
   1       0.3354196000      1.0000000000
 D 2 
   1       9.2146611000     -0.4661230638
   2       2.8435251000     -0.6600908911
 D 1 
   1       0.9955759000     -1.0000000000
 D 1 
   1       0.3649441000     -1.0000000000
 F 2 
   1       2.6420115000      0.5931563945
   2       0.7345613000      0.5931563945
 G 1 
   1       1.3931000000     -1.0000000000
  end;



           ************************************************************
           *        Program running with 4 parallel MPI-processes     *
           *              working on a common directory               *
           ************************************************************
------------------------------------------------------------------------------
                           ORCA GTO INTEGRAL CALCULATION
                           -- RI-GTO INTEGRALS CHOSEN --
------------------------------------------------------------------------------
------------------------------------------------------------------------------
                   ___                                                        
                  /   \      - P O W E R E D   B Y -                         
                 /     \                                                     
                 |  |  |   _    _      __       _____    __    __             
                 |  |  |  | |  | |    /  \     |  _  \  |  |  /  |          
                  \  \/   | |  | |   /    \    | | | |  |  | /  /          
                 / \  \   | |__| |  /  /\  \   | |_| |  |  |/  /          
                |  |  |   |  __  | /  /__\  \  |    /   |      \           
                |  |  |   | |  | | |   __   |  |    \   |  |\   \          
                \     /   | |  | | |  |  |  |  | |\  \  |  | \   \       
                 \___/    |_|  |_| |__|  |__|  |_| \__\ |__|  \__/        
                                                                              
                      - O R C A' S   B I G   F R I E N D -                    
                                      &                                       
                       - I N T E G R A L  F E E D E R -                       
                                                                              
 v1 FN, 2020, v2 2021                                                         
------------------------------------------------------------------------------


Reading SHARK input file inpJ.SHARKINP.tmp ... ok
----------------------
SHARK INTEGRAL PACKAGE
----------------------

Number of atoms                             ...     73
Number of basis functions                   ...    509
Number of shells                            ...    335
Maximum angular momentum                    ...      1
Integral batch strategy                     ... SHARK/LIBINT Hybrid
RI-J (if used) integral strategy            ... SPLIT-RIJ (Revised 2003 algorithm where possible)
Printlevel                                  ...      1
Contraction scheme used                     ... SEGMENTED contraction
Coulomb Range Separation                    ... NOT USED
Exchange Range Separation                   ... NOT USED
Finite Nucleus Model                        ... NOT USED
Auxiliary Coulomb fitting basis             ... AVAILABLE
   # of basis functions in Aux-J            ...   1905
   # of shells in Aux-J                     ...    655
   Maximum angular momentum in Aux-J        ...      4
Auxiliary J/K fitting basis                 ... NOT available
Auxiliary Correlation fitting basis         ... NOT available
Auxiliary 'external' fitting basis          ... NOT available
Integral threshold                          ...     3.000000e-11
Primitive cut-off                           ...     1.000000e-12
Primitive pair pre-selection threshold      ...     1.000000e-12

Calculating pre-screening integrals         ... done (  0.0 sec) Dimension = 335
Organizing shell pair data                  ... done (  0.1 sec)
Shell pair information
Total number of shell pairs                 ...     56280
Shell pairs after pre-screening             ...     21994
Total number of primitive shell pairs       ...    145865
Primitive shell pairs kept                  ...     37738
          la=0 lb=0:  11047 shell pairs
          la=1 lb=0:   9061 shell pairs
          la=1 lb=1:   1886 shell pairs

Calculating one electron integrals          ... done (  0.0 sec)
Calculating RI/J V-Matrix + Cholesky decomp.... done (  0.2 sec)
Calculating Nuclear repulsion               ... done (  0.0 sec) ENN=   2796.458319548219 Eh

SHARK setup successfully completed in   0.4 seconds

Maximum memory used throughout the entire GTOINT-calculation: 46.4 MB


           ************************************************************
           *        Program running with 4 parallel MPI-processes     *
           *              working on a common directory               *
           ************************************************************
-------------------------------------------------------------------------------
                                 ORCA SCF
-------------------------------------------------------------------------------

------------
SCF SETTINGS
------------
Hamiltonian:
 Density Functional     Method          .... DFT(GTOs)
 Exchange Functional    Exchange        .... PBE
   PBE kappa parameter   XKappa         ....  0.804000
   PBE mue parameter    XMuePBE         ....  0.219520
 Correlation Functional Correlation     .... PBE
   PBE beta parameter  CBetaPBE         ....  0.066725
 LDA part of GGA corr.  LDAOpt          .... PW91-LDA
 Gradients option       PostSCFGGA      .... off
 Hybrid DFT is turned on
   Fraction HF Exchange ScalHFX         ....  0.250000
   Scaling of DF-GGA-X  ScalDFX         ....  0.750000
   Scaling of DF-GGA-C  ScalDFC         ....  1.000000
   Scaling of DF-LDA-C  ScalLDAC        ....  1.000000
   Perturbative correction              ....  0.000000
   Density functional embedding theory  .... OFF
   NL short-range parameter             ....  6.900000
 RI-approximation to the Coulomb term is turned on
   Number of AuxJ basis functions       .... 1905
   RIJ-COSX (HFX calculated with COS-X)).... on


General Settings:
 Integral files         IntName         .... inpJ
 Hartree-Fock type      HFTyp           .... RHF
 Total Charge           Charge          ....    0
 Multiplicity           Mult            ....    1
 Number of Electrons    NEL             ....  220
 Basis Dimension        Dim             ....  509
 Nuclear Repulsion      ENuc            ....   2796.4583195482 Eh

Convergence Acceleration:
 DIIS                   CNVDIIS         .... on
   Start iteration      DIISMaxIt       ....    12
   Startup error        DIISStart       ....  0.200000
   # of expansion vecs  DIISMaxEq       ....     5
   Bias factor          DIISBfac        ....   1.050
   Max. coefficient     DIISMaxC        ....  10.000
 Trust-Rad. Augm. Hess. CNVTRAH         .... auto
   Auto Start mean grad. ratio tolernc. ....  1.125000
   Auto Start start iteration           ....    20
   Auto Start num. interpolation iter.  ....    10
   Max. Number of Micro iterations      ....    16
   Max. Number of Macro iterations      .... Maxiter - #DIIS iter
   Number of Davidson start vectors     ....     2
   Converg. threshold I  (grad. norm)   ....   1.000e-04
   Converg. threshold II (energy diff.) ....   1.000e-07
   Grad. Scal. Fac. for Micro threshold ....   0.100
   Minimum threshold for Micro iter.    ....   0.010
   NR start threshold (gradient norm)   ....   0.001
   Initial trust radius                 ....   0.400
   Minimum AH scaling param. (alpha)    ....   1.000
   Maximum AH scaling param. (alpha)    .... 1000.000
   Orbital update algorithm             .... Taylor
   White noise on init. David. guess    .... on
   Maximum white noise                  ....   0.010
   Quad. conv. algorithm                .... NR
 SOSCF                  CNVSOSCF        .... off
 Level Shifting         CNVShift        .... on
   Level shift para.    LevelShift      ....    0.2500
   Turn off err/grad.   ShiftErr        ....    0.0010
 Zerner damping         CNVZerner       .... off
 Static damping         CNVDamp         .... on
   Fraction old density DampFac         ....    0.7000
   Max. Damping (<1)    DampMax         ....    0.9800
   Min. Damping (>=0)   DampMin         ....    0.0000
   Turn off err/grad.   DampErr         ....    0.1000
 Fernandez-Rico         CNVRico         .... off

SCF Procedure:
 Maximum # iterations   MaxIter         ....   125
 SCF integral mode      SCFMode         .... Direct
   Integral package                     .... SHARK and LIBINT hybrid scheme
 Reset frequency        DirectResetFreq ....    20
 Integral Threshold     Thresh          ....  3.000e-11 Eh
 Primitive CutOff       TCut            ....  1.000e-12 Eh

Convergence Tolerance:
 Convergence Check Mode ConvCheckMode   .... Total+1el-Energy
 Convergence forced     ConvForced      .... 0
 Energy Change          TolE            ....  1.000e-07 Eh
 1-El. energy change                    ....  1.000e-04 Eh
 DIIS Error             TolErr          ....  1.000e-07


Diagonalization of the overlap matrix:
Smallest eigenvalue                        ... 7.577e-03
Time for diagonalization                   ...    0.028 sec
Threshold for overlap eigenvalues          ... 1.000e-08
Number of eigenvalues below threshold      ... 0
Time for construction of square roots      ...    0.023 sec
Total time needed                          ...    0.052 sec

Time for model grid setup =    0.730 sec

------------------------------
INITIAL GUESS: MODEL POTENTIAL
------------------------------
Loading Hartree-Fock densities                     ... done
Calculating cut-offs                               ... done
Initializing the effective Hamiltonian             ... done
Setting up the integral package (SHARK)            ... done
Starting the Coulomb interaction                   ... done (   0.3 sec)
Reading the grid                                   ... done
Mapping shells                                     ... done
Starting the XC term evaluation                    ... done (   0.1 sec)
  promolecular density results
     # of electrons  =    219.973996003
     EX              =   -164.430318777
     EC              =     -7.326759261
     EX+EC           =   -171.757078038
Transforming the Hamiltonian                       ... done (   0.0 sec)
Diagonalizing the Hamiltonian                      ... done (   0.0 sec)
Back transforming the eigenvectors                 ... done (   0.0 sec)
Now organizing SCF variables                       ... done
                      ------------------
                      INITIAL GUESS DONE (   1.3 sec)
                      ------------------
-------------------
DFT GRID GENERATION
-------------------

General Integration Accuracy     IntAcc      ... 4.388
Radial Grid Type                 RadialGrid  ... OptM3 with GC (2021)
Angular Grid (max. ang.)         AngularGrid ... 4 (Lebedev-302)
Angular grid pruning method      GridPruning ... 4 (adaptive)
Weight generation scheme         WeightScheme... Becke
Basis function cutoff            BFCut       ... 1.0000e-11
Integration weight cutoff        WCut        ... 1.0000e-14
Angular grids for H and He will be reduced by one unit
Partially contracted basis set               ... off
Rotationally invariant grid construction     ... off

Total number of grid points                  ...   309814
Total number of batches                      ...     4875
Average number of points per batch           ...       63
Average number of grid points per atom       ...     4244
Time for grid setup =    2.799 sec

--------------------
COSX GRID GENERATION
--------------------

GRIDX 1
-------
General Integration Accuracy     IntAcc      ... 3.816
Radial Grid Type                 RadialGrid  ... OptM3 with GC (2021)
Angular Grid (max. ang.)         AngularGrid ... 1 (Lebedev-50)
Angular grid pruning method      GridPruning ... 4 (adaptive)
Weight generation scheme         WeightScheme... Becke
Basis function cutoff            BFCut       ... 1.0000e-11
Integration weight cutoff        WCut        ... 1.0000e-14
Angular grids for H and He will be reduced by one unit
Partially contracted basis set               ... on
Rotationally invariant grid construction     ... off

Total number of grid points                  ...    39402
Total number of batches                      ...      655
Average number of points per batch           ...       60
Average number of grid points per atom       ...      540
UseSFitting                                  ... on

GRIDX 2
-------
General Integration Accuracy     IntAcc      ... 4.020
Radial Grid Type                 RadialGrid  ... OptM3 with GC (2021)
Angular Grid (max. ang.)         AngularGrid ... 2 (Lebedev-110)
Angular grid pruning method      GridPruning ... 4 (adaptive)
Weight generation scheme         WeightScheme... Becke
Basis function cutoff            BFCut       ... 1.0000e-11
Integration weight cutoff        WCut        ... 1.0000e-14
Angular grids for H and He will be reduced by one unit
Partially contracted basis set               ... on
Rotationally invariant grid construction     ... off

Total number of grid points                  ...    81365
Total number of batches                      ...     1313
Average number of points per batch           ...       61
Average number of grid points per atom       ...     1115
UseSFitting                                  ... on

GRIDX 3
-------
General Integration Accuracy     IntAcc      ... 4.338
Radial Grid Type                 RadialGrid  ... OptM3 with GC (2021)
Angular Grid (max. ang.)         AngularGrid ... 3 (Lebedev-194)
Angular grid pruning method      GridPruning ... 4 (adaptive)
Weight generation scheme         WeightScheme... Becke
Basis function cutoff            BFCut       ... 1.0000e-11
Integration weight cutoff        WCut        ... 1.0000e-14
Angular grids for H and He will be reduced by one unit
Partially contracted basis set               ... on
Rotationally invariant grid construction     ... off

Total number of grid points                  ...   176142
Total number of batches                      ...     2784
Average number of points per batch           ...       63
Average number of grid points per atom       ...     2413
UseSFitting                                  ... on

Time for X-Grid setup             =    2.793 sec


--------------------
CPCM SOLVATION MODEL
--------------------
CPCM parameters:
  Epsilon                                         ...       4.9000
  Refrac                                          ...       1.4500
  Rsolv                                           ...       1.3000
  Surface type                                    ... GAUSSIAN VDW
  Epsilon function type                           ...         CPCM
Radii:
 Radius for C  used is    3.8550 Bohr (=   2.0400 Ang.)
 Radius for H  used is    2.4944 Bohr (=   1.3200 Ang.)
 Radius for O  used is    3.4469 Bohr (=   1.8240 Ang.)
Calculating surface                               ...        done! (  0.0s)
GEPOL surface points                              ...         3634
GEPOL Volume                                      ...    3612.0153
GEPOL Surface-area                                ...    1780.0010
Calculating surface distance matrix               ...        done! (  0.1s)
Performing Cholesky decomposition & store         ...        done! (  0.4s)
Overall time for CPCM initialization              ...                 0.6s
--------------
SCF ITERATIONS
--------------
ITER       Energy         Delta-E        Max-DP      RMS-DP      [F,P]     Damp
               ***  Starting incremental Fock matrix formation  ***

  HOMO= 109 E= -3.973 eV LUMO=  7.704 eV gap=  11.677 eV
  0  -1165.0100863840   0.000000000000 0.09750250  0.00106867  0.1968198 0.7000

  HOMO= 109 E= -4.839 eV LUMO=  7.019 eV gap=  11.859 eV
  1  -1165.2301112403  -0.220024856305 0.06537168  0.00078561  0.0953112 0.7000
                               ***Turning on DIIS***

  HOMO= 109 E= -5.439 eV LUMO=  6.470 eV gap=  11.909 eV
  2  -1165.3313063631  -0.101195122764 0.10332142  0.00138783  0.0375596 0.0000

  HOMO= 109 E= -5.997 eV LUMO=  5.941 eV gap=  11.937 eV
  3  -1165.4761525243  -0.144846161232 0.05157631  0.00057511  0.0461005 0.0000

  HOMO= 109 E= -6.066 eV LUMO=  5.869 eV gap=  11.936 eV
  4  -1165.5119026384  -0.035750114113 0.01166410  0.00013412  0.0058998 0.0000

  HOMO= 109 E= -6.015 eV LUMO=  5.928 eV gap=  11.943 eV
  5  -1165.5127558959  -0.000853257537 0.00249211  0.00003787  0.0050624 0.0000

  HOMO= 109 E= -6.002 eV LUMO=  5.942 eV gap=  11.944 eV
  6  -1165.5128350999  -0.000079203925 0.00116572  0.00001170  0.0010708 0.0000

  HOMO= 109 E= -6.004 eV LUMO= -0.863 eV gap=   5.141 eV
  7  -1165.5128403267  -0.000005226784 0.00049781  0.00000603  0.0002294 0.0000
               *** Restarting incremental Fock matrix formation ***
                                   *** Resetting DIIS ***

  HOMO= 109 E= -6.003 eV LUMO= -0.861 eV gap=   5.142 eV
  8  -1165.5128936334  -0.000053306718 0.00035814  0.00000284  0.0001180 0.0000

  HOMO= 109 E= -6.003 eV LUMO= -0.861 eV gap=   5.142 eV
  9  -1165.5128936688  -0.000000035396 0.00013691  0.00000127  0.0001606 0.0000

  HOMO= 109 E= -6.004 eV LUMO= -0.862 eV gap=   5.142 eV
 10  -1165.5128937975  -0.000000128734 0.00006454  0.00000040  0.0000331 0.0000

  HOMO= 109 E= -6.003 eV LUMO= -0.861 eV gap=   5.142 eV
 11  -1165.5128938350  -0.000000037523 0.00002590  0.00000018  0.0000192 0.0000

  HOMO= 109 E= -6.003 eV LUMO= -0.861 eV gap=   5.142 eV
 12  -1165.5128938334   0.000000001660 0.00000732  0.00000005  0.0000035 0.0000
                 **** Energy Check signals convergence ****

               *****************************************************
               *                     SUCCESS                       *
               *           SCF CONVERGED AFTER  13 CYCLES          *
               *****************************************************

Old exchange energy                            =    -42.067779901 Eh
New exchange energy                            =    -42.067747082 Eh
Exchange energy change after final integration =      0.000032819 Eh
Total energy after final integration           =  -1165.512861017 Eh
Final COS-X integration done in                =    14.378 sec

----------------
TOTAL SCF ENERGY
----------------

Total Energy       :        -1165.51286102 Eh          -31715.21732 eV

Components:
Nuclear Repulsion  :         2796.45831955 Eh           76095.49950 eV
Electronic Energy  :        -3961.97118057 Eh         -107810.71681 eV
One Electron Energy:        -7134.68018862 Eh         -194144.51805 eV
Two Electron Energy:         3172.70900805 Eh           86333.80123 eV
Max COSX asymmetry :            0.00000298 Eh               0.00008 eV
CPCM Dielectric    :           -0.01336688 Eh              -0.36373 eV

Virial components:
Potential Energy   :        -2322.40965164 Eh          -63195.97944 eV
Kinetic Energy     :         1156.89679063 Eh           31480.76212 eV
Virial Ratio       :            2.00744757


DFT components:
N(Alpha)           :      110.000033938972 electrons
N(Beta)            :      110.000033938972 electrons
N(Total)           :      220.000067877945 electrons
E(X)               :     -125.745705840779 Eh       
E(C)               :       -7.327956217587 Eh       
E(XC)              :     -133.073662058366 Eh       
DFET-embed. en.    :        0.000000000000 Eh       
CPCM Solvation Model Properties:
Surface-charge          :           -0.03442094
Charge-correction       :           -0.00008325 Eh              -0.00227 eV
Free-energy (cav+disp)  :  This term is not implemented in the current solvation scheme

---------------
SCF CONVERGENCE
---------------

  Last Energy change         ...   -3.2014e-09  Tolerance :   1.0000e-07
  Last MAX-Density change    ...    0.0000e+00  Tolerance :   1.0000e-05
  Last RMS-Density change    ...    0.0000e+00  Tolerance :   1.0000e-06
  Last DIIS Error            ...    2.3428e-06  Tolerance :   1.0000e-07

             **** THE GBW FILE WAS UPDATED (inpJ.gbw) ****
             **** DENSITY inpJ.scfp WAS UPDATED ****
             **** ENERGY FILE WAS UPDATED (inpJ.en.tmp) ****
             **** THE GBW FILE WAS UPDATED (inpJ.gbw) ****
             **** DENSITY inpJ.scfp WAS UPDATED ****
----------------
ORBITAL ENERGIES
----------------

  NO   OCC          E(Eh)            E(eV) 
   0   2.0000     -19.212449      -522.7973 
   1   2.0000     -10.300388      -280.2878 
   2   2.0000     -10.270338      -279.4701 
   3   2.0000     -10.268150      -279.4106 
   4   2.0000     -10.263523      -279.2847 
   5   2.0000     -10.257317      -279.1158 
   6   2.0000     -10.257012      -279.1075 
   7   2.0000     -10.251154      -278.9481 
   8   2.0000     -10.249954      -278.9154 
   9   2.0000     -10.249190      -278.8946 
  10   2.0000     -10.248047      -278.8635 
  11   2.0000     -10.247519      -278.8492 
  12   2.0000     -10.246168      -278.8124 
  13   2.0000     -10.245046      -278.7819 
  14   2.0000     -10.244501      -278.7671 
  15   2.0000     -10.244296      -278.7615 
  16   2.0000     -10.242770      -278.7199 
  17   2.0000     -10.242486      -278.7122 
  18   2.0000     -10.241713      -278.6912 
  19   2.0000     -10.241340      -278.6810 
  20   2.0000     -10.240090      -278.6470 
  21   2.0000     -10.234436      -278.4932 
  22   2.0000     -10.234219      -278.4873 
  23   2.0000     -10.232877      -278.4507 
  24   2.0000     -10.225882      -278.2604 
  25   2.0000     -10.224947      -278.2350 
  26   2.0000     -10.224472      -278.2220 
  27   2.0000     -10.221914      -278.1524 
  28   2.0000     -10.220840      -278.1232 
  29   2.0000      -1.043208       -28.3871 
  30   2.0000      -0.901423       -24.5290 
  31   2.0000      -0.882027       -24.0012 
  32   2.0000      -0.860162       -23.4062 
  33   2.0000      -0.846324       -23.0296 
  34   2.0000      -0.822694       -22.3866 
  35   2.0000      -0.814309       -22.1585 
  36   2.0000      -0.795896       -21.6574 
  37   2.0000      -0.795043       -21.6342 
  38   2.0000      -0.777249       -21.1500 
  39   2.0000      -0.758187       -20.6313 
  40   2.0000      -0.740150       -20.1405 
  41   2.0000      -0.731640       -19.9089 
  42   2.0000      -0.714946       -19.4547 
  43   2.0000      -0.702796       -19.1240 
  44   2.0000      -0.702247       -19.1091 
  45   2.0000      -0.695446       -18.9240 
  46   2.0000      -0.671936       -18.2843 
  47   2.0000      -0.670268       -18.2389 
  48   2.0000      -0.631822       -17.1928 
  49   2.0000      -0.622040       -16.9266 
  50   2.0000      -0.612064       -16.6551 
  51   2.0000      -0.604153       -16.4398 
  52   2.0000      -0.596334       -16.2271 
  53   2.0000      -0.574962       -15.6455 
  54   2.0000      -0.558853       -15.2072 
  55   2.0000      -0.548762       -14.9326 
  56   2.0000      -0.539601       -14.6833 
  57   2.0000      -0.529332       -14.4038 
  58   2.0000      -0.515260       -14.0209 
  59   2.0000      -0.508170       -13.8280 
  60   2.0000      -0.498251       -13.5581 
  61   2.0000      -0.489570       -13.3219 
  62   2.0000      -0.485725       -13.2173 
  63   2.0000      -0.480746       -13.0818 
  64   2.0000      -0.478314       -13.0156 
  65   2.0000      -0.469072       -12.7641 
  66   2.0000      -0.465681       -12.6718 
  67   2.0000      -0.462080       -12.5738 
  68   2.0000      -0.459113       -12.4931 
  69   2.0000      -0.452860       -12.3229 
  70   2.0000      -0.450045       -12.2464 
  71   2.0000      -0.444266       -12.0891 
  72   2.0000      -0.435473       -11.8498 
  73   2.0000      -0.432919       -11.7803 
  74   2.0000      -0.423684       -11.5290 
  75   2.0000      -0.421655       -11.4738 
  76   2.0000      -0.418233       -11.3807 
  77   2.0000      -0.413053       -11.2397 
  78   2.0000      -0.411015       -11.1843 
  79   2.0000      -0.409932       -11.1548 
  80   2.0000      -0.401475       -10.9247 
  81   2.0000      -0.398390       -10.8407 
  82   2.0000      -0.396141       -10.7796 
  83   2.0000      -0.390288       -10.6203 
  84   2.0000      -0.383089       -10.4244 
  85   2.0000      -0.379303       -10.3214 
  86   2.0000      -0.375733       -10.2242 
  87   2.0000      -0.373707       -10.1691 
  88   2.0000      -0.366117        -9.9626 
  89   2.0000      -0.364259        -9.9120 
  90   2.0000      -0.360505        -9.8098 
  91   2.0000      -0.357706        -9.7337 
  92   2.0000      -0.349878        -9.5207 
  93   2.0000      -0.344000        -9.3607 
  94   2.0000      -0.341271        -9.2864 
  95   2.0000      -0.340614        -9.2686 
  96   2.0000      -0.338019        -9.1980 
  97   2.0000      -0.333745        -9.0817 
  98   2.0000      -0.332641        -9.0516 
  99   2.0000      -0.329701        -8.9716 
 100   2.0000      -0.327020        -8.8987 
 101   2.0000      -0.325644        -8.8612 
 102   2.0000      -0.319137        -8.6842 
 103   2.0000      -0.316952        -8.6247 
 104   2.0000      -0.310639        -8.4529 
 105   2.0000      -0.301064        -8.1924 
 106   2.0000      -0.276652        -7.5281 
 107   2.0000      -0.275111        -7.4862 
 108   2.0000      -0.256567        -6.9815 
 109   2.0000      -0.220622        -6.0034 
 110   0.0000      -0.031658        -0.8615 
 111   0.0000       0.019580         0.5328 
 112   0.0000       0.028871         0.7856 
 113   0.0000       0.080367         2.1869 
 114   0.0000       0.088381         2.4050 
 115   0.0000       0.101525         2.7626 
 116   0.0000       0.104995         2.8571 
 117   0.0000       0.107342         2.9209 
 118   0.0000       0.109393         2.9767 
 119   0.0000       0.114926         3.1273 
 120   0.0000       0.117672         3.2020 
 121   0.0000       0.118796         3.2326 
 122   0.0000       0.126407         3.4397 
 123   0.0000       0.130139         3.5413 
 124   0.0000       0.133961         3.6453 
 125   0.0000       0.135893         3.6978 
 126   0.0000       0.139637         3.7997 
 127   0.0000       0.140478         3.8226 
 128   0.0000       0.147683         4.0187 
 129   0.0000       0.151924         4.1341 
 130   0.0000       0.153800         4.1851 
 131   0.0000       0.157884         4.2962 
 132   0.0000       0.162011         4.4085 
 133   0.0000       0.163529         4.4499 
 134   0.0000       0.166751         4.5375 
 135   0.0000       0.168205         4.5771 
 136   0.0000       0.172900         4.7048 
 137   0.0000       0.174423         4.7463 
 138   0.0000       0.176225         4.7953 
 139   0.0000       0.177822         4.8388 
 140   0.0000       0.181281         4.9329 
 141   0.0000       0.184471         5.0197 
 142   0.0000       0.187553         5.1036 
 143   0.0000       0.190449         5.1824 
 144   0.0000       0.195759         5.3269 
 145   0.0000       0.198099         5.3905 
 146   0.0000       0.200573         5.4579 
 147   0.0000       0.202106         5.4996 
 148   0.0000       0.204281         5.5588 
 149   0.0000       0.207157         5.6370 
 150   0.0000       0.216766         5.8985 
 151   0.0000       0.219208         5.9649 
 152   0.0000       0.225413         6.1338 
 153   0.0000       0.230902         6.2832 
 154   0.0000       0.232818         6.3353 
 155   0.0000       0.236592         6.4380 
 156   0.0000       0.243898         6.6368 
 157   0.0000       0.247153         6.7254 
 158   0.0000       0.249861         6.7991 
 159   0.0000       0.252581         6.8731 
 160   0.0000       0.255406         6.9499 
 161   0.0000       0.258967         7.0469 
 162   0.0000       0.262817         7.1516 
 163   0.0000       0.265541         7.2258 
 164   0.0000       0.269155         7.3241 
 165   0.0000       0.275347         7.4926 
 166   0.0000       0.277757         7.5582 
 167   0.0000       0.280255         7.6261 
 168   0.0000       0.283392         7.7115 
 169   0.0000       0.286888         7.8066 
 170   0.0000       0.297568         8.0972 
 171   0.0000       0.301586         8.2066 
 172   0.0000       0.304238         8.2787 
 173   0.0000       0.306327         8.3356 
 174   0.0000       0.307692         8.3727 
 175   0.0000       0.314180         8.5493 
 176   0.0000       0.319463         8.6930 
 177   0.0000       0.337338         9.1794 
 178   0.0000       0.348157         9.4738 
 179   0.0000       0.355422         9.6715 
 180   0.0000       0.364864         9.9285 
 181   0.0000       0.375261        10.2114 
 182   0.0000       0.381638        10.3849 
 183   0.0000       0.402770        10.9599 
 184   0.0000       0.420944        11.4545 
 185   0.0000       0.461891        12.5687 
 186   0.0000       0.478782        13.0283 
 187   0.0000       0.487312        13.2604 
 188   0.0000       0.505392        13.7524 
 189   0.0000       0.511789        13.9265 
 190   0.0000       0.516910        14.0658 
 191   0.0000       0.521871        14.2008 
 192   0.0000       0.550642        14.9837 
 193   0.0000       0.556932        15.1549 
 194   0.0000       0.571378        15.5480 
 195   0.0000       0.576287        15.6816 
 196   0.0000       0.579989        15.7823 
 197   0.0000       0.585256        15.9256 
 198   0.0000       0.593041        16.1375 
 199   0.0000       0.608426        16.5561 
 200   0.0000       0.614207        16.7134 
 201   0.0000       0.624786        17.0013 
 202   0.0000       0.628107        17.0917 
 203   0.0000       0.634725        17.2718 
 204   0.0000       0.639826        17.4105 
 205   0.0000       0.647584        17.6217 
 206   0.0000       0.658725        17.9248 
 207   0.0000       0.663176        18.0459 
 208   0.0000       0.668130        18.1807 
 209   0.0000       0.669429        18.2161 
 210   0.0000       0.674857        18.3638 
 211   0.0000       0.687849        18.7173 
 212   0.0000       0.690198        18.7812 
 213   0.0000       0.697776        18.9874 
 214   0.0000       0.703792        19.1511 
 215   0.0000       0.710771        19.3411 
 216   0.0000       0.711755        19.3678 
 217   0.0000       0.712993        19.4015 
 218   0.0000       0.721905        19.6440 
 219   0.0000       0.728461        19.8224 
 220   0.0000       0.733297        19.9540 
 221   0.0000       0.733658        19.9638 
 222   0.0000       0.742668        20.2090 
 223   0.0000       0.743968        20.2444 
 224   0.0000       0.746404        20.3107 
 225   0.0000       0.748856        20.3774 
 226   0.0000       0.758126        20.6297 
 227   0.0000       0.761285        20.7156 
 228   0.0000       0.763400        20.7732 
 229   0.0000       0.766849        20.8670 
 230   0.0000       0.771485        20.9932 
 231   0.0000       0.778413        21.1817 
 232   0.0000       0.779881        21.2216 
 233   0.0000       0.786823        21.4106 
 234   0.0000       0.790111        21.5000 
 235   0.0000       0.793182        21.5836 
 236   0.0000       0.796372        21.6704 
 237   0.0000       0.800275        21.7766 
 238   0.0000       0.810042        22.0424 
 239   0.0000       0.812560        22.1109 
 240   0.0000       0.822738        22.3878 
 241   0.0000       0.829842        22.5811 
 242   0.0000       0.841555        22.8999 
 243   0.0000       0.849082        23.1047 
 244   0.0000       0.851064        23.1586 
 245   0.0000       0.853654        23.2291 
 246   0.0000       0.856157        23.2972 
 247   0.0000       0.864597        23.5269 
 248   0.0000       0.867249        23.5991 
 249   0.0000       0.870993        23.7009 
 250   0.0000       0.873437        23.7674 
 251   0.0000       0.875500        23.8236 
 252   0.0000       0.875899        23.8344 
 253   0.0000       0.876751        23.8576 
 254   0.0000       0.881605        23.9897 
 255   0.0000       0.883599        24.0439 
 256   0.0000       0.885268        24.0894 
 257   0.0000       0.890647        24.2357 
 258   0.0000       0.892061        24.2742 
 259   0.0000       0.898480        24.4489 
 260   0.0000       0.901700        24.5365 
 261   0.0000       0.903287        24.5797 
 262   0.0000       0.908585        24.7239 
 263   0.0000       0.910526        24.7767 
 264   0.0000       0.914149        24.8753 
 265   0.0000       0.920670        25.0527 
 266   0.0000       0.922534        25.1034 
 267   0.0000       0.929315        25.2880 
 268   0.0000       0.931847        25.3569 
 269   0.0000       0.938186        25.5293 
 270   0.0000       0.939807        25.5734 
 271   0.0000       0.941379        25.6162 
 272   0.0000       0.945019        25.7153 
 273   0.0000       0.951769        25.8989 
 274   0.0000       0.954637        25.9770 
 275   0.0000       0.959852        26.1189 
 276   0.0000       0.965063        26.2607 
 277   0.0000       0.969548        26.3827 
 278   0.0000       0.975080        26.5333 
 279   0.0000       0.982328        26.7305 
 280   0.0000       0.993535        27.0355 
 281   0.0000       0.994070        27.0500 
 282   0.0000       1.003091        27.2955 
 283   0.0000       1.009229        27.4625 
 284   0.0000       1.010995        27.5106 
 285   0.0000       1.022926        27.8352 
 286   0.0000       1.030317        28.0364 
 287   0.0000       1.043713        28.4009 
 288   0.0000       1.053800        28.6754 
 289   0.0000       1.072677        29.1890 
 290   0.0000       1.073848        29.2209 
 291   0.0000       1.078659        29.3518 
 292   0.0000       1.084184        29.5021 
 293   0.0000       1.101719        29.9793 
 294   0.0000       1.107002        30.1231 
 295   0.0000       1.116095        30.3705 
 296   0.0000       1.127110        30.6702 
 297   0.0000       1.133385        30.8410 
 298   0.0000       1.141902        31.0727 
 299   0.0000       1.150874        31.3169 
 300   0.0000       1.158717        31.5303 
 301   0.0000       1.166300        31.7366 
 302   0.0000       1.192723        32.4557 
 303   0.0000       1.207774        32.8652 
 304   0.0000       1.233272        33.5590 
 305   0.0000       1.238618        33.7045 
 306   0.0000       1.248201        33.9653 
 307   0.0000       1.275815        34.7167 
 308   0.0000       1.296854        35.2892 
 309   0.0000       1.317173        35.8421 
 310   0.0000       1.327032        36.1104 
 311   0.0000       1.334919        36.3250 
 312   0.0000       1.367775        37.2190 
 313   0.0000       1.375040        37.4167 
 314   0.0000       1.410243        38.3747 
 315   0.0000       1.513027        41.1716 
 316   0.0000       1.527344        41.5611 
 317   0.0000       1.568564        42.6828 
 318   0.0000       1.591546        43.3082 
 319   0.0000       1.674993        45.5789 
 320   0.0000       6.202194       168.7703 
 321   0.0000       6.232135       169.5850 
 322   0.0000       6.257661       170.2796 
 323   0.0000       6.267751       170.5542 
 324   0.0000       6.273563       170.7123 
 325   0.0000       6.290032       171.1605 
 326   0.0000       6.298938       171.4028 
 327   0.0000       6.306837       171.6178 
 328   0.0000       6.317456       171.9067 
 329   0.0000       6.337345       172.4479 
 330   0.0000       6.347014       172.7110 
 331   0.0000       6.350162       172.7967 
 332   0.0000       6.359477       173.0502 
 333   0.0000       6.371387       173.3742 
 334   0.0000       6.386882       173.7959 
 335   0.0000       6.400393       174.1635 
 336   0.0000       6.407228       174.3495 
 337   0.0000       6.414846       174.5568 
 338   0.0000       6.422255       174.7584 
 339   0.0000       6.423892       174.8030 
 340   0.0000       6.437053       175.1611 
 341   0.0000       6.444141       175.3540 
 342   0.0000       6.453784       175.6164 
 343   0.0000       6.457063       175.7056 
 344   0.0000       6.469225       176.0366 
 345   0.0000       6.481503       176.3707 
 346   0.0000       6.486161       176.4974 
 347   0.0000       6.498680       176.8381 
 348   0.0000       6.505425       177.0216 
 349   0.0000       6.510461       177.1586 
 350   0.0000       6.523066       177.5016 
 351   0.0000       6.526432       177.5932 
 352   0.0000       6.538320       177.9167 
 353   0.0000       6.547476       178.1659 
 354   0.0000       6.551842       178.2847 
 355   0.0000       6.552316       178.2976 
 356   0.0000       6.562214       178.5669 
 357   0.0000       6.567886       178.7213 
 358   0.0000       6.570874       178.8026 
 359   0.0000       6.576298       178.9502 
 360   0.0000       6.581458       179.0906 
 361   0.0000       6.584055       179.1613 
 362   0.0000       6.588168       179.2732 
 363   0.0000       6.594258       179.4389 
 364   0.0000       6.603726       179.6965 
 365   0.0000       6.606673       179.7767 
 366   0.0000       6.609116       179.8432 
 367   0.0000       6.614402       179.9870 
 368   0.0000       6.617059       180.0593 
 369   0.0000       6.619450       180.1244 
 370   0.0000       6.624787       180.2696 
 371   0.0000       6.627765       180.3507 
 372   0.0000       6.630546       180.4263 
 373   0.0000       6.634376       180.5305 
 374   0.0000       6.638892       180.6534 
[...]
     69 H        0.000      0.000      0.000      0.000      0.000      0.000
     70 H        0.000      0.000      0.000     -0.000      0.001      0.020
     71 H        0.000      0.000      0.000      0.000      0.001      0.008
     72 H        0.000      0.000      0.000      0.000      0.002      0.034
                 25 H       27 H       28 H       30 H       31 H       33 H  
      3 H        0.074     -0.003      0.002      0.000      0.000      0.091
      4 H        2.267     -0.110      0.070      0.000      0.000      2.556
      8 H        0.115      0.000      0.000      0.000      0.000      0.107
      9 H       -0.258      0.015      0.000      0.000      0.000     -0.309
     10 H        0.000      0.000      0.000      0.000      0.000      0.000
     11 H        0.000      0.000      0.000      0.000      0.000      0.000
     13 H       -0.037      0.000      0.000      0.000      0.000      0.000
     16 H       -0.260      0.014     -0.005     -0.032     -0.002     -0.306
     17 H       -0.244      0.013      0.000      0.000      0.000     -0.305
     19 H        0.930     -0.046      0.080      0.065      0.005      0.981
     21 H       -2.806      0.191      0.665     -0.231     -0.027     -2.378
     24 H      -13.303      4.292      2.383      0.645     -0.494     -0.133
     25 H        0.000     12.975      5.157     -0.635     -0.357     -2.121
     27 H       12.975      0.000    -13.579      4.014     12.985      0.061
     28 H        5.157    -13.579      0.000      2.613      4.142      0.288
     30 H       -0.635      4.014      2.613      0.000    -12.982      0.032
     31 H       -0.357     12.985      4.142    -12.982      0.000     -0.322
     33 H       -2.121      0.061      0.288      0.032     -0.322      0.000
     35 H       -0.026      0.001     -0.001      0.000      0.000     -0.035
     37 H        0.275      0.004     -0.035      0.512     -0.035      6.487
     38 H        0.165      0.001     -0.028     -0.012      0.125     12.198
     40 H       -0.013      0.020      0.143     -0.002     -0.033     -0.249
     41 H        0.009      0.022     -0.025      0.014      0.079     -0.431
     42 H       -0.018      0.013     -0.012     -0.260     -0.376     -0.209
     45 H       -0.059     -0.119     -0.144     -0.145      1.831     -0.478
     46 H       -0.016     -0.222      0.002     -0.211     -0.484     -0.218
     47 H        0.013      0.051      0.065     -0.339      0.022      0.864
     48 H       -0.014      0.030      0.022      0.028      0.009      0.003
     52 H        0.001      0.001      0.001     -0.002      0.001      0.003
     53 H        0.000     -0.000      0.000      0.000     -0.001     -0.003
     57 H        0.000      0.000      0.000     -0.004      0.001      0.004
     58 H        0.000      0.000      0.000      0.000      0.000     -0.000
     61 H        0.000      0.000      0.000      0.000     -0.000     -0.000
     62 H        0.000      0.000      0.000      0.000      0.000      0.000
     63 H        0.000      0.000      0.000     -0.000      0.000     -0.000
     64 H        0.000      0.000      0.000      0.000      0.000      0.000
     65 H        0.000      0.000      0.000      0.000      0.000      0.000
     66 H        0.000      0.000      0.000      0.000      0.000      0.000
     67 H        0.000      0.000      0.000      0.000     -0.000     -0.000
     68 H        0.000      0.000      0.000      0.000      0.000     -0.000
     69 H        0.000      0.000      0.000      0.000      0.000     -0.000
     70 H        0.004     -0.010     -0.009     -0.433     -0.073      0.004
     71 H        0.000     -0.001     -0.003      0.078      0.015     -0.002
     72 H        0.000     -0.010     -0.011      0.090     -0.041      0.003
                 35 H       37 H       38 H       40 H       41 H       42 H  
      3 H       -0.267     -0.001     -0.001      0.000      0.000      0.000
      4 H       -0.644     -0.045     -0.013      0.000      0.000      0.000
      8 H       -0.033     -0.002     -0.002      0.000     -0.000      0.000
      9 H       -0.154      0.006      0.002      0.000      0.001      0.000
     10 H       -0.401     -0.000     -0.000      0.000      0.000      0.000
     11 H       -0.143     -0.002     -0.000      0.000      0.000      0.000
     13 H       12.495      0.000      0.000      0.000      0.000      0.000
     16 H       -0.003      0.005      0.003      0.001      0.001     -0.001
     17 H       -0.002      0.005      0.003     -0.000      0.001      0.000
     19 H        0.046     -0.019      0.080      0.014     -0.004      0.003
     21 H       -0.015      0.062     -0.571     -0.011      0.061     -0.023
     24 H       -0.001     -0.057     -0.081     -0.019      0.067     -0.024
     25 H       -0.026      0.275      0.165     -0.013      0.009     -0.018
     27 H        0.001      0.004      0.001      0.020      0.022      0.013
     28 H       -0.001     -0.035     -0.028      0.143     -0.025     -0.012
     30 H        0.000      0.512     -0.012     -0.002      0.014     -0.260
     31 H        0.000     -0.035      0.125     -0.033      0.079     -0.376
     33 H       -0.035      6.487     12.198     -0.249     -0.431     -0.209
     35 H        0.000      0.000     -0.000      0.000      0.000      0.000
     37 H        0.000      0.000    -12.272      9.509      2.660     -0.262
     38 H       -0.000    -12.272      0.000      6.735     11.599     -0.469
     40 H        0.000      9.509      6.735      0.000    -13.534      9.539
     41 H        0.000      2.660     11.599    -13.534      0.000      8.708
     42 H        0.000     -0.262     -0.469      9.539      8.708      0.000
     45 H       -0.000      0.066     -0.061     -0.108     -0.064     -0.082
     46 H        0.000      0.060      0.034     -0.089      0.006      1.129
     47 H        0.000     -0.174      0.011      0.053      0.043     -0.409
     48 H        0.000      0.097     -0.009     -0.200     -0.426     10.312
     52 H        0.000     -0.000      0.003      0.080     -0.018     -0.297
     53 H        0.000      0.003      0.006     -0.125      0.029      0.082
     57 H        0.000     -0.005     -0.003      0.191     -0.016     -0.077
     58 H        0.000      0.000      0.000     -0.001      0.002      0.001
     61 H        0.000      0.000      0.000     -0.002     -0.000     -0.000
     62 H        0.000     -0.000      0.000     -0.004      0.002      0.006
     63 H        0.000      0.000      0.000     -0.003      0.000     -0.001
     64 H        0.000      0.000      0.000      0.001      0.003      0.000
     65 H        0.000      0.000      0.000     -0.001      0.000      0.000
     66 H        0.000      0.000      0.000     -0.000      0.000     -0.003
     67 H        0.000      0.002      0.002     -0.106     -0.097      0.003
     68 H        0.000     -0.000      0.001     -0.010     -0.014      0.001
     69 H        0.000      0.001      0.002     -0.010     -0.018      0.001
     70 H        0.000     -0.006      0.004      0.085      0.023     -0.199
     71 H        0.000     -0.020      0.037      0.030     -0.056     -0.347
     72 H        0.000      0.065      0.010     -0.026      0.004     -0.435
                 45 H       46 H       47 H       48 H       52 H       53 H  
      3 H        0.001     -0.000     -0.001      0.000      0.000      0.000
      4 H        0.027     -0.017     -0.018      0.000      0.000      0.000
      8 H        0.001     -0.001      0.000      0.000      0.000      0.000
      9 H       -0.003      0.002      0.000      0.000      0.000      0.000
     10 H        0.000     -0.000      0.000      0.000      0.000      0.000
     11 H        0.000      0.000      0.000      0.000      0.000      0.000
     13 H        0.000      0.000      0.000      0.000      0.000      0.000
     16 H       -0.003     -0.000      0.002     -0.002      0.000      0.000
     17 H       -0.004     -0.000      0.001     -0.002      0.000      0.000
     19 H        0.010     -0.010     -0.008      0.005      0.000      0.000
     21 H       -0.019      0.042      0.011     -0.015      0.002     -0.001
     24 H       -0.022     -0.023     -0.016      0.002      0.000      0.000
     25 H       -0.059     -0.016      0.013     -0.014      0.001      0.000
     27 H       -0.119     -0.222      0.051      0.030      0.001     -0.000
     28 H       -0.144      0.002      0.065      0.022      0.001      0.000
     30 H       -0.145     -0.211     -0.339      0.028     -0.002      0.000
     31 H        1.831     -0.484      0.022      0.009      0.001     -0.001
     33 H       -0.478     -0.218      0.864      0.003      0.003     -0.003
     35 H       -0.000      0.000      0.000      0.000      0.000      0.000
     37 H        0.066      0.060     -0.174      0.097     -0.000      0.003
     38 H       -0.061      0.034      0.011     -0.009      0.003      0.006
     40 H       -0.108     -0.089      0.053     -0.200      0.080     -0.125
     41 H       -0.064      0.006      0.043     -0.426     -0.018      0.029
     42 H       -0.082      1.129     -0.409     10.312     -0.297      0.082
     45 H        0.000    -13.564    -13.058     -0.165      0.071     -0.002
     46 H      -13.564      0.000    -12.904     -0.101      0.243     -0.001
     47 H      -13.058    -12.904      0.000     -0.056      0.075     -0.002
     48 H       -0.165     -0.101     -0.056      0.000      9.694     -0.649
     52 H        0.071      0.243      0.075      9.694      0.000     16.486
     53 H       -0.002     -0.001     -0.002     -0.649     16.486      0.000
     57 H        0.000      0.000      0.000      0.180     -3.050      3.774
     58 H        0.000      0.000      0.000      0.004      0.041     -0.333
     61 H        0.000      0.000      0.000      0.099     -0.194     -0.536
     62 H        0.000      0.000      0.000      0.267     -0.185      0.975
     63 H        0.000      0.000      0.000      0.077     -0.230     -0.476
     64 H        0.000      0.000      0.000     -0.000      0.004      0.014
     65 H        0.000      0.000      0.000     -0.000      0.043      0.064
     66 H        0.000      0.000      0.000     -0.007      0.022     -0.018
     67 H       -0.000     -0.000      0.000     -0.002      0.020      0.004
     68 H       -0.000      0.000     -0.000     -0.002      0.018     -0.020
     69 H       -0.000      0.000     -0.000      0.001     -0.012      0.015
     70 H       -0.017     -0.049     -0.192      4.396     -0.097     -0.394
     71 H        0.035     -0.031     -0.035     12.685     -0.267      0.092
     72 H       -0.012     -0.028     -0.016      2.357     -0.160      0.107
                 57 H       58 H       61 H       62 H       63 H       64 H  
      3 H        0.000      0.000      0.000      0.000      0.000      0.000
      4 H        0.000      0.000      0.000      0.000      0.000      0.000
      8 H        0.000      0.000      0.000      0.000      0.000      0.000
      9 H        0.000      0.000      0.000      0.000      0.000      0.000
     10 H        0.000      0.000      0.000      0.000      0.000      0.000
     11 H        0.000      0.000      0.000      0.000      0.000      0.000
     13 H        0.000      0.000      0.000      0.000      0.000      0.000
     16 H        0.000      0.000      0.000      0.000      0.000      0.000
     17 H        0.000      0.000      0.000      0.000      0.000      0.000
     19 H        0.000      0.000      0.000      0.000      0.000      0.000
     21 H        0.000      0.000      0.000      0.000      0.000      0.000
     24 H        0.000      0.000      0.000      0.000      0.000      0.000
     25 H        0.000      0.000      0.000      0.000      0.000      0.000
     27 H        0.000      0.000      0.000      0.000      0.000      0.000
     28 H        0.000      0.000      0.000      0.000      0.000      0.000
     30 H       -0.004      0.000      0.000      0.000     -0.000      0.000
     31 H        0.001      0.000     -0.000      0.000      0.000      0.000
     33 H        0.004     -0.000     -0.000      0.000     -0.000      0.000
     35 H        0.000      0.000      0.000      0.000      0.000      0.000
     37 H       -0.005      0.000      0.000     -0.000      0.000      0.000
     38 H       -0.003      0.000      0.000      0.000      0.000      0.000
     40 H        0.191     -0.001     -0.002     -0.004     -0.003      0.001
     41 H       -0.016      0.002     -0.000      0.002      0.000      0.003
     42 H       -0.077      0.001     -0.000      0.006     -0.001      0.000
     45 H        0.000      0.000      0.000      0.000      0.000      0.000
     46 H        0.000      0.000      0.000      0.000      0.000      0.000
     47 H        0.000      0.000      0.000      0.000      0.000      0.000
     48 H        0.180      0.004      0.099      0.267      0.077     -0.000
     52 H       -3.050      0.041     -0.194     -0.185     -0.230      0.004
     53 H        3.774     -0.333     -0.536      0.975     -0.476      0.014
     57 H        0.000      2.783     12.882      3.275      3.911     -0.345
     58 H        2.783      0.000     -0.506     -0.395      0.541      2.707
     61 H       12.882     -0.506      0.000    -12.568    -12.749      0.025
     62 H        3.275     -0.395    -12.568      0.000    -13.595      0.016
     63 H        3.911      0.541    -12.749    -13.595      0.000      0.036
     64 H       -0.345      2.707      0.025      0.016      0.036      0.000
     65 H       -0.291     13.047      0.043     -0.306     -0.105    -12.000
     66 H       -0.154      4.436      0.055     -0.122     -0.083    -12.709
     67 H       -0.230      2.762     -0.014      0.082      0.024      2.795
     68 H        0.631      4.334     -0.107      0.046     -0.170     -0.092
     69 H       -0.511     13.163     -0.135     -0.011     -0.089     -0.224
     70 H        0.883     -0.012     -0.012     -0.022     -0.007      0.000
     71 H       -0.134      0.002     -0.002      0.005      0.002      0.000
     72 H       -0.031      0.001     -0.001     -0.002     -0.000      0.000
                 65 H       66 H       67 H       68 H       69 H       70 H  
      3 H        0.000      0.000      0.000      0.000      0.000      0.000
      4 H        0.000      0.000      0.000      0.000      0.000      0.000
      8 H        0.000      0.000      0.000      0.000      0.000      0.000
      9 H        0.000      0.000      0.000      0.000      0.000      0.000
     10 H        0.000      0.000      0.000      0.000      0.000      0.000
     11 H        0.000      0.000      0.000      0.000      0.000      0.000
     13 H        0.000      0.000      0.000      0.000      0.000      0.000
     16 H        0.000      0.000      0.000      0.000      0.000      0.000
     17 H        0.000      0.000      0.000      0.000      0.000      0.000
     19 H        0.000      0.000      0.000      0.000      0.000     -0.000
     21 H        0.000      0.000     -0.000     -0.000      0.000      0.001
     24 H        0.000      0.000      0.000      0.000      0.000      0.020
     25 H        0.000      0.000      0.000      0.000      0.000      0.004
     27 H        0.000      0.000      0.000      0.000      0.000     -0.010
     28 H        0.000      0.000      0.000      0.000      0.000     -0.009
     30 H        0.000      0.000      0.000      0.000      0.000     -0.433
     31 H        0.000      0.000     -0.000      0.000      0.000     -0.073
     33 H        0.000      0.000     -0.000     -0.000     -0.000      0.004
     35 H        0.000      0.000      0.000      0.000      0.000      0.000
     37 H        0.000      0.000      0.002     -0.000      0.001     -0.006
     38 H        0.000      0.000      0.002      0.001      0.002      0.004
     40 H       -0.001     -0.000     -0.106     -0.010     -0.010      0.085
     41 H        0.000      0.000     -0.097     -0.014     -0.018      0.023
     42 H        0.000     -0.003      0.003      0.001      0.001     -0.199
     45 H        0.000      0.000     -0.000     -0.000     -0.000     -0.017
     46 H        0.000      0.000     -0.000      0.000      0.000     -0.049
     47 H        0.000      0.000      0.000     -0.000     -0.000     -0.192
     48 H       -0.000     -0.007     -0.002     -0.002      0.001      4.396
     52 H        0.043      0.022      0.020      0.018     -0.012     -0.097
     53 H        0.064     -0.018      0.004     -0.020      0.015     -0.394
     57 H       -0.291     -0.154     -0.230      0.631     -0.511      0.883
     58 H       13.047      4.436      2.762      4.334     13.163     -0.012
     61 H        0.043      0.055     -0.014     -0.107     -0.135     -0.012
     62 H       -0.306     -0.122      0.082      0.046     -0.011     -0.022
     63 H       -0.105     -0.083      0.024     -0.170     -0.089     -0.007
     64 H      -12.000    -12.709      2.795     -0.092     -0.224      0.000
     65 H        0.000    -13.123     -0.260     -0.209     -0.337      0.000
     66 H      -13.123      0.000     -0.099     -0.194     -0.209      0.000
     67 H       -0.260     -0.099      0.000    -12.802    -12.342      0.002
     68 H       -0.209     -0.194    -12.802      0.000    -12.884     -0.007
     69 H       -0.337     -0.209    -12.342    -12.884      0.000      0.003
     70 H        0.000      0.000      0.002     -0.007      0.003      0.000
     71 H        0.000      0.000      0.000      0.001     -0.001    -12.406
     72 H        0.000     -0.002      0.001     -0.000     -0.001    -13.194
                 71 H       72 H  
      3 H        0.000      0.000
      4 H        0.000      0.000
      8 H        0.000      0.000
      9 H        0.000      0.000
     10 H        0.000      0.000
     11 H        0.000      0.000
     13 H        0.000      0.000
     16 H        0.000      0.000
     17 H        0.000      0.000
     19 H        0.000      0.000
     21 H        0.001      0.002
     24 H        0.008      0.034
     25 H        0.000      0.000
     27 H       -0.001     -0.010
     28 H       -0.003     -0.011
     30 H        0.078      0.090
     31 H        0.015     -0.041
     33 H       -0.002      0.003
     35 H        0.000      0.000
     37 H       -0.020      0.065
     38 H        0.037      0.010
     40 H        0.030     -0.026
     41 H       -0.056      0.004
     42 H       -0.347     -0.435
     45 H        0.035     -0.012
     46 H       -0.031     -0.028
     47 H       -0.035     -0.016
     48 H       12.685      2.357
     52 H       -0.267     -0.160
     53 H        0.092      0.107
     57 H       -0.134     -0.031
     58 H        0.002      0.001
     61 H       -0.002     -0.001
     62 H        0.005     -0.002
     63 H        0.002     -0.000
     64 H        0.000      0.000
     65 H        0.000      0.000
     66 H        0.000     -0.002
     67 H        0.000      0.001
     68 H        0.001     -0.000
     69 H       -0.001     -0.001
     70 H      -12.406    -13.194
     71 H        0.000    -12.608
     72 H      -12.608      0.000

Maximum memory used throughout the entire EPRNMR-calculation: 987.5 MB

Timings for individual modules:

Sum of individual times         ...      387.702 sec (=   6.462 min)
GTO integral calculation        ...        0.623 sec (=   0.010 min)   0.2 %
SCF iterations                  ...      104.992 sec (=   1.750 min)  27.1 %
EPR/NMR calculation             ...      282.087 sec (=   4.701 min)  72.8 %
                             ****ORCA TERMINATED NORMALLY****
TOTAL RUN TIME: 0 days 0 hours 6 minutes 28 seconds 171 msec
