
                                 *****************
                                 * O   R   C   A *
                                 *****************

                                            #,                                       
                                            ###                                      
                                            ####                                     
                                            #####                                    
                                            ######                                   
                                           ########,                                 
                                     ,,################,,,,,                         
                               ,,#################################,,                 
                          ,,##########################################,,             
                       ,#########################################, ''#####,          
                    ,#############################################,,   '####,        
                  ,##################################################,,,,####,       
                ,###########''''           ''''###############################       
              ,#####''   ,,,,##########,,,,          '''####'''          '####       
            ,##' ,,,,###########################,,,                        '##       
           ' ,,###''''                  '''############,,,                           
         ,,##''                                '''############,,,,        ,,,,,,###''
      ,#''                                            '''#######################'''  
     '                                                          ''''####''''         
             ,#######,   #######,   ,#######,      ##                                
            ,#'     '#,  ##    ##  ,#'     '#,    #''#        ######   ,####,        
            ##       ##  ##   ,#'  ##            #'  '#       #        #'  '#        
            ##       ##  #######   ##           ,######,      #####,   #    #        
            '#,     ,#'  ##    ##  '#,     ,#' ,#      #,         ##   #,  ,#        
             '#######'   ##     ##  '#######'  #'      '#     #####' # '####'        



                  #######################################################
                  #                        -***-                        #
                  #          Department of theory and spectroscopy      #
                  #    Directorship and core code : Frank Neese         #
                  #        Max Planck Institute fuer Kohlenforschung    #
                  #                Kaiser Wilhelm Platz 1               #
                  #                 D-45470 Muelheim/Ruhr               #
                  #                      Germany                        #
                  #                                                     #
                  #                  All rights reserved                #
                  #                        -***-                        #
                  #######################################################


                         Program Version 5.0.2 -  RELEASE  -


 With contributions from (in alphabetic order):
   Daniel Aravena         : Magnetic Suceptibility
   Michael Atanasov       : Ab Initio Ligand Field Theory (pilot matlab implementation)
   Alexander A. Auer      : GIAO ZORA, VPT2 properties, NMR spectrum
   Ute Becker             : Parallelization
   Giovanni Bistoni       : ED, misc. LED, open-shell LED, HFLD
   Martin Brehm           : Molecular dynamics
   Dmytro Bykov           : SCF Hessian
   Vijay G. Chilkuri      : MRCI spin determinant printing, contributions to CSF-ICE
   Dipayan Datta          : RHF DLPNO-CCSD density
   Achintya Kumar Dutta   : EOM-CC, STEOM-CC
   Dmitry Ganyushin       : Spin-Orbit,Spin-Spin,Magnetic field MRCI
   Miquel Garcia          : C-PCM and meta-GGA Hessian, CC/C-PCM, Gaussian charge scheme
   Yang Guo               : DLPNO-NEVPT2, F12-NEVPT2, CIM, IAO-localization
   Andreas Hansen         : Spin unrestricted coupled pair/coupled cluster methods
   Benjamin Helmich-Paris : MC-RPA, TRAH-SCF, COSX integrals
   Lee Huntington         : MR-EOM, pCC
   Robert Izsak           : Overlap fitted RIJCOSX, COSX-SCS-MP3, EOM
   Marcus Kettner         : VPT2
   Christian Kollmar      : KDIIS, OOCD, Brueckner-CCSD(T), CCSD density, CASPT2, CASPT2-K
   Simone Kossmann        : Meta GGA functionals, TD-DFT gradient, OOMP2, MP2 Hessian
   Martin Krupicka        : Initial AUTO-CI
   Lucas Lang             : DCDCAS
   Marvin Lechner         : AUTO-CI (C++ implementation), FIC-MRCC
   Dagmar Lenk            : GEPOL surface, SMD
   Dimitrios Liakos       : Extrapolation schemes; Compound Job, initial MDCI parallelization
   Dimitrios Manganas     : Further ROCIS development; embedding schemes
   Dimitrios Pantazis     : SARC Basis sets
   Anastasios Papadopoulos: AUTO-CI, single reference methods and gradients
   Taras Petrenko         : DFT Hessian,TD-DFT gradient, ASA, ECA, R-Raman, ABS, FL, XAS/XES, NRVS
   Peter Pinski           : DLPNO-MP2, DLPNO-MP2 Gradient
   Christoph Reimann      : Effective Core Potentials
   Marius Retegan         : Local ZFS, SOC
   Christoph Riplinger    : Optimizer, TS searches, QM/MM, DLPNO-CCSD(T), (RO)-DLPNO pert. Triples
   Tobias Risthaus        : Range-separated hybrids, TD-DFT gradient, RPA, STAB
   Michael Roemelt        : Original ROCIS implementation
   Masaaki Saitow         : Open-shell DLPNO-CCSD energy and density
   Barbara Sandhoefer     : DKH picture change effects
   Avijit Sen             : IP-ROCIS
   Kantharuban Sivalingam : CASSCF convergence, NEVPT2, FIC-MRCI
   Bernardo de Souza      : ESD, SOC TD-DFT
   Georgi Stoychev        : AutoAux, RI-MP2 NMR, DLPNO-MP2 response
   Willem Van den Heuvel  : Paramagnetic NMR
   Boris Wezisla          : Elementary symmetry handling
   Frank Wennmohs         : Technical directorship


 We gratefully acknowledge several colleagues who have allowed us to
 interface, adapt or use parts of their codes:
   Stefan Grimme, W. Hujo, H. Kruse, P. Pracht,  : VdW corrections, initial TS optimization,
                  C. Bannwarth, S. Ehlert          DFT functionals, gCP, sTDA/sTD-DF
   Ed Valeev, F. Pavosevic, A. Kumar             : LibInt (2-el integral package), F12 methods
   Garnet Chan, S. Sharma, J. Yang, R. Olivares  : DMRG
   Ulf Ekstrom                                   : XCFun DFT Library
   Mihaly Kallay                                 : mrcc  (arbitrary order and MRCC methods)
   Jiri Pittner, Ondrej Demel                    : Mk-CCSD
   Frank Weinhold                                : gennbo (NPA and NBO analysis)
   Christopher J. Cramer and Donald G. Truhlar   : smd solvation model
   Lars Goerigk                                  : TD-DFT with DH, B97 family of functionals
   V. Asgeirsson, H. Jonsson                     : NEB implementation
   FAccTs GmbH                                   : IRC, NEB, NEB-TS, DLPNO-Multilevel, CI-OPT
                                                   MM, QMMM, 2- and 3-layer-ONIOM, Crystal-QMMM,
                                                   LR-CPCM, SF, NACMEs, symmetry and pop. for TD-DFT,
                                                   nearIR, NL-DFT gradient (VV10), updates on ESD,
                                                   ML-optimized integration grids
   S Lehtola, MJT Oliveira, MAL Marques          : LibXC Library
   Liviu Ungur et al                             : ANISO software


 Your calculation uses the libint2 library for the computation of 2-el integrals
 For citations please refer to: http://libint.valeyev.net

 Your ORCA version has been built with support for libXC version: 5.1.0
 For citations please refer to: https://tddft.org/programs/libxc/

 This ORCA versions uses:
   CBLAS   interface :  Fast vector & matrix operations
   LAPACKE interface :  Fast linear algebra routines
   SCALAPACK package :  Parallel linear algebra routines
   Shared memory     :  Shared parallel matrices
   BLAS/LAPACK       :  OpenBLAS 0.3.15  USE64BITINT DYNAMIC_ARCH NO_AFFINITY Zen SINGLE_THREADED
        Core in use  :  Zen
   Copyright (c) 2011-2014, The OpenBLAS Project


Your calculation utilizes the atom-pairwise dispersion correction
based on tight binding partial charges (D4)
Cite in your paper:
E.Caldeweyher, C.Bannwarth, S.Grimme, J.Chem.Phys., (2017), 147, 034112.
E.Caldeweyher, S.Ehlert, A.Hansen, H.Neugebauer, S.Grimme, J.Chem.Phys., (2018), in progress.
   

================================================================================

----- Orbital basis set information -----
Your calculation utilizes the basis: pcSseg-1
   F. Jensen, J. Chem. Theory Comput. 11, 132 (2015).

----- AuxJ basis set information -----
Your calculation utilizes the auxiliary basis: def2/J
   F. Weigend, Phys. Chem. Chem. Phys. 8, 1057 (2006).

================================================================================
                                        WARNINGS
                       Please study these warnings very carefully!
================================================================================



WARNING: Found flag for RIJCOSX approximation but no HF exchange needed!
  ===> : RIJCOSX  will be disabled and Split-RI-J is turned on

INFO   : the flag for use of the SHARK integral package has been found!

================================================================================
                                       INPUT FILE
================================================================================
NAME = inpS
|  1> ! revTPSS
|  2> ! D4
|  3> ! pcSseg-1
|  4> ! def2/J RIJCOSX
|  5> ! DEFGRID2
|  6> ! scfconv7
|  7> ! smallprint printgap noloewdin
|  8> ! NOSOSCF
|  9> %MaxCore 4000
| 10> %output
| 11>        print[P_BondOrder_M] 1
| 12>        print[P_Mayer] 1
| 13>        print[P_basis] 2
| 14> end
| 15> %pal
| 16>     nprocs 4
| 17> end
| 18> ! CPCM(chloroform)
| 19> *xyz 0 1
| 20> C   -5.2150124400   0.2368501800   0.1400686800
| 21> C   -6.5766060500  -0.2543786500  -0.2914254100
| 22> C   -7.0533553900   0.4451443600  -1.5703708200
| 23> H   -7.3137277800  -0.0283669500   0.4977203700
| 24> H   -6.5677818500  -1.3397033900  -0.4402413300
| 25> C   -5.1001297200   1.7090312300   0.2176511200
| 26> C   -5.6247585600   2.4407463700  -0.9971418600
| 27> C   -7.0286101400   1.9586584900  -1.3878202700
| 28> H   -4.9444661200   2.2462091100  -1.8402049100
| 29> H   -5.6232832000   3.5211530400  -0.8184008000
| 30> H   -7.3539435600   2.4476523800  -2.3135994500
| 31> H   -7.7454531600   2.2294020500  -0.5979124100
| 32> O   -8.3498194000  -0.0226901400  -1.9647742600
| 33> H   -6.3875442100   0.1672980300  -2.3993235700
| 34> C   -4.2037163500  -0.6321899400   0.3756592900
| 35> C   -4.6188668900   2.3546187400   1.2860179300
| 36> H   -4.2707829500   1.8163240100   2.1631902800
| 37> H   -4.5723595800   3.4408364800   1.3089126200
| 38> C   -2.8373848300  -0.2914750000   0.6973637700
| 39> H   -4.4434179400  -1.6891484900   0.2682121100
| 40> C   -1.8420867200  -1.1571968600   0.9869698300
| 41> H   -2.5958942600   0.7688772800   0.6873184700
| 42> C   -1.9779498600  -2.6551396700   1.0867116100
| 43> C   -0.9535332500  -3.3807074800   0.1935369700
| 44> H   -2.9885060200  -2.9983461400   0.8489103000
| 45> H   -1.7834645200  -2.9416934600   2.1326880600
| 46> C    0.4811209500  -2.8820273200   0.4141959900
| 47> H   -1.2365432500  -3.2453412600  -0.8580443700
| 48> H   -1.0021108900  -4.4583282100   0.3927334300
| 49> C    0.5875209000  -1.3585087400   0.2604703000
| 50> H    1.1493871300  -3.4010086500  -0.2807404600
| 51> H    0.8044383100  -3.1511398300   1.4311900800
| 52> C   -0.4349117200  -0.7154272000   1.2499735400
| 53> H   -0.1579699500  -1.1258244200   2.2388181600
| 54> C   -0.0613031000   0.7626396000   1.2564470600
| 55> H   -8.9693624100   0.2094281600  -1.2600951400
| 56> C    1.4838406500   0.7416001700   1.1615711700
| 57> H   -0.4236371500   1.2773004400   2.1527368200
| 58> H   -0.4956175800   1.2759732800   0.3913167700
| 59> C    1.9043551900  -0.7133151600   0.7815494000
| 60> H    1.9430808500   1.0439978400   2.1063386400
| 61> H    1.8439925700   1.4467981000   0.4030771700
| 62> H    2.1625246700  -1.2601150800   1.7024260500
| 63> C    3.1308477800  -0.7338469000  -0.1405542400
| 64> C    0.2924948600  -0.9256641900  -1.1825648700
| 65> H   -0.7536048800  -1.1063087200  -1.4487191000
| 66> H    0.9192226100  -1.4774788600  -1.8911791600
| 67> H    0.4861079800   0.1414192800  -1.3302019500
| 68> H    2.8745513400  -0.1568666200  -1.0433110400
| 69> C    3.5497577700  -2.1432451100  -0.5995326300
| 70> C    4.3560504700  -0.0771229800   0.4588822600
| 71> C    4.6213033700   0.1087397300   1.7516272300
| 72> H    5.1125612800   0.1969008200  -0.2779988400
| 73> H    3.8772851000  -0.1839281700   2.4946464700
| 74> C    5.8818116700   0.6854582000   2.3429906000
| 75> C    6.8996843100   1.1448171500   1.3008511700
| 76> C    6.4689401200  -0.3039877800   3.3891579400
| 77> H    5.5755795800   1.5734207200   2.9227297000
| 78> H    5.6307335200  -0.5793620000   4.0479232100
| 79> C    7.5410566600   0.3509227700   4.2635076000
| 80> C    7.0014457600  -1.5892086100   2.7522598600
| 81> H    6.4613568800   1.9008100600   0.6409751200
| 82> H    7.2409553900   0.3138400900   0.6743306200
| 83> H    7.7769235400   1.5902228800   1.7787861200
| 84> H    7.8360687000  -0.3214738800   5.0768050100
| 85> H    7.1769176500   1.2836571000   4.7096262100
| 86> H    8.4433617500   0.5804459000   3.6855316900
| 87> H    7.8984463800  -1.3919485200   2.1538513800
| 88> H    6.2534182500  -2.0523191300   2.0991754200
| 89> H    7.2754986700  -2.3150363400   3.5258076000
| 90> H    4.5091687900  -2.1013865600  -1.1273658200
| 91> H    2.8181333000  -2.5920197300  -1.2764132000
| 92> H    3.6734464700  -2.8021449100   0.2680515600
| 93> *
| 94> %eprnmr
| 95>  Nuclei = all H { shift }
| 96>  origin giao
| 97>  giao_2el giao_2el_same_as_scf
| 98>  giao_1el giao_1el_analytic
| 99> end
|100> 
|101>                          ****END OF INPUT****
================================================================================

                       ****************************
                       * Single Point Calculation *
                       ****************************

---------------------------------
CARTESIAN COORDINATES (ANGSTROEM)
---------------------------------
  C     -5.215012    0.236850    0.140069
  C     -6.576606   -0.254379   -0.291425
  C     -7.053355    0.445144   -1.570371
  H     -7.313728   -0.028367    0.497720
  H     -6.567782   -1.339703   -0.440241
  C     -5.100130    1.709031    0.217651
  C     -5.624759    2.440746   -0.997142
  C     -7.028610    1.958658   -1.387820
  H     -4.944466    2.246209   -1.840205
  H     -5.623283    3.521153   -0.818401
  H     -7.353944    2.447652   -2.313599
  H     -7.745453    2.229402   -0.597912
  O     -8.349819   -0.022690   -1.964774
  H     -6.387544    0.167298   -2.399324
  C     -4.203716   -0.632190    0.375659
  C     -4.618867    2.354619    1.286018
  H     -4.270783    1.816324    2.163190
  H     -4.572360    3.440836    1.308913
  C     -2.837385   -0.291475    0.697364
  H     -4.443418   -1.689148    0.268212
  C     -1.842087   -1.157197    0.986970
  H     -2.595894    0.768877    0.687318
  C     -1.977950   -2.655140    1.086712
  C     -0.953533   -3.380707    0.193537
  H     -2.988506   -2.998346    0.848910
  H     -1.783465   -2.941693    2.132688
  C      0.481121   -2.882027    0.414196
  H     -1.236543   -3.245341   -0.858044
  H     -1.002111   -4.458328    0.392733
  C      0.587521   -1.358509    0.260470
  H      1.149387   -3.401009   -0.280740
  H      0.804438   -3.151140    1.431190
  C     -0.434912   -0.715427    1.249974
  H     -0.157970   -1.125824    2.238818
  C     -0.061303    0.762640    1.256447
  H     -8.969362    0.209428   -1.260095
  C      1.483841    0.741600    1.161571
  H     -0.423637    1.277300    2.152737
  H     -0.495618    1.275973    0.391317
  C      1.904355   -0.713315    0.781549
  H      1.943081    1.043998    2.106339
  H      1.843993    1.446798    0.403077
  H      2.162525   -1.260115    1.702426
  C      3.130848   -0.733847   -0.140554
  C      0.292495   -0.925664   -1.182565
  H     -0.753605   -1.106309   -1.448719
  H      0.919223   -1.477479   -1.891179
  H      0.486108    0.141419   -1.330202
  H      2.874551   -0.156867   -1.043311
  C      3.549758   -2.143245   -0.599533
  C      4.356050   -0.077123    0.458882
  C      4.621303    0.108740    1.751627
  H      5.112561    0.196901   -0.277999
  H      3.877285   -0.183928    2.494646
  C      5.881812    0.685458    2.342991
  C      6.899684    1.144817    1.300851
  C      6.468940   -0.303988    3.389158
  H      5.575580    1.573421    2.922730
  H      5.630734   -0.579362    4.047923
  C      7.541057    0.350923    4.263508
  C      7.001446   -1.589209    2.752260
  H      6.461357    1.900810    0.640975
  H      7.240955    0.313840    0.674331
  H      7.776924    1.590223    1.778786
  H      7.836069   -0.321474    5.076805
  H      7.176918    1.283657    4.709626
  H      8.443362    0.580446    3.685532
  H      7.898446   -1.391949    2.153851
  H      6.253418   -2.052319    2.099175
  H      7.275499   -2.315036    3.525808
  H      4.509169   -2.101387   -1.127366
  H      2.818133   -2.592020   -1.276413
  H      3.673446   -2.802145    0.268052

----------------------------
CARTESIAN COORDINATES (A.U.)
----------------------------
  NO LB      ZA    FRAG     MASS         X           Y           Z
   0 C     6.0000    0    12.011   -9.854945    0.447582    0.264691
   1 C     6.0000    0    12.011  -12.427984   -0.480706   -0.550714
   2 C     6.0000    0    12.011  -13.328910    0.841201   -2.967571
   3 H     1.0000    0     1.008  -13.820943   -0.053606    0.940555
   4 H     1.0000    0     1.008  -12.411309   -2.531673   -0.831936
   5 C     6.0000    0    12.011   -9.637848    3.229601    0.411301
   6 C     6.0000    0    12.011  -10.629253    4.612342   -1.884325
   7 C     6.0000    0    12.011  -13.282148    3.701328   -2.622600
   8 H     1.0000    0     1.008   -9.343687    4.244720   -3.477483
   9 H     1.0000    0     1.008  -10.626465    6.654015   -1.546553
  10 H     1.0000    0     1.008  -13.896939    4.625393   -4.372069
  11 H     1.0000    0     1.008  -14.636785    4.212959   -1.129891
  12 O     8.0000    0    15.999  -15.778872   -0.042878   -3.712885
  13 H     1.0000    0     1.008  -12.070709    0.316147   -4.534064
  14 C     6.0000    0    12.011   -7.943873   -1.194666    0.709893
  15 C     6.0000    0    12.011   -8.728393    4.449585    2.430222
  16 H     1.0000    0     1.008   -8.070610    3.432355    4.087837
  17 H     1.0000    0     1.008   -8.640507    6.502239    2.473486
  18 C     6.0000    0    12.011   -5.361880   -0.550808    1.317827
  19 H     1.0000    0     1.008   -8.396843   -3.192028    0.506847
  20 C     6.0000    0    12.011   -3.481039   -2.186785    1.865103
  21 H     1.0000    0     1.008   -4.905529    1.452967    1.298844
  22 C     6.0000    0    12.011   -3.737784   -5.017487    2.053587
  23 C     6.0000    0    12.011   -1.801917   -6.388611    0.365732
  24 H     1.0000    0     1.008   -5.647458   -5.666053    1.604208
  25 H     1.0000    0     1.008   -3.370260   -5.558995    4.030196
  26 C     6.0000    0    12.011    0.909187   -5.446242    0.782717
  27 H     1.0000    0     1.008   -2.336728   -6.132806   -1.621469
  28 H     1.0000    0     1.008   -1.893715   -8.425019    0.742159
  29 C     6.0000    0    12.011    1.110254   -2.567209    0.492218
  30 H     1.0000    0     1.008    2.172027   -6.426975   -0.530523
  31 H     1.0000    0     1.008    1.520168   -5.954791    2.704557
  32 C     6.0000    0    12.011   -0.821864   -1.351961    2.362108
  33 H     1.0000    0     1.008   -0.298520   -2.127500    4.230753
  34 C     6.0000    0    12.011   -0.115846    1.441180    2.374341
  35 H     1.0000    0     1.008  -16.949639    0.395762   -2.381235
  36 C     6.0000    0    12.011    2.804052    1.401421    2.195051
  37 H     1.0000    0     1.008   -0.800558    2.413748    4.068083
  38 H     1.0000    0     1.008   -0.936581    2.411240    0.739482
  39 C     6.0000    0    12.011    3.598710   -1.347970    1.476914
  40 H     1.0000    0     1.008    3.671891    1.972870    3.980403
  41 H     1.0000    0     1.008    3.484641    2.734052    0.761705
  42 H     1.0000    0     1.008    4.086579   -2.381272    3.217119
  43 C     6.0000    0    12.011    5.916445   -1.386770   -0.265609
  44 C     6.0000    0    12.011    0.552735   -1.749252   -2.234724
  45 H     1.0000    0     1.008   -1.424107   -2.090621   -2.737682
  46 H     1.0000    0     1.008    1.737079   -2.792030   -3.573811
  47 H     1.0000    0     1.008    0.918611    0.267244   -2.513717
  48 H     1.0000    0     1.008    5.432115   -0.296435   -1.971572
  49 C     6.0000    0    12.011    6.708070   -4.050146   -1.132952
  50 C     6.0000    0    12.011    8.231742   -0.145741    0.867162
  51 C     6.0000    0    12.011    8.732998    0.205488    3.310096
  52 H     1.0000    0     1.008    9.661341    0.372089   -0.525342
  53 H     1.0000    0     1.008    7.327007   -0.347574    4.714199
  54 C     6.0000    0    12.011   11.115013    1.295328    4.427611
  55 C     6.0000    0    12.011   13.038514    2.163391    2.458252
  56 C     6.0000    0    12.011   12.224525   -0.574454    6.404580
  57 H     1.0000    0     1.008   10.536318    2.973334    5.523159
  58 H     1.0000    0     1.008   10.640544   -1.094836    7.649466
  59 C     6.0000    0    12.011   14.250532    0.663148    8.056862
  60 C     6.0000    0    12.011   13.230815   -3.003169    5.201017
  61 H     1.0000    0     1.008   12.210195    3.592010    1.211267
  62 H     1.0000    0     1.008   13.683423    0.593072    1.274300
  63 H     1.0000    0     1.008   14.696256    3.005086    3.361419
  64 H     1.0000    0     1.008   14.808024   -0.607498    9.593771
  65 H     1.0000    0     1.008   13.562409    2.425760    8.899904
  66 H     1.0000    0     1.008   15.955641    1.096884    6.964646
  67 H     1.0000    0     1.008   14.925901   -2.630401    4.070189
  68 H     1.0000    0     1.008   11.817248   -3.878321    3.966867
  69 H     1.0000    0     1.008   13.748700   -4.374785    6.662811
  70 H     1.0000    0     1.008    8.521094   -3.971045   -2.130413
  71 H     1.0000    0     1.008    5.325500   -4.898207   -2.412071
  72 H     1.0000    0     1.008    6.941808   -5.295286    0.506544

--------------------------------
INTERNAL COORDINATES (ANGSTROEM)
--------------------------------
 C      0   0   0     0.000000000000     0.00000000     0.00000000
 C      1   0   0     1.510440356956     0.00000000     0.00000000
 C      2   1   0     1.533728703673   111.72164064     0.00000000
 H      2   1   3     1.103259169673   109.34931490   241.52021844
 H      2   1   3     1.095515328878   110.71637872   122.90152516
 C      1   2   3     1.478693382122   114.13037008    50.65680278
 C      6   1   2     1.512072898415   114.37306861   311.75647930
 C      3   2   1     1.524684246791   110.35685992   305.06823991
 H      7   6   1     1.100635205563   108.38491511   290.18773208
 H      7   6   1     1.095093199594   110.23232992   172.94137056
 H      8   3   2     1.096368527799   109.68374308   178.99172326
 H      8   3   2     1.100509163021   108.63757430   296.40113385
 O      3   2   1     1.433611565976   111.20330200   180.38570971
 H      3   2   1     1.098938475184   108.98791611    65.17135685
 C      1   2   3     1.354050755082   120.94674757   232.98600037
 C      6   1   2     1.337835858884   123.38643614   129.46981831
 H     16   6   1     1.086441428350   121.39390846     0.73265085
 H     16   6   1     1.087453941739   120.94467086   181.35635728
 C     15   1   2     1.444452237125   126.42970749   175.23389562
 H     15   1   2     1.089111162901   116.18799196   358.01827017
 C     19  15   1     1.350542238007   126.41724396   177.03398182
 H     19  15   1     1.087550256840   115.97398617   356.05172945
 C     21  19  15     1.507395063518   125.78633232   357.31433555
 C     23  21  19     1.540661862737   111.69726705   126.79031885
 H     23  21  19     1.093418445336   112.38484478     2.71027070
 H     23  21  19     1.101818658398   107.77910840   245.37987583
 C     24  23  21     1.534798025364   112.65417513    50.96610486
 H     24  23  21     1.097379600801   109.02412865   288.81204780
 H     24  23  21     1.096952804140   109.14294285   172.87249084
 C     27  24  23     1.534946709411   111.89417234   306.29848676
 H     27  24  23     1.094923731480   108.98082524   182.67390227
 H     27  24  23     1.100560147112   109.14812312    66.21766795
 C     21  19  15     1.498156488687   122.74023662   177.18606083
 H     33  21  19     1.105864505560   106.42533771   124.86998335
 C     33  21  19     1.524567733051   121.11807783     2.40753316
 H     13   3   2     0.966584248061   107.50019332    62.69152465
 C     35  33  21     1.548196789908   103.36420465   195.35226863
 H     35  33  21     1.095215539471   112.20896650    73.59454230
 H     35  33  21     1.095714813825   110.71469245   313.93158268
 C     30  27  24     1.556229652542   115.88855929   166.29484071
 H     37  35  33     1.093129216739   111.25768724   251.27930730
 H     37  35  33     1.096506577268   111.18970373   132.90105031
 H     40  30  27     1.101660309456   105.80753780   321.67185605
 C     40  30  27     1.534594652856   118.00457098    82.57020590
 C     30  27  24     1.535169459897   111.14144135   294.41110244
 H     45  30  27     1.094438297207   111.45342954    67.11034354
 H     45  30  27     1.095180950638   110.86443470   306.96643529
 H     45  30  27     1.094508967334   111.57293979   187.02776322
 H     44  40  30     1.101618785521   107.42498194    62.05848329
 C     44  40  30     1.540308429036   114.12024344   303.16919651
 C     44  40  30     1.513846774352   113.77259110   179.78856864
 C     51  44  40     1.332701619038   127.27795108    23.09959283
 H     51  44  40     1.091050596513   113.74672570   198.51714063
 H     52  51  44     1.091464739144   119.16148159   356.55367196
 C     52  51  44     1.507048772730   126.90407251   175.86179107
 C     55  52  51     1.527458656647   113.87433096     2.91835766
 C     55  52  51     1.555052818209   109.65111399   234.52349174
 H     55  52  51     1.103790267188   106.37369871   121.17742475
 H     57  55  52     1.101087165615   105.91480054   310.64095580
 C     57  55  52     1.530630272726   112.11804387   193.83988710
 C     57  55  52     1.530030719563   112.69545403    68.14412170
 H     56  55  52     1.095030875010   110.61090785    58.31652057
 H     56  55  52     1.095224554081   111.70082507   298.38063338
 H     56  55  52     1.093780941231   111.02633629   177.76429118
 H     60  57  55     1.095719871039   110.48856383   172.14958527
 H     60  57  55     1.096180807692   111.33818074    52.10270435
 H     60  57  55     1.095851949483   111.41160650   291.39793388
 H     61  57  55     1.096181720484   111.15408049    68.73592280
 H     61  57  55     1.095689643659   111.44130371   308.18498268
 H     61  57  55     1.095585230448   110.46596723   187.92709163
 H     50  44  40     1.095823671934   110.28482157   188.36365949
 H     50  44  40     1.093087521977   112.21923931    68.33735892
 H     50  44  40     1.096426088565   110.16793050   307.21490005

---------------------------
INTERNAL COORDINATES (A.U.)
---------------------------
 C      0   0   0     0.000000000000     0.00000000     0.00000000
 C      1   0   0     2.854318616269     0.00000000     0.00000000
 C      2   1   0     2.898327213676   111.72164064     0.00000000
 H      2   1   3     2.084857685419   109.34931490   241.52021844
 H      2   1   3     2.070223947093   110.71637872   122.90152516
 C      1   2   3     2.794325528251   114.13037008    50.65680278
 C      6   1   2     2.857403672530   114.37306861   311.75647930
 C      3   2   1     2.881235667139   110.35685992   305.06823991
 H      7   6   1     2.079899111866   108.38491511   290.18773208
 H      7   6   1     2.069426238353   110.23232992   172.94137056
 H      8   3   2     2.071836259390   109.68374308   178.99172326
 H      8   3   2     2.079660925981   108.63757430   296.40113385
 O      3   2   1     2.709133242116   111.20330200   180.38570971
 H      3   2   1     2.076692756127   108.98791611    65.17135685
 C      1   2   3     2.558785098535   120.94674757   232.98600037
 C      6   1   2     2.528143385431   123.38643614   129.46981831
 H     16   6   1     2.053076760129   121.39390846     0.73265085
 H     16   6   1     2.054990133140   120.94467086   181.35635728
 C     15   1   2     2.729619141697   126.42970749   175.23389562
 H     15   1   2     2.058121827280   116.18799196   358.01827017
 C     19  15   1     2.552154962126   126.41724396   177.03398182
 H     19  15   1     2.055172142303   115.97398617   356.05172945
 C     21  19  15     2.848563845674   125.78633232   357.31433555
 C     23  21  19     2.911428985549   111.69726705   126.79031885
 H     23  21  19     2.066261411463   112.38484478     2.71027070
 H     23  21  19     2.082135513616   107.77910840   245.37987583
 C     24  23  21     2.900347938822   112.65417513    50.96610486
 H     24  23  21     2.073746910465   109.02412865   288.81204780
 H     24  23  21     2.072940381661   109.14294285   172.87249084
 C     27  24  23     2.900628910950   111.89417234   306.29848676
 H     27  24  23     2.069105990029   108.98082524   182.67390227
 H     27  24  23     2.079757271949   109.14812312    66.21766795
 C     21  19  15     2.831105469376   122.74023662   177.18606083
 H     33  21  19     2.089781056733   106.42533771   124.86998335
 C     33  21  19     2.881015488080   121.11807783     2.40753316
 H     13   3   2     1.826579514197   107.50019332    62.69152465
 C     35  33  21     2.925667934343   103.36420465   195.35226863
 H     35  33  21     2.069657427216   112.20896650    73.59454230
 H     35  33  21     2.070600919010   110.71469245   313.93158268
 C     30  27  24     2.940847844791   115.88855929   166.29484071
 H     37  35  33     2.065714848624   111.25768724   251.27930730
 H     37  35  33     2.072097135080   111.18970373   132.90105031
 H     40  30  27     2.081836277483   105.80753780   321.67185605
 C     40  30  27     2.899963620477   118.00457098    82.57020590
 C     30  27  24     2.901049848365   111.14144135   294.41110244
 H     45  30  27     2.068188652197   111.45342954    67.11034354
 H     45  30  27     2.069592063793   110.86443470   306.96643529
 H     45  30  27     2.068322199382   111.57293979   187.02776322
 H     44  40  30     2.081757808617   107.42498194    62.05848329
 C     44  40  30     2.910761092649   114.12024344   303.16919651
 C     44  40  30     2.860755812245   113.77259110   179.78856864
 C     51  44  40     2.518441078216   127.27795108    23.09959283
 H     51  44  40     2.061786825660   113.74672570   198.51714063
 H     52  51  44     2.062569441814   119.16148159   356.55367196
 C     52  51  44     2.847909450921   126.90407251   175.86179107
 C     55  52  51     2.886478541950   113.87433096     2.91835766
 C     55  52  51     2.938623950198   109.65111399   234.52349174
 H     55  52  51     2.085861314273   106.37369871   121.17742475
 H     57  55  52     2.080753192588   105.91480054   310.64095580
 C     57  55  52     2.892472027741   112.11804387   193.83988710
 C     57  55  52     2.891339036460   112.69545403    68.14412170
 H     56  55  52     2.069308461956   110.61090785    58.31652057
 H     56  55  52     2.069674462360   111.70082507   298.38063338
 H     56  55  52     2.066946429428   111.02633629   177.76429118
 H     60  57  55     2.070610475759   110.48856383   172.14958527
 H     60  57  55     2.071481519799   111.33818074    52.10270435
 H     60  57  55     2.070860067846   111.41160650   291.39793388
 H     61  57  55     2.071483244725   111.15408049    68.73592280
 H     61  57  55     2.070553354289   111.44130371   308.18498268
 H     61  57  55     2.070356041915   110.46596723   187.92709163
 H     50  44  40     2.070806631023   110.28482157   188.36365949
 H     50  44  40     2.065636056944   112.21923931    68.33735892
 H     50  44  40     2.071945033474   110.16793050   307.21490005

---------------------
BASIS SET INFORMATION
---------------------
There are 3 groups of distinct atoms

 Group   1 Type C   : 8s5p1d contracted to 3s3p1d pattern {521/311/1}
 Group   2 Type H   : 4s2p contracted to 2s1p pattern {31/2}
 Group   3 Type O   : 8s5p1d contracted to 3s3p1d pattern {521/311/1}

Atom   0C    basis set group =>   1
Atom   1C    basis set group =>   1
Atom   2C    basis set group =>   1
Atom   3H    basis set group =>   2
Atom   4H    basis set group =>   2
Atom   5C    basis set group =>   1
Atom   6C    basis set group =>   1
Atom   7C    basis set group =>   1
Atom   8H    basis set group =>   2
Atom   9H    basis set group =>   2
Atom  10H    basis set group =>   2
Atom  11H    basis set group =>   2
Atom  12O    basis set group =>   3
Atom  13H    basis set group =>   2
Atom  14C    basis set group =>   1
Atom  15C    basis set group =>   1
Atom  16H    basis set group =>   2
Atom  17H    basis set group =>   2
Atom  18C    basis set group =>   1
Atom  19H    basis set group =>   2
Atom  20C    basis set group =>   1
Atom  21H    basis set group =>   2
Atom  22C    basis set group =>   1
Atom  23C    basis set group =>   1
Atom  24H    basis set group =>   2
Atom  25H    basis set group =>   2
Atom  26C    basis set group =>   1
Atom  27H    basis set group =>   2
Atom  28H    basis set group =>   2
Atom  29C    basis set group =>   1
Atom  30H    basis set group =>   2
Atom  31H    basis set group =>   2
Atom  32C    basis set group =>   1
Atom  33H    basis set group =>   2
Atom  34C    basis set group =>   1
Atom  35H    basis set group =>   2
Atom  36C    basis set group =>   1
Atom  37H    basis set group =>   2
Atom  38H    basis set group =>   2
Atom  39C    basis set group =>   1
Atom  40H    basis set group =>   2
Atom  41H    basis set group =>   2
Atom  42H    basis set group =>   2
Atom  43C    basis set group =>   1
Atom  44C    basis set group =>   1
Atom  45H    basis set group =>   2
Atom  46H    basis set group =>   2
Atom  47H    basis set group =>   2
Atom  48H    basis set group =>   2
Atom  49C    basis set group =>   1
Atom  50C    basis set group =>   1
Atom  51C    basis set group =>   1
Atom  52H    basis set group =>   2
Atom  53H    basis set group =>   2
Atom  54C    basis set group =>   1
Atom  55C    basis set group =>   1
Atom  56C    basis set group =>   1
Atom  57H    basis set group =>   2
Atom  58H    basis set group =>   2
Atom  59C    basis set group =>   1
Atom  60C    basis set group =>   1
Atom  61H    basis set group =>   2
Atom  62H    basis set group =>   2
Atom  63H    basis set group =>   2
Atom  64H    basis set group =>   2
Atom  65H    basis set group =>   2
Atom  66H    basis set group =>   2
Atom  67H    basis set group =>   2
Atom  68H    basis set group =>   2
Atom  69H    basis set group =>   2
Atom  70H    basis set group =>   2
Atom  71H    basis set group =>   2
Atom  72H    basis set group =>   2

-------------------------
BASIS SET IN INPUT FORMAT
-------------------------

 # Basis set for element : H 
 NewGTO H 
 S 3 
   1      12.2518000000      0.0372173893
   2       1.8687100000      0.2538082070
   3       0.4182080000      0.7973867639
 S 1 
   1       0.1061000000      1.0000000000
 P 2 
   1       9.0000000000      0.0402678705
   2       1.0000000000      0.9880231245
  end;

 # Basis set for element : C 
 NewGTO C 
 S 5 
   1    1243.2000000000      0.0056300977
   2     187.1450000000      0.0419506039
   3      42.5126000000      0.1846643605
   4      11.7393000000      0.4665574214
   5       3.5054800000      0.4482347783
 S 2 
   1       5.3908900000     -0.1481148174
   2       0.4933410000      1.0519817143
 S 1 
   1       0.1497410000      1.0000000000
 P 3 
   1      59.6736000000      0.0113906672
   2       9.1805600000      0.1672414929
   3       1.9365800000      0.9041087436
 P 1 
   1       0.5262960000      1.0000000000
 P 1 
   1       0.1363190000      1.0000000000
 D 1 
   1       0.8000000000      1.0000000000
  end;

 # Basis set for element : O 
 NewGTO O 
 S 5 
   1    2288.6400000000      0.0054511382
   2     344.4160000000      0.0407189228
   3      78.2538000000      0.1813694209
   4      21.7195000000      0.4655368202
   5       6.5590700000      0.4512113212
 S 2 
   1      10.4656000000     -0.1502112012
   2       0.9643510000      1.0528679834
 S 1 
   1       0.2851270000      1.0000000000
 P 3 
   1     110.8840000000      0.0113058003
   2      17.0590000000      0.1699226452
   3       3.6899900000      0.9008060328
 P 1 
   1       0.9929960000      1.0000000000
 P 1 
   1       0.2449240000      1.0000000000
 D 1 
   1       1.0000000000      1.0000000000
  end;

---------------------------------
AUXILIARY/J BASIS SET INFORMATION
---------------------------------
There are 3 groups of distinct atoms

 Group   1 Type C   : 12s5p4d2f1g contracted to 6s4p3d1f1g pattern {711111/2111/211/2/1}
 Group   2 Type H   : 5s2p1d contracted to 3s1p1d pattern {311/2/1}
 Group   3 Type O   : 12s5p4d2f1g contracted to 6s4p3d1f1g pattern {711111/2111/211/2/1}

Atom   0C    basis set group =>   1
Atom   1C    basis set group =>   1
Atom   2C    basis set group =>   1
Atom   3H    basis set group =>   2
Atom   4H    basis set group =>   2
Atom   5C    basis set group =>   1
Atom   6C    basis set group =>   1
Atom   7C    basis set group =>   1
Atom   8H    basis set group =>   2
Atom   9H    basis set group =>   2
Atom  10H    basis set group =>   2
Atom  11H    basis set group =>   2
Atom  12O    basis set group =>   3
Atom  13H    basis set group =>   2
Atom  14C    basis set group =>   1
Atom  15C    basis set group =>   1
Atom  16H    basis set group =>   2
Atom  17H    basis set group =>   2
Atom  18C    basis set group =>   1
Atom  19H    basis set group =>   2
Atom  20C    basis set group =>   1
Atom  21H    basis set group =>   2
Atom  22C    basis set group =>   1
Atom  23C    basis set group =>   1
Atom  24H    basis set group =>   2
Atom  25H    basis set group =>   2
Atom  26C    basis set group =>   1
Atom  27H    basis set group =>   2
Atom  28H    basis set group =>   2
Atom  29C    basis set group =>   1
Atom  30H    basis set group =>   2
Atom  31H    basis set group =>   2
Atom  32C    basis set group =>   1
Atom  33H    basis set group =>   2
Atom  34C    basis set group =>   1
Atom  35H    basis set group =>   2
Atom  36C    basis set group =>   1
Atom  37H    basis set group =>   2
Atom  38H    basis set group =>   2
Atom  39C    basis set group =>   1
Atom  40H    basis set group =>   2
Atom  41H    basis set group =>   2
Atom  42H    basis set group =>   2
Atom  43C    basis set group =>   1
Atom  44C    basis set group =>   1
Atom  45H    basis set group =>   2
Atom  46H    basis set group =>   2
Atom  47H    basis set group =>   2
Atom  48H    basis set group =>   2
Atom  49C    basis set group =>   1
Atom  50C    basis set group =>   1
Atom  51C    basis set group =>   1
Atom  52H    basis set group =>   2
Atom  53H    basis set group =>   2
Atom  54C    basis set group =>   1
Atom  55C    basis set group =>   1
Atom  56C    basis set group =>   1
Atom  57H    basis set group =>   2
Atom  58H    basis set group =>   2
Atom  59C    basis set group =>   1
Atom  60C    basis set group =>   1
Atom  61H    basis set group =>   2
Atom  62H    basis set group =>   2
Atom  63H    basis set group =>   2
Atom  64H    basis set group =>   2
Atom  65H    basis set group =>   2
Atom  66H    basis set group =>   2
Atom  67H    basis set group =>   2
Atom  68H    basis set group =>   2
Atom  69H    basis set group =>   2
Atom  70H    basis set group =>   2
Atom  71H    basis set group =>   2
Atom  72H    basis set group =>   2

-------------------------------------
AUXILIARY/J BASIS SET IN INPUT FORMAT
-------------------------------------

 # Auxiliary/J basis set for element : H 
 NewAuxJGTO H 
 S 3 
   1      15.6752927000      0.1007184237
   2       3.6063578000      0.3404257499
   3       1.2080016000      0.6491996172
 S 1 
   1       0.4726794000      1.0000000000
 S 1 
   1       0.2018100000      1.0000000000
 P 2 
   1       2.0281365000      0.5596620919
   2       0.5358730000      0.5596620919
 D 1 
   1       2.2165124000      1.0000000000
  end;

 # Auxiliary/J basis set for element : C 
 NewAuxJGTO C 
 S 7 
   1    1861.0916331000      0.0134602335
   2     642.9939764000      0.0299160374
   3     235.1105725000      0.1008649584
   4      90.7028894000      0.2370970548
   5      36.7794552000      0.3924037254
   6      15.6046273000      0.3195862154
   7       6.8907294000      0.0530104441
 S 1 
   1       3.1478850000     -1.0000000000
 S 1 
   1       1.4777287000      1.0000000000
 S 1 
   1       0.7076466000      1.0000000000
 S 1 
   1       0.3430122000      1.0000000000
 S 1 
   1       0.1669453000      1.0000000000
 P 2 
   1      13.5472892000     -0.6769313712
   2       5.4669419000     -0.3779500978
 P 1 
   1       2.1751721000      1.0000000000
 P 1 
   1       0.8582194000      1.0000000000
 P 1 
   1       0.3376720000      1.0000000000
 D 2 
   1       5.9287253000     -0.3533329857
   2       1.9809209000     -0.7456525731
 D 1 
   1       0.8055417000     -1.0000000000
 D 1 
   1       0.3531244000     -1.0000000000
 F 2 
   1       1.6755626000      0.6311076882
   2       0.5997536000      0.4968166032
 G 1 
   1       1.0024600000     -1.0000000000
  end;

 # Auxiliary/J basis set for element : O 
 NewAuxJGTO O 
 S 7 
   1    2876.8216605000      0.0168151159
   2    1004.7443032000      0.0340137548
   3     369.7579954000      0.1194951309
   4     142.9442404000      0.2664627624
   5      57.8366425000      0.4202764046
   6      24.3864983000      0.2765077335
   7      10.6622662000      0.0057008815
 S 1 
   1       4.8070437000     -1.0000000000
 S 1 
   1       2.2210770000      1.0000000000
 S 1 
   1       1.0447795000      1.0000000000
 S 1 
   1       0.4968425000      1.0000000000
 S 1 
   1       0.2371384000      1.0000000000
 P 2 
   1      64.2613382000     -0.2731534179
   2      16.3006076000     -0.8168011598
 P 1 
   1       4.3550542000      1.0000000000
 P 1 
   1       1.2019554000      1.0000000000
 P 1 
   1       0.3354196000      1.0000000000
 D 2 
   1       9.2146611000     -0.4661230638
   2       2.8435251000     -0.6600908911
 D 1 
   1       0.9955759000     -1.0000000000
 D 1 
   1       0.3649441000     -1.0000000000
 F 2 
   1       2.6420115000      0.5931563945
   2       0.7345613000      0.5931563945
 G 1 
   1       1.3931000000     -1.0000000000
  end;



           ************************************************************
           *        Program running with 4 parallel MPI-processes     *
           *              working on a common directory               *
           ************************************************************
------------------------------------------------------------------------------
                           ORCA GTO INTEGRAL CALCULATION
                           -- RI-GTO INTEGRALS CHOSEN --
------------------------------------------------------------------------------
------------------------------------------------------------------------------
                   ___                                                        
                  /   \      - P O W E R E D   B Y -                         
                 /     \                                                     
                 |  |  |   _    _      __       _____    __    __             
                 |  |  |  | |  | |    /  \     |  _  \  |  |  /  |          
                  \  \/   | |  | |   /    \    | | | |  |  | /  /          
                 / \  \   | |__| |  /  /\  \   | |_| |  |  |/  /          
                |  |  |   |  __  | /  /__\  \  |    /   |      \           
                |  |  |   | |  | | |   __   |  |    \   |  |\   \          
                \     /   | |  | | |  |  |  |  | |\  \  |  | \   \       
                 \___/    |_|  |_| |__|  |__|  |_| \__\ |__|  \__/        
                                                                              
                      - O R C A' S   B I G   F R I E N D -                    
                                      &                                       
                       - I N T E G R A L  F E E D E R -                       
                                                                              
 v1 FN, 2020, v2 2021                                                         
------------------------------------------------------------------------------


Reading SHARK input file inpS.SHARKINP.tmp ... ok
----------------------
SHARK INTEGRAL PACKAGE
----------------------

Number of atoms                             ...     73
Number of basis functions                   ...    713
Number of shells                            ...    335
Maximum angular momentum                    ...      2
Integral batch strategy                     ... SHARK/LIBINT Hybrid
RI-J (if used) integral strategy            ... SPLIT-RIJ (Revised 2003 algorithm where possible)
Printlevel                                  ...      1
Contraction scheme used                     ... SEGMENTED contraction
Coulomb Range Separation                    ... NOT USED
Exchange Range Separation                   ... NOT USED
Finite Nucleus Model                        ... NOT USED
Auxiliary Coulomb fitting basis             ... AVAILABLE
   # of basis functions in Aux-J            ...   1905
   # of shells in Aux-J                     ...    655
   Maximum angular momentum in Aux-J        ...      4
Auxiliary J/K fitting basis                 ... NOT available
Auxiliary Correlation fitting basis         ... NOT available
Auxiliary 'external' fitting basis          ... NOT available
Integral threshold                          ...     3.000000e-11
Primitive cut-off                           ...     1.000000e-12
Primitive pair pre-selection threshold      ...     1.000000e-12

Calculating pre-screening integrals         ... done (  0.1 sec) Dimension = 335
Organizing shell pair data                  ... done (  0.2 sec)
Shell pair information
Total number of shell pairs                 ...     56280
Shell pairs after pre-screening             ...     31495
Total number of primitive shell pairs       ...    225367
Primitive shell pairs kept                  ...     74255
          la=0 lb=0:   9624 shell pairs
          la=1 lb=0:  12929 shell pairs
          la=1 lb=1:   4238 shell pairs
          la=2 lb=0:   2759 shell pairs
          la=2 lb=1:   1749 shell pairs
          la=2 lb=2:    196 shell pairs

Calculating one electron integrals          ... done (  0.1 sec)
Calculating RI/J V-Matrix + Cholesky decomp.... done (  0.2 sec)
Calculating Nuclear repulsion               ... done (  0.0 sec) ENN=   2768.648229364842 Eh

SHARK setup successfully completed in   0.8 seconds

Maximum memory used throughout the entire GTOINT-calculation: 61.1 MB


           ************************************************************
           *        Program running with 4 parallel MPI-processes     *
           *              working on a common directory               *
           ************************************************************
-------------------------------------------------------------------------------
                                 ORCA SCF
-------------------------------------------------------------------------------

------------
SCF SETTINGS
------------
Hamiltonian:
 Density Functional     Method          .... DFT(GTOs)
 Exchange Functional    Exchange        .... revTPSS
 Correlation Functional Correlation     .... revTPSS
 LDA part of GGA corr.  LDAOpt          .... PW91-LDA
 Gradients option       PostSCFGGA      .... off
   Density functional embedding theory  .... OFF
 RI-approximation to the Coulomb term is turned on
   Number of AuxJ basis functions       .... 1905


General Settings:
 Integral files         IntName         .... inpS
 Hartree-Fock type      HFTyp           .... RHF
 Total Charge           Charge          ....    0
 Multiplicity           Mult            ....    1
 Number of Electrons    NEL             ....  220
 Basis Dimension        Dim             ....  713
 Nuclear Repulsion      ENuc            ....   2768.6482293648 Eh

Convergence Acceleration:
 DIIS                   CNVDIIS         .... on
   Start iteration      DIISMaxIt       ....    12
   Startup error        DIISStart       ....  0.200000
   # of expansion vecs  DIISMaxEq       ....     5
   Bias factor          DIISBfac        ....   1.050
   Max. coefficient     DIISMaxC        ....  10.000
 Trust-Rad. Augm. Hess. CNVTRAH         .... auto
   Auto Start mean grad. ratio tolernc. ....  1.125000
   Auto Start start iteration           ....    20
   Auto Start num. interpolation iter.  ....    10
   Max. Number of Micro iterations      ....    16
   Max. Number of Macro iterations      .... Maxiter - #DIIS iter
   Number of Davidson start vectors     ....     2
   Converg. threshold I  (grad. norm)   ....   1.000e-04
   Converg. threshold II (energy diff.) ....   1.000e-07
   Grad. Scal. Fac. for Micro threshold ....   0.100
   Minimum threshold for Micro iter.    ....   0.010
   NR start threshold (gradient norm)   ....   0.001
   Initial trust radius                 ....   0.400
   Minimum AH scaling param. (alpha)    ....   1.000
   Maximum AH scaling param. (alpha)    .... 1000.000
   Orbital update algorithm             .... Taylor
   White noise on init. David. guess    .... on
   Maximum white noise                  ....   0.010
   Quad. conv. algorithm                .... NR
 SOSCF                  CNVSOSCF        .... off
 Level Shifting         CNVShift        .... on
   Level shift para.    LevelShift      ....    0.2500
   Turn off err/grad.   ShiftErr        ....    0.0010
 Zerner damping         CNVZerner       .... off
 Static damping         CNVDamp         .... on
   Fraction old density DampFac         ....    0.7000
   Max. Damping (<1)    DampMax         ....    0.9800
   Min. Damping (>=0)   DampMin         ....    0.0000
   Turn off err/grad.   DampErr         ....    0.1000
 Fernandez-Rico         CNVRico         .... off

SCF Procedure:
 Maximum # iterations   MaxIter         ....   125
 SCF integral mode      SCFMode         .... Direct
   Integral package                     .... SHARK and LIBINT hybrid scheme
 Reset frequency        DirectResetFreq ....    20
 Integral Threshold     Thresh          ....  3.000e-11 Eh
 Primitive CutOff       TCut            ....  1.000e-12 Eh

Convergence Tolerance:
 Convergence Check Mode ConvCheckMode   .... Total+1el-Energy
 Convergence forced     ConvForced      .... 0
 Energy Change          TolE            ....  1.000e-07 Eh
 1-El. energy change                    ....  1.000e-04 Eh
 DIIS Error             TolErr          ....  1.000e-07


Diagonalization of the overlap matrix:
Smallest eigenvalue                        ... 4.967e-04
Time for diagonalization                   ...    0.070 sec
Threshold for overlap eigenvalues          ... 1.000e-08
Number of eigenvalues below threshold      ... 0
Time for construction of square roots      ...    0.055 sec
Total time needed                          ...    0.127 sec

Time for model grid setup =    0.866 sec

------------------------------
INITIAL GUESS: MODEL POTENTIAL
------------------------------
Loading Hartree-Fock densities                     ... done
Calculating cut-offs                               ... done
Initializing the effective Hamiltonian             ... done
Setting up the integral package (SHARK)            ... done
Starting the Coulomb interaction                   ... done (   0.7 sec)
Reading the grid                                   ... done
Mapping shells                                     ... done
Starting the XC term evaluation                    ... done (   0.3 sec)
  promolecular density results
     # of electrons  =    219.981540828
     EX              =   -164.434238177
     EC              =     -7.326797658
     EX+EC           =   -171.761035835
Transforming the Hamiltonian                       ... done (   0.1 sec)
Diagonalizing the Hamiltonian                      ... done (   0.1 sec)
Back transforming the eigenvectors                 ... done (   0.0 sec)
Now organizing SCF variables                       ... done
                      ------------------
                      INITIAL GUESS DONE (   2.1 sec)
                      ------------------
-------------------
DFT GRID GENERATION
-------------------

General Integration Accuracy     IntAcc      ... 4.388
Radial Grid Type                 RadialGrid  ... OptM3 with GC (2021)
Angular Grid (max. ang.)         AngularGrid ... 4 (Lebedev-302)
Angular grid pruning method      GridPruning ... 4 (adaptive)
Weight generation scheme         WeightScheme... Becke
Basis function cutoff            BFCut       ... 1.0000e-11
Integration weight cutoff        WCut        ... 1.0000e-14
Angular grids for H and He will be reduced by one unit
Partially contracted basis set               ... off
Rotationally invariant grid construction     ... off

Total number of grid points                  ...   309977
Total number of batches                      ...     4880
Average number of points per batch           ...       63
Average number of grid points per atom       ...     4246
Time for grid setup =    3.127 sec


--------------------
CPCM SOLVATION MODEL
--------------------
CPCM parameters:
  Epsilon                                         ...       4.9000
  Refrac                                          ...       1.4500
  Rsolv                                           ...       1.3000
  Surface type                                    ... GAUSSIAN VDW
  Epsilon function type                           ...         CPCM
Radii:
 Radius for C  used is    3.8550 Bohr (=   2.0400 Ang.)
 Radius for H  used is    2.4944 Bohr (=   1.3200 Ang.)
 Radius for O  used is    3.4469 Bohr (=   1.8240 Ang.)
Calculating surface                               ...        done! (  0.0s)
GEPOL surface points                              ...         3640
GEPOL Volume                                      ...    3596.3646
GEPOL Surface-area                                ...    1785.9708
Calculating surface distance matrix               ...        done! (  0.1s)
Performing Cholesky decomposition & store         ...        done! (  0.5s)
Overall time for CPCM initialization              ...                 0.6s
--------------
SCF ITERATIONS
--------------
ITER       Energy         Delta-E        Max-DP      RMS-DP      [F,P]     Damp
               ***  Starting incremental Fock matrix formation  ***

  HOMO= 109 E= -1.872 eV LUMO=  7.838 eV gap=   9.710 eV
  0  -1167.5218469088   0.000000000000 0.05267761  0.00083497  0.2596445 0.7000

  HOMO= 109 E= -3.347 eV LUMO=  6.725 eV gap=  10.072 eV
  1  -1167.8955320300  -0.373685121211 0.02890586  0.00061602  0.1007660 0.7000
                               ***Turning on DIIS***

  HOMO= 109 E= -4.321 eV LUMO=  5.834 eV gap=  10.155 eV
  2  -1168.0418525494  -0.146320519397 0.05198443  0.00101390  0.0302174 0.0000

  HOMO= 109 E= -4.949 eV LUMO=  5.242 eV gap=  10.191 eV
  3  -1168.2392533478  -0.197400798434 0.02311891  0.00047547  0.0526046 0.0000

  HOMO= 109 E= -4.988 eV LUMO=  5.204 eV gap=  10.192 eV
  4  -1168.3063159626  -0.067062614811 0.00746567  0.00015206  0.0102811 0.0000

  HOMO= 109 E= -4.937 eV LUMO=  5.261 eV gap=  10.199 eV
  5  -1168.3093719786  -0.003056015976 0.00306218  0.00005662  0.0090180 0.0000

  HOMO= 109 E= -4.918 eV LUMO=  5.278 eV gap=  10.196 eV
  6  -1168.3096323538  -0.000260375213 0.00124838  0.00001913  0.0029339 0.0000

  HOMO= 109 E= -4.920 eV LUMO= -1.527 eV gap=   3.393 eV
  7  -1168.3096528527  -0.000020498865 0.00072713  0.00001158  0.0005443 0.0000

  HOMO= 109 E= -4.918 eV LUMO= -1.525 eV gap=   3.393 eV
  8  -1168.3096557318  -0.000002879056 0.00026976  0.00000295  0.0003852 0.0000

  HOMO= 109 E= -4.916 eV LUMO= -1.523 eV gap=   3.393 eV
  9  -1168.3096563750  -0.000000643262 0.00017011  0.00000157  0.0002630 0.0000

  HOMO= 109 E= -4.917 eV LUMO= -1.524 eV gap=   3.393 eV
 10  -1168.3096566394  -0.000000264396 0.00005820  0.00000069  0.0001054 0.0000

  HOMO= 109 E= -4.917 eV LUMO= -1.524 eV gap=   3.393 eV
 11  -1168.3096566759  -0.000000036473 0.00002293  0.00000025  0.0000293 0.0000

  HOMO= 109 E= -4.917 eV LUMO= -1.524 eV gap=   3.393 eV
 12  -1168.3096566652   0.000000010705 0.00000895  0.00000011  0.0000155 0.0000

  HOMO= 109 E= -4.917 eV LUMO= -1.524 eV gap=   3.393 eV
 13  -1168.3096566843  -0.000000019095 0.00000486  0.00000005  0.0000087 0.0000
                 **** Energy Check signals convergence ****

               *****************************************************
               *                     SUCCESS                       *
               *           SCF CONVERGED AFTER  14 CYCLES          *
               *****************************************************


----------------
TOTAL SCF ENERGY
----------------

Total Energy       :        -1168.30965668 Eh          -31791.32200 eV

Components:
Nuclear Repulsion  :         2768.64822936 Eh           75338.74847 eV
Electronic Energy  :        -3936.95788605 Eh         -107130.07047 eV
One Electron Energy:        -7083.70974660 Eh         -192757.54181 eV
Two Electron Energy:         3146.75186056 Eh           85627.47134 eV
CPCM Dielectric    :           -0.01045218 Eh              -0.28442 eV

Virial components:
Potential Energy   :        -2330.41061897 Eh          -63413.69683 eV
Kinetic Energy     :         1162.10096228 Eh           31622.37483 eV
Virial Ratio       :            2.00534265


DFT components:
N(Alpha)           :      110.000101381373 electrons
N(Beta)            :      110.000101381373 electrons
N(Total)           :      220.000202762746 electrons
E(X)               :     -169.584739167491 Eh       
E(C)               :       -7.443412467156 Eh       
E(XC)              :     -177.028151634648 Eh       
DFET-embed. en.    :        0.000000000000 Eh       
CPCM Solvation Model Properties:
Surface-charge          :           -0.04524175
Charge-correction       :           -0.00002773 Eh              -0.00075 eV
Free-energy (cav+disp)  :  This term is not implemented in the current solvation scheme

---------------
SCF CONVERGENCE
---------------

  Last Energy change         ...    1.0398e-09  Tolerance :   1.0000e-07
  Last MAX-Density change    ...    2.6722e-06  Tolerance :   1.0000e-05
  Last RMS-Density change    ...    2.4194e-08  Tolerance :   1.0000e-06
  Last DIIS Error            ...    2.9854e-06  Tolerance :   1.0000e-07

             **** THE GBW FILE WAS UPDATED (inpS.gbw) ****
             **** DENSITY inpS.scfp WAS UPDATED ****
             **** ENERGY FILE WAS UPDATED (inpS.en.tmp) ****
             **** THE GBW FILE WAS UPDATED (inpS.gbw) ****
             **** DENSITY inpS.scfp WAS UPDATED ****
----------------
ORBITAL ENERGIES
----------------

  NO   OCC          E(Eh)            E(eV) 
   0   2.0000     -18.905519      -514.4453 
   1   2.0000     -10.056984      -273.6644 
   2   2.0000     -10.015798      -272.5437 
   3   2.0000     -10.013393      -272.4783 
   4   2.0000     -10.013278      -272.4751 
   5   2.0000     -10.011412      -272.4244 
   6   2.0000     -10.011277      -272.4207 
   7   2.0000     -10.010141      -272.3898 
   8   2.0000     -10.010141      -272.3898 
   9   2.0000     -10.008188      -272.3366 
  10   2.0000     -10.008002      -272.3316 
  11   2.0000     -10.007734      -272.3243 
  12   2.0000     -10.006675      -272.2955 
  13   2.0000     -10.006490      -272.2904 
  14   2.0000     -10.005287      -272.2577 
  15   2.0000     -10.004664      -272.2408 
  16   2.0000     -10.004125      -272.2261 
  17   2.0000     -10.000901      -272.1384 
  18   2.0000      -9.999985      -272.1134 
  19   2.0000      -9.998652      -272.0772 
  20   2.0000      -9.998288      -272.0673 
  21   2.0000      -9.998273      -272.0668 
  22   2.0000      -9.998230      -272.0657 
  23   2.0000      -9.997225      -272.0383 
  24   2.0000      -9.996327      -272.0139 
  25   2.0000      -9.995965      -272.0040 
  26   2.0000      -9.995860      -272.0012 
  27   2.0000      -9.994526      -271.9649 
  28   2.0000      -9.993920      -271.9484 
  29   2.0000      -0.955790       -26.0084 
  30   2.0000      -0.806994       -21.9594 
  31   2.0000      -0.790911       -21.5218 
  32   2.0000      -0.770314       -20.9613 
  33   2.0000      -0.756233       -20.5782 
  34   2.0000      -0.733970       -19.9723 
  35   2.0000      -0.727341       -19.7919 
  36   2.0000      -0.708331       -19.2747 
  37   2.0000      -0.707878       -19.2624 
  38   2.0000      -0.693418       -18.8689 
  39   2.0000      -0.675202       -18.3732 
  40   2.0000      -0.656312       -17.8592 
  41   2.0000      -0.651295       -17.7226 
  42   2.0000      -0.634758       -17.2726 
  43   2.0000      -0.628642       -17.1062 
  44   2.0000      -0.623165       -16.9572 
  45   2.0000      -0.616027       -16.7629 
  46   2.0000      -0.597882       -16.2692 
  47   2.0000      -0.589625       -16.0445 
  48   2.0000      -0.559000       -15.2112 
  49   2.0000      -0.548841       -14.9347 
  50   2.0000      -0.547270       -14.8920 
  51   2.0000      -0.536595       -14.6015 
  52   2.0000      -0.526049       -14.3145 
  53   2.0000      -0.507753       -13.8167 
  54   2.0000      -0.493283       -13.4229 
  55   2.0000      -0.473210       -12.8767 
  56   2.0000      -0.467111       -12.7107 
  57   2.0000      -0.463314       -12.6074 
  58   2.0000      -0.451111       -12.2753 
  59   2.0000      -0.445471       -12.1219 
  60   2.0000      -0.431081       -11.7303 
  61   2.0000      -0.429065       -11.6754 
  62   2.0000      -0.425450       -11.5771 
  63   2.0000      -0.415366       -11.3027 
  64   2.0000      -0.413514       -11.2523 
  65   2.0000      -0.412240       -11.2176 
  66   2.0000      -0.401274       -10.9192 
  67   2.0000      -0.395604       -10.7649 
  68   2.0000      -0.395355       -10.7581 
  69   2.0000      -0.393398       -10.7049 
  70   2.0000      -0.387657       -10.5487 
  71   2.0000      -0.381704       -10.3867 
  72   2.0000      -0.378345       -10.2953 
  73   2.0000      -0.372235       -10.1290 
  74   2.0000      -0.370418       -10.0796 
  75   2.0000      -0.361826        -9.8458 
  76   2.0000      -0.358082        -9.7439 
  77   2.0000      -0.357170        -9.7191 
  78   2.0000      -0.352728        -9.5982 
  79   2.0000      -0.352031        -9.5793 
  80   2.0000      -0.346263        -9.4223 
  81   2.0000      -0.344747        -9.3810 
  82   2.0000      -0.342389        -9.3169 
  83   2.0000      -0.338512        -9.2114 
  84   2.0000      -0.331873        -9.0307 
  85   2.0000      -0.328724        -8.9450 
  86   2.0000      -0.322750        -8.7825 
  87   2.0000      -0.319821        -8.7028 
  88   2.0000      -0.315540        -8.5863 
  89   2.0000      -0.312754        -8.5105 
  90   2.0000      -0.309766        -8.4292 
  91   2.0000      -0.306055        -8.3282 
  92   2.0000      -0.302910        -8.2426 
  93   2.0000      -0.295081        -8.0296 
  94   2.0000      -0.289678        -7.8826 
  95   2.0000      -0.287593        -7.8258 
  96   2.0000      -0.284159        -7.7323 
  97   2.0000      -0.282767        -7.6945 
  98   2.0000      -0.279496        -7.6055 
  99   2.0000      -0.277845        -7.5606 
 100   2.0000      -0.276279        -7.5179 
 101   2.0000      -0.273819        -7.4510 
 102   2.0000      -0.270439        -7.3590 
 103   2.0000      -0.266261        -7.2453 
 104   2.0000      -0.260477        -7.0879 
 105   2.0000      -0.248772        -6.7694 
 106   2.0000      -0.233096        -6.3429 
 107   2.0000      -0.227180        -6.1819 
 108   2.0000      -0.212628        -5.7859 
 109   2.0000      -0.180690        -4.9168 
 110   0.0000      -0.056000        -1.5238 
 111   0.0000      -0.012944        -0.3522 
 112   0.0000      -0.004439        -0.1208 
 113   0.0000       0.030878         0.8402 
 114   0.0000       0.040040         1.0895 
 115   0.0000       0.042372         1.1530 
 116   0.0000       0.046960         1.2778 
 117   0.0000       0.048570         1.3217 
 118   0.0000       0.051834         1.4105 
 119   0.0000       0.055307         1.5050 
 120   0.0000       0.059489         1.6188 
 121   0.0000       0.067344         1.8325 
 122   0.0000       0.072247         1.9659 
 123   0.0000       0.074299         2.0218 
 124   0.0000       0.076238         2.0745 
 125   0.0000       0.078594         2.1386 
 126   0.0000       0.084348         2.2952 
 127   0.0000       0.088080         2.3968 
 128   0.0000       0.088597         2.4108 
 129   0.0000       0.092825         2.5259 
 130   0.0000       0.097436         2.6514 
 131   0.0000       0.102026         2.7763 
 132   0.0000       0.104823         2.8524 
 133   0.0000       0.106368         2.8944 
 134   0.0000       0.108567         2.9543 
 135   0.0000       0.114052         3.1035 
 136   0.0000       0.115195         3.1346 
 137   0.0000       0.119372         3.2483 
 138   0.0000       0.120727         3.2851 
 139   0.0000       0.124295         3.3822 
 140   0.0000       0.124801         3.3960 
 141   0.0000       0.128273         3.4905 
 142   0.0000       0.130832         3.5601 
 143   0.0000       0.134705         3.6655 
 144   0.0000       0.138108         3.7581 
 145   0.0000       0.138754         3.7757 
 146   0.0000       0.142180         3.8689 
 147   0.0000       0.146101         3.9756 
 148   0.0000       0.147776         4.0212 
 149   0.0000       0.150998         4.1089 
 150   0.0000       0.155040         4.2189 
 151   0.0000       0.158514         4.3134 
 152   0.0000       0.161757         4.4016 
 153   0.0000       0.163330         4.4444 
 154   0.0000       0.169351         4.6083 
 155   0.0000       0.174683         4.7534 
 156   0.0000       0.174839         4.7576 
 157   0.0000       0.178100         4.8464 
 158   0.0000       0.179002         4.8709 
 159   0.0000       0.182853         4.9757 
 160   0.0000       0.188450         5.1280 
 161   0.0000       0.192502         5.2382 
 162   0.0000       0.193718         5.2713 
 163   0.0000       0.198789         5.4093 
 164   0.0000       0.201681         5.4880 
 165   0.0000       0.205328         5.5873 
 166   0.0000       0.206472         5.6184 
 167   0.0000       0.212017         5.7693 
 168   0.0000       0.215146         5.8544 
 169   0.0000       0.221483         6.0268 
 170   0.0000       0.224026         6.0961 
 171   0.0000       0.229047         6.2327 
 172   0.0000       0.229938         6.2569 
 173   0.0000       0.232888         6.3372 
 174   0.0000       0.240947         6.5565 
 175   0.0000       0.244041         6.6407 
 176   0.0000       0.247211         6.7270 
 177   0.0000       0.257246         7.0000 
 178   0.0000       0.263182         7.1615 
 179   0.0000       0.268507         7.3065 
 180   0.0000       0.271177         7.3791 
 181   0.0000       0.285179         7.7601 
 182   0.0000       0.292661         7.9637 
 183   0.0000       0.295506         8.0411 
 184   0.0000       0.302665         8.2359 
 185   0.0000       0.328825         8.9478 
 186   0.0000       0.333854         9.0846 
 187   0.0000       0.340528         9.2662 
 188   0.0000       0.345079         9.3901 
 189   0.0000       0.348800         9.4913 
 190   0.0000       0.355483         9.6732 
 191   0.0000       0.362492         9.8639 
 192   0.0000       0.363380         9.8881 
 193   0.0000       0.370787        10.0896 
 194   0.0000       0.375818        10.2265 
 195   0.0000       0.379922        10.3382 
 196   0.0000       0.383638        10.4393 
 197   0.0000       0.386522        10.5178 
 198   0.0000       0.393370        10.7041 
 199   0.0000       0.398873        10.8539 
 200   0.0000       0.407436        11.0869 
 201   0.0000       0.408875        11.1260 
 202   0.0000       0.413071        11.2402 
 203   0.0000       0.420805        11.4507 
 204   0.0000       0.422751        11.5036 
 205   0.0000       0.426189        11.5972 
 206   0.0000       0.434619        11.8266 
 207   0.0000       0.439749        11.9662 
 208   0.0000       0.450313        12.2536 
 209   0.0000       0.455090        12.3836 
 210   0.0000       0.459322        12.4988 
 211   0.0000       0.461986        12.5713 
 212   0.0000       0.469653        12.7799 
 213   0.0000       0.479424        13.0458 
 214   0.0000       0.483252        13.1499 
 215   0.0000       0.483587        13.1591 
 216   0.0000       0.491931        13.3861 
 217   0.0000       0.493892        13.4395 
 218   0.0000       0.500104        13.6085 
 219   0.0000       0.507928        13.8214 
 220   0.0000       0.511131        13.9086 
 221   0.0000       0.513151        13.9635 
 222   0.0000       0.519985        14.1495 
 223   0.0000       0.524789        14.2802 
 224   0.0000       0.532158        14.4808 
 225   0.0000       0.533104        14.5065 
 226   0.0000       0.539618        14.6838 
 227   0.0000       0.543385        14.7863 
 228   0.0000       0.545582        14.8460 
 229   0.0000       0.547592        14.9007 
 230   0.0000       0.552228        15.0269 
 231   0.0000       0.553508        15.0617 
 232   0.0000       0.557322        15.1655 
 233   0.0000       0.564707        15.3665 
 234   0.0000       0.565477        15.3874 
 235   0.0000       0.568301        15.4643 
 236   0.0000       0.572729        15.5847 
 237   0.0000       0.575309        15.6549 
 238   0.0000       0.576187        15.6789 
 239   0.0000       0.577612        15.7176 
 240   0.0000       0.582214        15.8429 
 241   0.0000       0.584434        15.9032 
 242   0.0000       0.587619        15.9899 
 243   0.0000       0.588291        16.0082 
 244   0.0000       0.591226        16.0881 
 245   0.0000       0.592837        16.1319 
 246   0.0000       0.596537        16.2326 
 247   0.0000       0.598971        16.2988 
 248   0.0000       0.603884        16.4325 
 249   0.0000       0.605083        16.4652 
 250   0.0000       0.607988        16.5442 
 251   0.0000       0.610609        16.6155 
 252   0.0000       0.612374        16.6636 
 253   0.0000       0.614082        16.7100 
 254   0.0000       0.617112        16.7925 
 255   0.0000       0.619745        16.8641 
 256   0.0000       0.625551        17.0221 
 257   0.0000       0.629011        17.1163 
 258   0.0000       0.630877        17.1670 
 259   0.0000       0.632462        17.2102 
 260   0.0000       0.636102        17.3092 
 261   0.0000       0.637449        17.3459 
 262   0.0000       0.641489        17.4558 
 263   0.0000       0.642524        17.4840 
 264   0.0000       0.644910        17.5489 
 265   0.0000       0.646526        17.5929 
 266   0.0000       0.651489        17.7279 
 267   0.0000       0.652414        17.7531 
 268   0.0000       0.654634        17.8135 
 269   0.0000       0.659989        17.9592 
 270   0.0000       0.661922        18.0118 
 271   0.0000       0.665089        18.0980 
 272   0.0000       0.670175        18.2364 
 273   0.0000       0.671127        18.2623 
 274   0.0000       0.673147        18.3173 
 275   0.0000       0.675692        18.3865 
 276   0.0000       0.681026        18.5317 
 277   0.0000       0.682703        18.5773 
 278   0.0000       0.685937        18.6653 
 279   0.0000       0.690543        18.7906 
 280   0.0000       0.693116        18.8606 
 281   0.0000       0.697058        18.9679 
 282   0.0000       0.701663        19.0932 
 283   0.0000       0.708583        19.2815 
 284   0.0000       0.713452        19.4140 
 285   0.0000       0.715600        19.4725 
 286   0.0000       0.719435        19.5768 
 287   0.0000       0.723444        19.6859 
 288   0.0000       0.726571        19.7710 
 289   0.0000       0.737057        20.0563 
 290   0.0000       0.744756        20.2659 
 291   0.0000       0.748085        20.3564 
 292   0.0000       0.752249        20.4697 
 293   0.0000       0.759974        20.6799 
 294   0.0000       0.763485        20.7755 
 295   0.0000       0.768536        20.9129 
 296   0.0000       0.771425        20.9916 
 297   0.0000       0.778004        21.1706 
 298   0.0000       0.791425        21.5358 
 299   0.0000       0.793534        21.5932 
 300   0.0000       0.795891        21.6573 
 301   0.0000       0.806856        21.9557 
 302   0.0000       0.821963        22.3667 
 303   0.0000       0.834917        22.7192 
 304   0.0000       0.839146        22.8343 
 305   0.0000       0.850540        23.1444 
 306   0.0000       0.860464        23.4144 
 307   0.0000       0.887272        24.1439 
 308   0.0000       0.897577        24.4243 
 309   0.0000       0.913613        24.8607 
 310   0.0000       0.915344        24.9078 
 311   0.0000       0.938568        25.5397 
 312   0.0000       0.941873        25.6297 
 313   0.0000       0.954355        25.9693 
 314   0.0000       0.970989        26.4220 
 315   0.0000       0.984961        26.8022 
 316   0.0000       0.997455        27.1421 
 317   0.0000       1.022794        27.8317 
 318   0.0000       1.031589        28.0710 
 319   0.0000       1.034079        28.1387 
 320   0.0000       1.044993        28.4357 
 321   0.0000       1.061093        28.8738 
 322   0.0000       1.068749        29.0821 
 323   0.0000       1.076603        29.2959 
 324   0.0000       1.127837        30.6900 
 325   0.0000       1.132294        30.8113 
 326   0.0000       1.140028        31.0217 
 327   0.0000       1.152561        31.3628 
 328   0.0000       1.166675        31.7468 
 329   0.0000       1.179452        32.0945 
 330   0.0000       1.188551        32.3421 
 331   0.0000       1.222210        33.2580 
 332   0.0000       1.230709        33.4893 
 333   0.0000       1.237218        33.6664 
 334   0.0000       1.261187        34.3186 
 335   0.0000       1.263389        34.3786 
 336   0.0000       1.280520        34.8447 
 337   0.0000       1.283487        34.9255 
 338   0.0000       1.289205        35.0811 
 339   0.0000       1.305776        35.5320 
 340   0.0000       1.319479        35.9048 
 341   0.0000       1.326993        36.1093 
 342   0.0000       1.341750        36.5109 
 343   0.0000       1.358402        36.9640 
 344   0.0000       1.362830        37.0845 
 345   0.0000       1.373606        37.3777 
 346   0.0000       1.386119        37.7182 
 347   0.0000       1.396043        37.9883 
 348   0.0000       1.410614        38.3847 
 349   0.0000       1.413089        38.4521 
 350   0.0000       1.427426        38.8422 
 351   0.0000       1.431629        38.9566 
 352   0.0000       1.447232        39.3812 
 353   0.0000       1.450413        39.4678 
 354   0.0000       1.460832        39.7513 
 355   0.0000       1.466358        39.9016 
 356   0.0000       1.492473        40.6123 
 357   0.0000       1.503185        40.9037 
 358   0.0000       1.505672        40.9714 
 359   0.0000       1.512526        41.1579 
 360   0.0000       1.519695        41.3530 
 361   0.0000       1.525736        41.5174 
 362   0.0000       1.529485        41.6194 
 363   0.0000       1.535046        41.7707 
 364   0.0000       1.550552        42.1927 
 365   0.0000       1.564374        42.5688 
 366   0.0000       1.572368        42.7863 
 367   0.0000       1.577707        42.9316 
 368   0.0000       1.595477        43.4151 
 369   0.0000       1.605725        43.6940 
 370   0.0000       1.609894        43.8074 
 371   0.0000       1.618886        44.0521 
 372   0.0000       1.626917        44.2707 
 373   0.0000       1.635383        44.5010 
 374   0.0000       1.645631        44.7799 
 375   0.0000       1.655157        45.0391 
 376   0.0000       1.659870        45.1674 
 377   0.0000       1.674039        45.5529 
 378   0.0000       1.677409        45.6446 
 379   0.0000       1.684208        45.8296 
 380   0.0000       1.692040        46.0427 
 381   0.0000       1.697851        46.2009 
 382   0.0000       1.702628        46.3309 
 383   0.0000       1.703494        46.3544 
 384   0.0000       1.721667        46.8489 
 385   0.0000       1.724488        46.9257 
 386   0.0000       1.726478        46.9798 
 387   0.0000       1.729637        47.0658 
 388   0.0000       1.735226        47.2179 
 389   0.0000       1.739529        47.3350 
 390   0.0000       1.742854        47.4255 
 391   0.0000       1.752885        47.6984 
 392   0.0000       1.755963        47.7822 
 393   0.0000       1.766077        48.0574 
 394   0.0000       1.769899        48.1614 
 395   0.0000       1.773480        48.2588 
 396   0.0000       1.777903        48.3792 
 397   0.0000       1.783207        48.5235 
 398   0.0000       1.785453        48.5846 
 399   0.0000       1.790743        48.7286 
 400   0.0000       1.795731        48.8643 
 401   0.0000       1.799189        48.9584 
 402   0.0000       1.801369        49.0177 
 403   0.0000       1.806329        49.1527 
 404   0.0000       1.815321        49.3974 
 405   0.0000       1.820522        49.5389 
 406   0.0000       1.828492        49.7558 
 407   0.0000       1.836807        49.9821 
 408   0.0000       1.845958        50.2311 
 409   0.0000       1.855893        50.5014 
 410   0.0000       1.858935        50.5842 
 411   0.0000       1.864471        50.7348 
 412   0.0000       1.872210        50.9454 
 413   0.0000       1.880659        51.1753 
 414   0.0000       1.892815        51.5061 
 415   0.0000       1.896667        51.6109 
 416   0.0000       1.903186        51.7883 
 417   0.0000       1.903883        51.8073 
 418   0.0000       1.906788        51.8863 
 419   0.0000       1.916440        52.1490 
 420   0.0000       1.931883        52.5692 
 421   0.0000       1.936736        52.7013 
 422   0.0000       1.941375        52.8275 
 423   0.0000       1.947360        52.9904 
 424   0.0000       1.951286        53.0972 
 425   0.0000       1.953029        53.1446 
 426   0.0000       1.963861        53.4394 
 427   0.0000       1.969331        53.5882 
 428   0.0000       1.972222        53.6669 
 429   0.0000       1.981058        53.9073 
 430   0.0000       1.983293        53.9681 
 431   0.0000       1.991490        54.1912 
 432   0.0000       1.993277        54.2398 
 433   0.0000       1.995168        54.2913 
 434   0.0000       1.997793        54.3627 
 435   0.0000       2.006513        54.6000 
 436   0.0000       2.011572        54.7377 
 437   0.0000       2.013197        54.7819 
 438   0.0000       2.014288        54.8116 
 439   0.0000       2.019362        54.9496 
 440   0.0000       2.029145        55.2158 
 441   0.0000       2.034957        55.3740 
 442   0.0000       2.040467        55.5239 
 443   0.0000       2.043825        55.6153 
[...]

 --------------
 Nucleus  47H :
 --------------

Diamagnetic contribution to the shielding tensor (ppm) : 
            31.051          3.304        -0.547
             1.332         50.457        -4.498
             0.458         -3.274        41.470

Paramagnetic contribution to the shielding tensor (ppm): 
            -2.476         -3.085         1.189
            -1.063        -17.146         0.997
            -0.380         -0.236        -9.475

Total shielding tensor (ppm): 
            28.575          0.220         0.642
             0.269         33.311        -3.501
             0.077         -3.510        31.995


 Diagonalized sT*s matrix:
 
 sDSO            32.303           40.075           50.600  iso=      40.993
 sPSO            -3.975          -10.742          -14.380  iso=      -9.699
        ---------------  ---------------  ---------------
 Total           28.328           29.333           36.220  iso=      31.294

 --------------
 Nucleus  48H :
 --------------

Diamagnetic contribution to the shielding tensor (ppm) : 
            35.442          0.436        -1.148
            -2.374         41.856        -7.415
            -0.972         -2.722        43.551

Paramagnetic contribution to the shielding tensor (ppm): 
            -3.692          0.499         1.757
             2.670        -14.472         4.019
             1.005          0.175       -13.292

Total shielding tensor (ppm): 
            31.750          0.935         0.609
             0.296         27.383        -3.396
             0.034         -2.546        30.259


 Diagonalized sT*s matrix:
 
 sDSO            38.085           35.315           47.450  iso=      40.283
 sPSO           -12.639           -3.499          -15.318  iso=     -10.486
        ---------------  ---------------  ---------------
 Total           25.445           31.816           32.131  iso=      29.797

 --------------
 Nucleus  52H :
 --------------

Diamagnetic contribution to the shielding tensor (ppm) : 
            41.787          4.398        -7.478
            11.859         29.026        -5.731
           -11.139         -7.041        50.911

Paramagnetic contribution to the shielding tensor (ppm): 
           -13.363         -1.770        11.644
            -9.039         -4.827         7.005
            14.342          7.776       -24.550

Total shielding tensor (ppm): 
            28.424          2.628         4.166
             2.821         24.200         1.274
             3.203          0.735        26.361


 Diagonalized sT*s matrix:
 
 sDSO            29.619           55.014           37.092  iso=      40.575
 sPSO            -7.038          -30.803           -4.898  iso=     -14.246
        ---------------  ---------------  ---------------
 Total           22.580           24.211           32.194  iso=      26.328

 --------------
 Nucleus  53H :
 --------------

Diamagnetic contribution to the shielding tensor (ppm) : 
            42.863          7.028        -7.302
             3.532         44.211        -6.100
             0.013         -7.018        50.568

Paramagnetic contribution to the shielding tensor (ppm): 
           -11.868         -6.531        13.327
            -2.929        -22.148         8.686
             4.752          8.669       -25.035

Total shielding tensor (ppm): 
            30.995          0.497         6.025
             0.603         22.063         2.586
             4.766          1.651        25.533


 Diagonalized sT*s matrix:
 
 sDSO            55.747           39.825           42.069  iso=      45.881
 sPSO           -35.222          -16.271           -7.557  iso=     -19.683
        ---------------  ---------------  ---------------
 Total           20.526           23.554           34.512  iso=      26.197

 --------------
 Nucleus  57H :
 --------------

Diamagnetic contribution to the shielding tensor (ppm) : 
            31.359         -1.052        -5.806
            13.627         41.147        14.146
             0.885          2.453        46.679

Paramagnetic contribution to the shielding tensor (ppm): 
            -1.960         -1.329         5.622
           -15.553         -9.950        -9.843
            -0.821          0.129       -18.401

Total shielding tensor (ppm): 
            29.399         -2.381        -0.184
            -1.926         31.197         4.303
             0.065          2.582        28.278


 Diagonalized sT*s matrix:
 
 sDSO            39.455           34.955           44.776  iso=      39.729
 sPSO           -13.841           -5.890          -10.580  iso=     -10.104
        ---------------  ---------------  ---------------
 Total           25.614           29.065           34.196  iso=      29.625

 --------------
 Nucleus  58H :
 --------------

Diamagnetic contribution to the shielding tensor (ppm) : 
            33.401          4.231        -9.766
            -0.455         28.766        -6.781
             7.888         -8.321        47.985

Paramagnetic contribution to the shielding tensor (ppm): 
            -0.709         -2.955         7.971
             2.290         -2.413         4.753
           -10.261          7.221       -16.348

Total shielding tensor (ppm): 
            32.692          1.276        -1.796
             1.835         26.353        -2.028
            -2.373         -1.100        31.636


 Diagonalized sT*s matrix:
 
 sDSO            26.254           41.676           42.222  iso=      36.717
 sPSO            -0.480          -11.645           -7.346  iso=      -6.490
        ---------------  ---------------  ---------------
 Total           25.775           30.030           34.876  iso=      30.227

 --------------
 Nucleus  61H :
 --------------

Diamagnetic contribution to the shielding tensor (ppm) : 
            32.295         -0.609         0.375
            21.630         34.949        -2.949
           -11.929         -9.198        36.363

Paramagnetic contribution to the shielding tensor (ppm): 
            -2.980          0.879         0.831
           -20.864         -2.214        -2.733
            13.455          4.172        -5.580

Total shielding tensor (ppm): 
            29.315          0.270         1.206
             0.766         32.736        -5.683
             1.526         -5.026        30.783


 Diagonalized sT*s matrix:
 
 sDSO            28.705           34.794           40.109  iso=      34.536
 sPSO            -2.929           -4.966           -2.878  iso=      -3.591
        ---------------  ---------------  ---------------
 Total           25.776           29.827           37.231  iso=      30.945

 --------------
 Nucleus  62H :
 --------------

Diamagnetic contribution to the shielding tensor (ppm) : 
            34.750         -3.823        -5.752
             1.560         28.113         9.657
           -10.844          6.161        35.512

Paramagnetic contribution to the shielding tensor (ppm): 
            -3.959          2.398         2.757
            -3.237          1.982        -7.615
             8.466         -4.100        -3.182

Total shielding tensor (ppm): 
            30.791         -1.424        -2.996
            -1.677         30.094         2.042
            -2.378          2.061        32.330


 Diagonalized sT*s matrix:
 
 sDSO            27.312           25.193           45.870  iso=      32.791
 sPSO             1.454            3.692          -10.305  iso=      -1.720
        ---------------  ---------------  ---------------
 Total           28.766           28.885           35.565  iso=      31.072

 --------------
 Nucleus  63H :
 --------------

Diamagnetic contribution to the shielding tensor (ppm) : 
            39.719          5.023         4.081
            20.083         28.792        13.586
            -1.821          4.385        18.850

Paramagnetic contribution to the shielding tensor (ppm): 
            -5.853          0.132        -2.025
           -14.717          0.197       -14.481
             3.372         -5.474        10.647

Total shielding tensor (ppm): 
            33.866          5.155         2.056
             5.366         28.989        -0.895
             1.550         -1.089        29.496


 Diagonalized sT*s matrix:
 
 sDSO            25.003           13.470           48.887  iso=      29.120
 sPSO            -0.097           16.622          -11.534  iso=       1.664
        ---------------  ---------------  ---------------
 Total           24.906           30.092           37.353  iso=      30.784

 --------------
 Nucleus  64H :
 --------------

Diamagnetic contribution to the shielding tensor (ppm) : 
            24.400         -1.625         7.384
            -1.559          5.301        -8.710
            20.501         -7.168        32.474

Paramagnetic contribution to the shielding tensor (ppm): 
             4.509          0.409        -2.372
             1.098         23.171         6.386
           -15.980          4.745         2.063

Total shielding tensor (ppm): 
            28.909         -1.216         5.012
            -0.461         28.471        -2.323
             4.522         -2.423        34.537


 Diagonalized sT*s matrix:
 
 sDSO            12.189            6.222           43.764  iso=      20.725
 sPSO            13.890           21.707           -5.855  iso=       9.914
        ---------------  ---------------  ---------------
 Total           26.079           27.930           37.909  iso=      30.639

 --------------
 Nucleus  65H :
 --------------

Diamagnetic contribution to the shielding tensor (ppm) : 
            22.927         -1.048        -0.795
            11.074         23.247        18.763
            14.805          5.649        33.253

Paramagnetic contribution to the shielding tensor (ppm): 
             4.956          1.493         2.338
           -11.832          9.336       -13.675
           -13.864         -0.048        -1.385

Total shielding tensor (ppm): 
            27.884          0.445         1.543
            -0.758         32.583         5.088
             0.941          5.601        31.868


 Diagonalized sT*s matrix:
 
 sDSO            16.774           21.485           41.169  iso=      26.476
 sPSO             9.456            6.983           -3.532  iso=       4.302
        ---------------  ---------------  ---------------
 Total           26.230           28.468           37.637  iso=      30.778

 --------------
 Nucleus  66H :
 --------------

Diamagnetic contribution to the shielding tensor (ppm) : 
            39.185          3.966         2.443
             8.429         12.630         7.135
             3.624         -2.637        19.115

Paramagnetic contribution to the shielding tensor (ppm): 
            -4.052         -1.107        -2.281
            -5.645         14.795        -8.021
            -2.858          2.205        10.642

Total shielding tensor (ppm): 
            35.133          2.859         0.162
             2.784         27.425        -0.886
             0.766         -0.432        29.758


 Diagonalized sT*s matrix:
 
 sDSO            12.418           18.007           40.504  iso=      23.643
 sPSO            13.911           11.915           -4.440  iso=       7.129
        ---------------  ---------------  ---------------
 Total           26.329           29.922           36.064  iso=      30.772

 --------------
 Nucleus  67H :
 --------------

Diamagnetic contribution to the shielding tensor (ppm) : 
            37.608         -4.832        -4.799
           -15.971         21.642        -6.670
            -2.820          2.273        24.324

Paramagnetic contribution to the shielding tensor (ppm): 
            -3.698          3.055         1.658
            13.228          8.182         6.758
            -0.424         -2.351         5.824

Total shielding tensor (ppm): 
            33.910         -1.778        -3.141
            -2.744         29.823         0.088
            -3.244         -0.078        30.148


 Diagonalized sT*s matrix:
 
 sDSO            17.124           25.319           41.131  iso=      27.858
 sPSO            10.484            4.615           -4.790  iso=       3.436
        ---------------  ---------------  ---------------
 Total           27.607           29.933           36.341  iso=      31.294

 --------------
 Nucleus  68H :
 --------------

Diamagnetic contribution to the shielding tensor (ppm) : 
            33.579         -0.651         5.113
           -18.122         36.979        -8.389
             3.818          5.089        31.065

Paramagnetic contribution to the shielding tensor (ppm): 
            -2.450          1.107        -0.186
            19.475         -4.458        11.377
             1.487         -2.534        -2.199

Total shielding tensor (ppm): 
            31.128          0.456         4.927
             1.353         32.521         2.988
             5.305          2.555        28.866


 Diagonalized sT*s matrix:
 
 sDSO            26.401           45.365           29.856  iso=      33.874
 sPSO            -1.980          -13.998            6.871  iso=      -3.036
        ---------------  ---------------  ---------------
 Total           24.421           31.367           36.728  iso=      30.839

 --------------
 Nucleus  69H :
 --------------

Diamagnetic contribution to the shielding tensor (ppm) : 
            27.329         -5.444         3.831
           -23.070         27.334       -19.306
             3.709         -9.273        24.910

Paramagnetic contribution to the shielding tensor (ppm): 
             0.884          2.929        -1.426
            20.181          7.688        15.121
            -1.927          5.871         5.198

Total shielding tensor (ppm): 
            28.213         -2.515         2.405
            -2.889         35.021        -4.185
             1.782         -3.402        30.108


 Diagonalized sT*s matrix:
 
 sDSO            22.896           10.141           46.535  iso=      26.524
 sPSO             3.953           18.128           -8.312  iso=       4.590
        ---------------  ---------------  ---------------
 Total           26.850           28.269           38.224  iso=      31.114

 --------------
 Nucleus  70H :
 --------------

Diamagnetic contribution to the shielding tensor (ppm) : 
            36.242         -6.358        -8.287
           -12.797         29.756        -1.844
           -11.445          4.362        32.295

Paramagnetic contribution to the shielding tensor (ppm): 
            -1.988          5.234         4.080
            11.143         -1.452         5.223
             7.531         -2.048        -2.634

Total shielding tensor (ppm): 
            34.254         -1.125        -4.208
            -1.653         28.304         3.379
            -3.913          2.314        29.661


 Diagonalized sT*s matrix:
 
 sDSO            29.915           20.726           47.653  iso=      32.764
 sPSO            -4.203            8.371          -10.243  iso=      -2.025
        ---------------  ---------------  ---------------
 Total           25.712           29.097           37.410  iso=      30.740

 --------------
 Nucleus  71H :
 --------------

Diamagnetic contribution to the shielding tensor (ppm) : 
            32.259          1.776         4.242
            -6.710         40.869         7.329
            -0.664          8.416        37.235

Paramagnetic contribution to the shielding tensor (ppm): 
            -0.052         -1.377        -3.891
             8.295        -11.460        -1.691
             1.987         -3.580        -8.041

Total shielding tensor (ppm): 
            32.207          0.399         0.352
             1.585         29.409         5.639
             1.323          4.836        29.194


 Diagonalized sT*s matrix:
 
 sDSO            31.235           35.112           44.017  iso=      36.788
 sPSO            -7.172           -3.480           -8.901  iso=      -6.518
        ---------------  ---------------  ---------------
 Total           24.063           31.632           35.116  iso=      30.270

 --------------
 Nucleus  72H :
 --------------

Diamagnetic contribution to the shielding tensor (ppm) : 
            28.754         -5.912         0.679
           -13.478         44.077        -7.153
            -1.648         -5.779        33.964

Paramagnetic contribution to the shielding tensor (ppm): 
             2.458          3.558         0.467
            11.813        -10.678         4.852
             2.041          3.849        -4.902

Total shielding tensor (ppm): 
            31.212         -2.354         1.146
            -1.665         33.399        -2.301
             0.394         -1.930        29.063


 Diagonalized sT*s matrix:
 
 sDSO            30.722           25.592           50.481  iso=      35.598
 sPSO            -2.521            4.509          -15.109  iso=      -4.374
        ---------------  ---------------  ---------------
 Total           28.201           30.101           35.372  iso=      31.225



--------------------------------
CHEMICAL SHIELDING SUMMARY (ppm)
--------------------------------


  Nucleus  Element    Isotropic     Anisotropy
  -------  -------  ------------   ------------
      3       H           29.638          5.425 
      4       H           29.129          5.279 
      8       H           29.572          6.405 
      9       H           29.430          7.754 
     10       H           29.631          8.800 
     11       H           30.529          6.241 
     13       H           28.189          2.749 
     16       H           26.856          5.188 
     17       H           26.523          5.009 
     19       H           25.448         10.741 
     21       H           25.690         15.088 
     24       H           28.879          9.958 
     25       H           29.979          9.374 
     27       H           30.232          7.247 
     28       H           30.146         11.726 
     30       H           29.722          8.025 
     31       H           30.395          6.813 
     33       H           29.773          4.022 
     35       H           31.118         14.855 
     37       H           30.382         10.869 
     38       H           30.293          9.623 
     40       H           29.679          9.676 
     41       H           30.733          7.656 
     42       H           30.152          7.249 
     45       H           31.054          8.354 
     46       H           31.292          9.442 
     47       H           31.294          7.390 
     48       H           29.797          3.501 
     52       H           26.328          8.798 
     53       H           26.197         12.472 
     57       H           29.625          6.856 
     58       H           30.227          6.974 
     61       H           30.945          9.430 
     62       H           31.072          6.739 
     63       H           30.784          9.855 
     64       H           30.639         10.905 
     65       H           30.778         10.288 
     66       H           30.772          7.938 
     67       H           31.294          7.571 
     68       H           30.839          8.834 
     69       H           31.114         10.664 
     70       H           30.740         10.005 
     71       H           30.270          7.268 
     72       H           31.225          6.221 



Maximum memory used throughout the entire EPRNMR-calculation: 140.6 MB

Timings for individual modules:

Sum of individual times         ...      139.966 sec (=   2.333 min)
GTO integral calculation        ...        1.008 sec (=   0.017 min)   0.7 %
SCF iterations                  ...       92.484 sec (=   1.541 min)  66.1 %
EPR/NMR calculation             ...       46.473 sec (=   0.775 min)  33.2 %
                             ****ORCA TERMINATED NORMALLY****
TOTAL RUN TIME: 0 days 0 hours 2 minutes 20 seconds 465 msec
