
                                 *****************
                                 * O   R   C   A *
                                 *****************

                                            #,                                       
                                            ###                                      
                                            ####                                     
                                            #####                                    
                                            ######                                   
                                           ########,                                 
                                     ,,################,,,,,                         
                               ,,#################################,,                 
                          ,,##########################################,,             
                       ,#########################################, ''#####,          
                    ,#############################################,,   '####,        
                  ,##################################################,,,,####,       
                ,###########''''           ''''###############################       
              ,#####''   ,,,,##########,,,,          '''####'''          '####       
            ,##' ,,,,###########################,,,                        '##       
           ' ,,###''''                  '''############,,,                           
         ,,##''                                '''############,,,,        ,,,,,,###''
      ,#''                                            '''#######################'''  
     '                                                          ''''####''''         
             ,#######,   #######,   ,#######,      ##                                
            ,#'     '#,  ##    ##  ,#'     '#,    #''#        ######   ,####,        
            ##       ##  ##   ,#'  ##            #'  '#       #        #'  '#        
            ##       ##  #######   ##           ,######,      #####,   #    #        
            '#,     ,#'  ##    ##  '#,     ,#' ,#      #,         ##   #,  ,#        
             '#######'   ##     ##  '#######'  #'      '#     #####' # '####'        



                  #######################################################
                  #                        -***-                        #
                  #          Department of theory and spectroscopy      #
                  #    Directorship and core code : Frank Neese         #
                  #        Max Planck Institute fuer Kohlenforschung    #
                  #                Kaiser Wilhelm Platz 1               #
                  #                 D-45470 Muelheim/Ruhr               #
                  #                      Germany                        #
                  #                                                     #
                  #                  All rights reserved                #
                  #                        -***-                        #
                  #######################################################


                         Program Version 5.0.2 -  RELEASE  -


 With contributions from (in alphabetic order):
   Daniel Aravena         : Magnetic Suceptibility
   Michael Atanasov       : Ab Initio Ligand Field Theory (pilot matlab implementation)
   Alexander A. Auer      : GIAO ZORA, VPT2 properties, NMR spectrum
   Ute Becker             : Parallelization
   Giovanni Bistoni       : ED, misc. LED, open-shell LED, HFLD
   Martin Brehm           : Molecular dynamics
   Dmytro Bykov           : SCF Hessian
   Vijay G. Chilkuri      : MRCI spin determinant printing, contributions to CSF-ICE
   Dipayan Datta          : RHF DLPNO-CCSD density
   Achintya Kumar Dutta   : EOM-CC, STEOM-CC
   Dmitry Ganyushin       : Spin-Orbit,Spin-Spin,Magnetic field MRCI
   Miquel Garcia          : C-PCM and meta-GGA Hessian, CC/C-PCM, Gaussian charge scheme
   Yang Guo               : DLPNO-NEVPT2, F12-NEVPT2, CIM, IAO-localization
   Andreas Hansen         : Spin unrestricted coupled pair/coupled cluster methods
   Benjamin Helmich-Paris : MC-RPA, TRAH-SCF, COSX integrals
   Lee Huntington         : MR-EOM, pCC
   Robert Izsak           : Overlap fitted RIJCOSX, COSX-SCS-MP3, EOM
   Marcus Kettner         : VPT2
   Christian Kollmar      : KDIIS, OOCD, Brueckner-CCSD(T), CCSD density, CASPT2, CASPT2-K
   Simone Kossmann        : Meta GGA functionals, TD-DFT gradient, OOMP2, MP2 Hessian
   Martin Krupicka        : Initial AUTO-CI
   Lucas Lang             : DCDCAS
   Marvin Lechner         : AUTO-CI (C++ implementation), FIC-MRCC
   Dagmar Lenk            : GEPOL surface, SMD
   Dimitrios Liakos       : Extrapolation schemes; Compound Job, initial MDCI parallelization
   Dimitrios Manganas     : Further ROCIS development; embedding schemes
   Dimitrios Pantazis     : SARC Basis sets
   Anastasios Papadopoulos: AUTO-CI, single reference methods and gradients
   Taras Petrenko         : DFT Hessian,TD-DFT gradient, ASA, ECA, R-Raman, ABS, FL, XAS/XES, NRVS
   Peter Pinski           : DLPNO-MP2, DLPNO-MP2 Gradient
   Christoph Reimann      : Effective Core Potentials
   Marius Retegan         : Local ZFS, SOC
   Christoph Riplinger    : Optimizer, TS searches, QM/MM, DLPNO-CCSD(T), (RO)-DLPNO pert. Triples
   Tobias Risthaus        : Range-separated hybrids, TD-DFT gradient, RPA, STAB
   Michael Roemelt        : Original ROCIS implementation
   Masaaki Saitow         : Open-shell DLPNO-CCSD energy and density
   Barbara Sandhoefer     : DKH picture change effects
   Avijit Sen             : IP-ROCIS
   Kantharuban Sivalingam : CASSCF convergence, NEVPT2, FIC-MRCI
   Bernardo de Souza      : ESD, SOC TD-DFT
   Georgi Stoychev        : AutoAux, RI-MP2 NMR, DLPNO-MP2 response
   Willem Van den Heuvel  : Paramagnetic NMR
   Boris Wezisla          : Elementary symmetry handling
   Frank Wennmohs         : Technical directorship


 We gratefully acknowledge several colleagues who have allowed us to
 interface, adapt or use parts of their codes:
   Stefan Grimme, W. Hujo, H. Kruse, P. Pracht,  : VdW corrections, initial TS optimization,
                  C. Bannwarth, S. Ehlert          DFT functionals, gCP, sTDA/sTD-DF
   Ed Valeev, F. Pavosevic, A. Kumar             : LibInt (2-el integral package), F12 methods
   Garnet Chan, S. Sharma, J. Yang, R. Olivares  : DMRG
   Ulf Ekstrom                                   : XCFun DFT Library
   Mihaly Kallay                                 : mrcc  (arbitrary order and MRCC methods)
   Jiri Pittner, Ondrej Demel                    : Mk-CCSD
   Frank Weinhold                                : gennbo (NPA and NBO analysis)
   Christopher J. Cramer and Donald G. Truhlar   : smd solvation model
   Lars Goerigk                                  : TD-DFT with DH, B97 family of functionals
   V. Asgeirsson, H. Jonsson                     : NEB implementation
   FAccTs GmbH                                   : IRC, NEB, NEB-TS, DLPNO-Multilevel, CI-OPT
                                                   MM, QMMM, 2- and 3-layer-ONIOM, Crystal-QMMM,
                                                   LR-CPCM, SF, NACMEs, symmetry and pop. for TD-DFT,
                                                   nearIR, NL-DFT gradient (VV10), updates on ESD,
                                                   ML-optimized integration grids
   S Lehtola, MJT Oliveira, MAL Marques          : LibXC Library
   Liviu Ungur et al                             : ANISO software


 Your calculation uses the libint2 library for the computation of 2-el integrals
 For citations please refer to: http://libint.valeyev.net

 Your ORCA version has been built with support for libXC version: 5.1.0
 For citations please refer to: https://tddft.org/programs/libxc/

 This ORCA versions uses:
   CBLAS   interface :  Fast vector & matrix operations
   LAPACKE interface :  Fast linear algebra routines
   SCALAPACK package :  Parallel linear algebra routines
   Shared memory     :  Shared parallel matrices
   BLAS/LAPACK       :  OpenBLAS 0.3.15  USE64BITINT DYNAMIC_ARCH NO_AFFINITY Zen SINGLE_THREADED
        Core in use  :  Zen
   Copyright (c) 2011-2014, The OpenBLAS Project


Your calculation utilizes the atom-pairwise dispersion correction
based on tight binding partial charges (D4)
Cite in your paper:
E.Caldeweyher, C.Bannwarth, S.Grimme, J.Chem.Phys., (2017), 147, 034112.
E.Caldeweyher, S.Ehlert, A.Hansen, H.Neugebauer, S.Grimme, J.Chem.Phys., (2018), in progress.
   

================================================================================

----- Orbital basis set information -----
Your calculation utilizes the basis: pcSseg-1
   F. Jensen, J. Chem. Theory Comput. 11, 132 (2015).

----- AuxJ basis set information -----
Your calculation utilizes the auxiliary basis: def2/J
   F. Weigend, Phys. Chem. Chem. Phys. 8, 1057 (2006).

================================================================================
                                        WARNINGS
                       Please study these warnings very carefully!
================================================================================



WARNING: Found flag for RIJCOSX approximation but no HF exchange needed!
  ===> : RIJCOSX  will be disabled and Split-RI-J is turned on

INFO   : the flag for use of the SHARK integral package has been found!

================================================================================
                                       INPUT FILE
================================================================================
NAME = inpS
|  1> ! revTPSS
|  2> ! D4
|  3> ! pcSseg-1
|  4> ! def2/J RIJCOSX
|  5> ! DEFGRID2
|  6> ! scfconv7
|  7> ! smallprint printgap noloewdin
|  8> ! NOSOSCF
|  9> %MaxCore 4000
| 10> %output
| 11>        print[P_BondOrder_M] 1
| 12>        print[P_Mayer] 1
| 13>        print[P_basis] 2
| 14> end
| 15> %pal
| 16>     nprocs 4
| 17> end
| 18> ! CPCM(chloroform)
| 19> *xyz 0 1
| 20> C   -5.0429603200   0.2942386700   0.3052534600
| 21> C   -6.4478552300  -0.1258585000  -0.0573056400
| 22> C   -6.9773517800   0.6488087600  -1.2703459000
| 23> H   -7.1235832500   0.0896026400   0.7878189300
| 24> H   -6.4913661800  -1.2027530200  -0.2538933200
| 25> C   -4.8629889900   1.7557863800   0.4370393000
| 26> C   -5.4366425100   2.5613805300  -0.7067490900
| 27> C   -6.8810505300   2.1501745900  -1.0230105800
| 28> H   -4.8209579800   2.3814041600  -1.6011295800
| 29> H   -5.3804519100   3.6315746700  -0.4814042800
| 30> H   -7.2466541300   2.6935943300  -1.9022673800
| 31> H   -7.5330635600   2.4098739300  -0.1753537400
| 32> O   -8.3137575200   0.2473266600  -1.5993381300
| 33> H   -6.3780711800   0.3851795100  -2.1530506100
| 34> C   -4.0558413600  -0.6228304900   0.4402252900
| 35> C   -4.2842738100   2.3341262300   1.4956082400
| 36> H   -3.9006550600   1.7443455900   2.3234540500
| 37> H   -4.1918087600   3.4156696800   1.5606462900
| 38> C   -2.6594891800  -0.3498957900   0.6895722500
| 39> H   -4.3459214100  -1.6640668600   0.3062094700
| 40> C   -1.6868938400  -1.2646974700   0.8913936400
| 41> H   -2.3749718400   0.6997226000   0.7020408700
| 42> C   -1.8808150400  -2.7586600200   0.9514142700
| 43> C   -0.9308709600  -3.4970068700  -0.0106283200
| 44> H   -2.9150374900  -3.0521052100   0.7517151600
| 45> H   -1.6508714400  -3.0858957200   1.9780912300
| 46> C    0.5326053900  -3.0648742400   0.1552914000
| 47> H   -1.2559603700  -3.3163062300  -1.0430229200
| 48> H   -1.0161536400  -4.5774966200   0.1582217400
| 49> C    0.6948167700  -1.5430893300   0.0379186700
| 50> H    1.1445187600  -3.5897822000  -0.5856266200
| 51> H    0.8916942300  -3.3772316900   1.1475951000
| 52> C   -0.2507757500  -0.8896978500   1.0951825600
| 53> H    0.0549767600  -1.3431949100   2.0563056500
| 54> C    0.1841600800   0.5721404200   1.1318437200
| 55> H   -8.8781331200   0.4689023400  -0.8465525900
| 56> C    1.7180377700   0.4976930600   0.9354758400
| 57> H   -0.1029387600   1.0647207700   2.0668597600
| 58> H   -0.2798723600   1.1354197800   0.3144878900
| 59> C    2.0572346200  -0.9624826000   0.5096147300
| 60> H    2.2591770100   0.7669660700   1.8480573400
| 61> H    2.0491331000   1.2009171200   0.1622064200
| 62> H    2.3426118000  -1.5318841000   1.4094517800
| 63> C    3.2595265400  -1.0053631100  -0.4553432100
| 64> C    0.3544418600  -1.0587124400  -1.3780294600
| 65> H   -0.7076187500  -1.1953922100  -1.6037671100
| 66> H    0.9324798800  -1.6130027000  -2.1256984800
| 67> H    0.5808765300   0.0046082300  -1.5055153900
| 68> H    3.0061589300  -0.4165666200  -1.3495003500
| 69> C    3.6377253700  -2.4280951300  -0.8944894600
| 70> C    4.4530864100  -0.3602071300   0.2002158600
| 71> C    5.0912878500   0.7125484600  -0.2667012700
| 72> H    4.7997393700  -0.8484366000   1.1138180900
| 73> H    4.7117579300   1.1761564000  -1.1820144500
| 74> C    6.2955394600   1.3938166800   0.3286308900
| 75> C    6.8453855300   0.6913598200   1.5693284400
| 76> C    5.9926277100   2.9028189300   0.5515537000
| 77> H    7.0828977700   1.3667051000  -0.4441801300
| 78> H    5.5687076800   3.2681009600  -0.3966256000
| 79> C    7.2625707500   3.7109278500   0.8286989600
| 80> C    4.9516790800   3.1372333100   1.6478542000
| 81> H    7.1316334900  -0.3390037100   1.3336161700
| 82> H    6.1051026500   0.6537331900   2.3756082100
| 83> H    7.7335651000   1.2043319100   1.9492160900
| 84> H    7.0384071200   4.7833808100   0.8424654000
| 85> H    8.0249829700   3.5332611100   0.0613974200
| 86> H    7.6939166900   3.4545845500   1.8028640500
| 87> H    5.3495038600   2.8696404500   2.6336823300
| 88> H    4.0483072700   2.5430366500   1.4736427500
| 89> H    4.6641897600   4.1938588400   1.6846501900
| 90> H    4.5686527800  -2.4112359700  -1.4712054200
| 91> H    2.8630928900  -2.8778403200  -1.5206891900
| 92> H    3.7902939300  -3.0758858600  -0.0225012000
| 93> *
| 94> %eprnmr
| 95>  Nuclei = all H { shift }
| 96>  origin giao
| 97>  giao_2el giao_2el_same_as_scf
| 98>  giao_1el giao_1el_analytic
| 99> end
|100> 
|101>                          ****END OF INPUT****
================================================================================

                       ****************************
                       * Single Point Calculation *
                       ****************************

---------------------------------
CARTESIAN COORDINATES (ANGSTROEM)
---------------------------------
  C     -5.042960    0.294239    0.305253
  C     -6.447855   -0.125859   -0.057306
  C     -6.977352    0.648809   -1.270346
  H     -7.123583    0.089603    0.787819
  H     -6.491366   -1.202753   -0.253893
  C     -4.862989    1.755786    0.437039
  C     -5.436643    2.561381   -0.706749
  C     -6.881051    2.150175   -1.023011
  H     -4.820958    2.381404   -1.601130
  H     -5.380452    3.631575   -0.481404
  H     -7.246654    2.693594   -1.902267
  H     -7.533064    2.409874   -0.175354
  O     -8.313758    0.247327   -1.599338
  H     -6.378071    0.385180   -2.153051
  C     -4.055841   -0.622830    0.440225
  C     -4.284274    2.334126    1.495608
  H     -3.900655    1.744346    2.323454
  H     -4.191809    3.415670    1.560646
  C     -2.659489   -0.349896    0.689572
  H     -4.345921   -1.664067    0.306209
  C     -1.686894   -1.264697    0.891394
  H     -2.374972    0.699723    0.702041
  C     -1.880815   -2.758660    0.951414
  C     -0.930871   -3.497007   -0.010628
  H     -2.915037   -3.052105    0.751715
  H     -1.650871   -3.085896    1.978091
  C      0.532605   -3.064874    0.155291
  H     -1.255960   -3.316306   -1.043023
  H     -1.016154   -4.577497    0.158222
  C      0.694817   -1.543089    0.037919
  H      1.144519   -3.589782   -0.585627
  H      0.891694   -3.377232    1.147595
  C     -0.250776   -0.889698    1.095183
  H      0.054977   -1.343195    2.056306
  C      0.184160    0.572140    1.131844
  H     -8.878133    0.468902   -0.846553
  C      1.718038    0.497693    0.935476
  H     -0.102939    1.064721    2.066860
  H     -0.279872    1.135420    0.314488
  C      2.057235   -0.962483    0.509615
  H      2.259177    0.766966    1.848057
  H      2.049133    1.200917    0.162206
  H      2.342612   -1.531884    1.409452
  C      3.259527   -1.005363   -0.455343
  C      0.354442   -1.058712   -1.378029
  H     -0.707619   -1.195392   -1.603767
  H      0.932480   -1.613003   -2.125698
  H      0.580877    0.004608   -1.505515
  H      3.006159   -0.416567   -1.349500
  C      3.637725   -2.428095   -0.894489
  C      4.453086   -0.360207    0.200216
  C      5.091288    0.712548   -0.266701
  H      4.799739   -0.848437    1.113818
  H      4.711758    1.176156   -1.182014
  C      6.295539    1.393817    0.328631
  C      6.845386    0.691360    1.569328
  C      5.992628    2.902819    0.551554
  H      7.082898    1.366705   -0.444180
  H      5.568708    3.268101   -0.396626
  C      7.262571    3.710928    0.828699
  C      4.951679    3.137233    1.647854
  H      7.131633   -0.339004    1.333616
  H      6.105103    0.653733    2.375608
  H      7.733565    1.204332    1.949216
  H      7.038407    4.783381    0.842465
  H      8.024983    3.533261    0.061397
  H      7.693917    3.454585    1.802864
  H      5.349504    2.869640    2.633682
  H      4.048307    2.543037    1.473643
  H      4.664190    4.193859    1.684650
  H      4.568653   -2.411236   -1.471205
  H      2.863093   -2.877840   -1.520689
  H      3.790294   -3.075886   -0.022501

----------------------------
CARTESIAN COORDINATES (A.U.)
----------------------------
  NO LB      ZA    FRAG     MASS         X           Y           Z
   0 C     6.0000    0    12.011   -9.529814    0.556031    0.576845
   1 C     6.0000    0    12.011  -12.184681   -0.237838   -0.108292
   2 C     6.0000    0    12.011  -13.185284    1.226071   -2.400606
   3 H     1.0000    0     1.008  -13.461621    0.169324    1.488762
   4 H     1.0000    0     1.008  -12.266904   -2.272874   -0.479789
   5 C     6.0000    0    12.011   -9.189717    3.317955    0.825885
   6 C     6.0000    0    12.011  -10.273765    4.840308   -1.335562
   7 C     6.0000    0    12.011  -13.003301    4.063241   -1.933210
   8 H     1.0000    0     1.008   -9.110290    4.500202   -3.025696
   9 H     1.0000    0     1.008  -10.167581    6.862682   -0.909722
  10 H     1.0000    0     1.008  -13.694192    5.090156   -3.594764
  11 H     1.0000    0     1.008  -14.235427    4.554002   -0.331371
  12 O     8.0000    0    15.999  -15.710725    0.467380   -3.022311
  13 H     1.0000    0     1.008  -12.052808    0.727884   -4.068676
  14 C     6.0000    0    12.011   -7.664429   -1.176979    0.831905
  15 C     6.0000    0    12.011   -8.096104    4.410859    2.826290
  16 H     1.0000    0     1.008   -7.371170    3.296335    4.390692
  17 H     1.0000    0     1.008   -7.921371    6.454680    2.949194
  18 C     6.0000    0    12.011   -5.025706   -0.661207    1.303103
  19 H     1.0000    0     1.008   -8.212601   -3.144631    0.578652
  20 C     6.0000    0    12.011   -3.187767   -2.389932    1.684490
  21 H     1.0000    0     1.008   -4.488046    1.322284    1.326665
  22 C     6.0000    0    12.011   -3.554225   -5.213112    1.797912
  23 C     6.0000    0    12.011   -1.759091   -6.608385   -0.020085
  24 H     1.0000    0     1.008   -5.508623   -5.767643    1.420536
  25 H     1.0000    0     1.008   -3.119695   -5.831498    3.738051
  26 C     6.0000    0    12.011    1.006478   -5.791773    0.293458
  27 H     1.0000    0     1.008   -2.373421   -6.266911   -1.971028
  28 H     1.0000    0     1.008   -1.920252   -8.650215    0.298996
  29 C     6.0000    0    12.011    1.313013   -2.916016    0.071656
  30 H     1.0000    0     1.008    2.162827   -6.783705   -1.106674
  31 H     1.0000    0     1.008    1.685058   -6.382043    2.168640
  32 C     6.0000    0    12.011   -0.473897   -1.681285    2.069595
  33 H     1.0000    0     1.008    0.103891   -2.538271    3.885855
  34 C     6.0000    0    12.011    0.348012    1.081189    2.138875
  35 H     1.0000    0     1.008  -16.777240    0.886097   -1.599753
  36 C     6.0000    0    12.011    3.246621    0.940504    1.767793
  37 H     1.0000    0     1.008   -0.194526    2.012031    3.905799
  38 H     1.0000    0     1.008   -0.528882    2.145632    0.594296
  39 C     6.0000    0    12.011    3.887610   -1.818829    0.963032
  40 H     1.0000    0     1.008    4.269226    1.449356    3.492322
  41 H     1.0000    0     1.008    3.872300    2.269404    0.306526
  42 H     1.0000    0     1.008    4.426895   -2.894841    2.663478
  43 C     6.0000    0    12.011    6.159612   -1.899861   -0.860474
  44 C     6.0000    0    12.011    0.669798   -2.000677   -2.604098
  45 H     1.0000    0     1.008   -1.337206   -2.258964   -3.030681
  46 H     1.0000    0     1.008    1.762132   -3.048133   -4.016988
  47 H     1.0000    0     1.008    1.097698    0.008708   -2.845012
  48 H     1.0000    0     1.008    5.680817   -0.787197   -2.550186
  49 C     6.0000    0    12.011    6.874305   -4.588435   -1.690340
  50 C     6.0000    0    12.011    8.415114   -0.680693    0.378353
  51 C     6.0000    0    12.011    9.621140    1.346521   -0.503992
  52 H     1.0000    0     1.008    9.070193   -1.603313    2.104811
  53 H     1.0000    0     1.008    8.903932    2.222613   -2.233684
  54 C     6.0000    0    12.011   11.896845    2.633932    0.621022
  55 C     6.0000    0    12.011   12.935904    1.306481    2.965601
  56 C     6.0000    0    12.011   11.324425    5.485533    1.042285
  57 H     1.0000    0     1.008   13.384737    2.582698   -0.839379
  58 H     1.0000    0     1.008   10.523332    6.175816   -0.749514
  59 C     6.0000    0    12.011   13.724270    7.012637    1.566014
  60 C     6.0000    0    12.011    9.357317    5.928512    3.113993
  61 H     1.0000    0     1.008   13.476834   -0.640624    2.520169
  62 H     1.0000    0     1.008   11.536972    1.235377    4.489249
  63 H     1.0000    0     1.008   14.614320    2.275857    3.683485
  64 H     1.0000    0     1.008   13.300662    9.039280    1.592029
  65 H     1.0000    0     1.008   15.165020    6.676896    0.116024
  66 H     1.0000    0     1.008   14.539395    6.528219    3.406919
  67 H     1.0000    0     1.008   10.109097    5.422835    4.976938
  68 H     1.0000    0     1.008    7.650192    4.805643    2.784781
  69 H     1.0000    0     1.008    8.814041    7.925245    3.183527
  70 H     1.0000    0     1.008    8.633503   -4.556576   -2.780175
  71 H     1.0000    0     1.008    5.410461   -5.438330   -2.873686
  72 H     1.0000    0     1.008    7.162617   -5.812582   -0.042521

--------------------------------
INTERNAL COORDINATES (ANGSTROEM)
--------------------------------
 C      0   0   0     0.000000000000     0.00000000     0.00000000
 C      1   0   0     1.510516614069     0.00000000     0.00000000
 C      2   1   0     1.533604457661   111.74576579     0.00000000
 H      2   1   3     1.103298417782   109.35777185   241.46759607
 H      2   1   3     1.095555441730   110.69458889   122.88720942
 C      1   2   3     1.478471810977   114.17608951    50.53933740
 C      6   1   2     1.512055612939   114.39802935   311.95281650
 C      3   2   1     1.524646859690   110.32177368   305.04992572
 H      7   6   1     1.100625002048   108.38183844   290.04707270
 H      7   6   1     1.095104179616   110.21461929   172.83097839
 H      8   3   2     1.096386577125   109.68919687   179.07936728
 H      8   3   2     1.100493914970   108.65762126   296.51111230
 O      3   2   1     1.433668045932   111.21653122   180.35884691
 H      3   2   1     1.099001921767   109.01764240    65.19585240
 C      1   2   3     1.354118562131   120.90224235   232.75536670
 C      6   1   2     1.337892537685   123.40197346   129.74872662
 H     16   6   1     1.086431421584   121.39731524     0.65906316
 H     16   6   1     1.087435500458   120.93310419   181.33153354
 C     15   1   2     1.444460683963   126.43677992   175.36751651
 H     15   1   2     1.089164750453   116.16949521   358.00028858
 C     19  15   1     1.350383531661   126.44451572   176.39978163
 H     19  15   1     1.087568088844   115.92754171   355.64995762
 C     21  19  15     1.507690952628   125.77346118   357.34812906
 C     23  21  19     1.540479071914   111.76226077   127.50477148
 H     23  21  19     1.093437648041   112.35294480     3.40318259
 H     23  21  19     1.101827047558   107.73057913   246.12890719
 C     24  23  21     1.534936803391   112.67493365    50.91979896
 H     24  23  21     1.097348830546   109.02210785   288.82809394
 H     24  23  21     1.096923688378   109.14997756   172.87021360
 C     27  24  23     1.534900062497   111.81565865   306.16759104
 H     27  24  23     1.094954725647   108.94881111   182.62690784
 H     27  24  23     1.100535598977   109.18714611    66.13690470
 C     21  19  15     1.498195517060   122.76259905   177.75209700
 H     33  21  19     1.105848893353   106.29637295   124.31268505
 C     33  21  19     1.525609499350   121.09001474     2.10110318
 H     13   3   2     0.966592814517   107.53925882    62.69981644
 C     35  33  21     1.548187172659   103.49321202   196.13249079
 H     35  33  21     1.095132932658   112.13357930    74.11378264
 H     35  33  21     1.095755582057   110.72680789   314.51038318
 C     30  27  24     1.554279172459   116.09056778   166.36580677
 H     37  35  33     1.094597928522   111.85307757   249.92153705
 H     37  35  33     1.096400379432   110.96552061   131.37942116
 H     40  30  27     1.102435902726   106.36040939   321.14031110
 C     40  30  27     1.542234879973   118.88639913    81.97458317
 C     30  27  24     1.534726411376   111.10186081   294.27833638
 H     45  30  27     1.094354414926   111.47710671    66.76919182
 H     45  30  27     1.095616086211   110.66604863   306.62148697
 H     45  30  27     1.094612337485   111.60238773   186.78858745
 H     44  40  30     1.100178823395   108.30684975    61.21000440
 C     44  40  30     1.536245483195   113.36120096   300.54143861
 C     44  40  30     1.506840766658   109.47440347   178.58615294
 C     51  44  40     1.332710486258   124.85691728   240.61450968
 H     51  44  40     1.092339381655   115.07934908    61.70236096
 H     52  51  44     1.093971434585   117.91244751     1.38372982
 C     52  51  44     1.506243243470   127.47839349   180.80932507
 C     55  52  51     1.528105608730   113.61998846     3.20137300
 C     55  52  51     1.555164910230   109.86468079   234.74630919
 H     55  52  51     1.103587340780   106.41077908   121.28519868
 H     57  55  52     1.100991888356   105.87117296   310.79793210
 C     57  55  52     1.530557037999   112.12662441   193.88985481
 C     57  55  52     1.529836245534   112.57763273    68.24071113
 H     56  55  52     1.095055785240   110.59899617    58.92928653
 H     56  55  52     1.095226722290   111.73399217   299.05544945
 H     56  55  52     1.093763201203   111.01380339   178.40375112
 H     60  57  55     1.095716295077   110.44462644   172.11598204
 H     60  57  55     1.096170386844   111.39338069    52.04658867
 H     60  57  55     1.095795980091   111.35059556   291.29668452
 H     61  57  55     1.096233367584   111.10680177    68.41535981
 H     61  57  55     1.095216840251   111.35355962   307.90893726
 H     61  57  55     1.095655769228   110.51024844   187.63948185
 H     50  44  40     1.095222065375   110.21370477   187.21173683
 H     50  44  40     1.092910022303   111.74034594    67.27006029
 H     50  44  40     1.096938248468   110.72688240   306.67843182

---------------------------
INTERNAL COORDINATES (A.U.)
---------------------------
 C      0   0   0     0.000000000000     0.00000000     0.00000000
 C      1   0   0     2.854462721329     0.00000000     0.00000000
 C      2   1   0     2.898092422741   111.74576579     0.00000000
 H      2   1   3     2.084931853597   109.35777185   241.46759607
 H      2   1   3     2.070299749396   110.69458889   122.88720942
 C      1   2   3     2.793906819469   114.17608951    50.53933740
 C      6   1   2     2.857371007714   114.39802935   311.95281650
 C      3   2   1     2.881165015757   110.32177368   305.04992572
 H      7   6   1     2.079879830017   108.38183844   290.04707270
 H      7   6   1     2.069446987587   110.21461929   172.83097839
 H      8   3   2     2.071870367674   109.68919687   179.07936728
 H      8   3   2     2.079632111339   108.65762126   296.51111230
 O      3   2   1     2.709239973765   111.21653122   180.35884691
 H      3   2   1     2.076812652793   109.01764240    65.19585240
 C      1   2   3     2.558913235287   120.90224235   232.75536670
 C      6   1   2     2.528250492842   123.40197346   129.74872662
 H     16   6   1     2.053057850080   121.39731524     0.65906316
 H     16   6   1     2.054955284170   120.93310419   181.33153354
 C     15   1   2     2.729635103907   126.43677992   175.36751651
 H     15   1   2     2.058223093077   116.16949521   358.00028858
 C     19  15   1     2.551855050597   126.44451572   176.39978163
 H     19  15   1     2.055205839907   115.92754171   355.64995762
 C     21  19  15     2.849122995059   125.77346118   357.34812906
 C     23  21  19     2.911083560955   111.76226077   127.50477148
 H     23  21  19     2.066297699316   112.35294480     3.40318259
 H     23  21  19     2.082151366832   107.73057913   246.12890719
 C     24  23  21     2.900610191286   112.67493365    50.91979896
 H     24  23  21     2.073688763110   109.02210785   288.82809394
 H     24  23  21     2.072885360845   109.14997756   172.87021360
 C     27  24  23     2.900540761058   111.81565865   306.16759104
 H     27  24  23     2.069164560516   108.94881111   182.62690784
 H     27  24  23     2.079710882698   109.18714611    66.13690470
 C     21  19  15     2.831179222313   122.76259905   177.75209700
 H     33  21  19     2.089751553938   106.29637295   124.31268505
 C     33  21  19     2.882984141080   121.09001474     2.10110318
 H     13   3   2     1.826595702453   107.53925882    62.69981644
 C     35  33  21     2.925649760376   103.49321202   196.13249079
 H     35  33  21     2.069501322962   112.13357930    74.11378264
 H     35  33  21     2.070677959803   110.72680789   314.51038318
 C     30  27  24     2.937161971605   116.09056778   166.36580677
 H     37  35  33     2.068490311664   111.85307757   249.92153705
 H     37  35  33     2.071896450253   110.96552061   131.37942116
 H     40  30  27     2.083301936355   106.36040939   321.14031110
 C     40  30  27     2.914401557329   118.88639913    81.97458317
 C     30  27  24     2.900212607996   111.10186081   294.27833638
 H     45  30  27     2.068030137658   111.47710671    66.76919182
 H     45  30  27     2.070414350857   110.66604863   306.62148697
 H     45  30  27     2.068517540659   111.60238773   186.78858745
 H     44  40  30     2.079036674556   108.30684975    61.21000440
 C     44  40  30     2.903083237711   113.36120096   300.54143861
 C     44  40  30     2.847516376412   109.47440347   178.58615294
 C     51  44  40     2.518457834832   124.85691728   240.61450968
 H     51  44  40     2.064222276625   115.07934908    61.70236096
 H     52  51  44     2.067306409699   117.91244751     1.38372982
 C     52  51  44     2.846387221228   127.47839349   180.80932507
 C     55  52  51     2.887701104208   113.61998846     3.20137300
 C     55  52  51     2.938835773419   109.86468079   234.74630919
 H     55  52  51     2.085477838936   106.41077908   121.28519868
 H     57  55  52     2.080573144661   105.87117296   310.79793210
 C     57  55  52     2.892333634164   112.12662441   193.88985481
 C     57  55  52     2.890971533806   112.57763273    68.24071113
 H     56  55  52     2.069355535469   110.59899617    58.92928653
 H     56  55  52     2.069678559680   111.73399217   299.05544945
 H     56  55  52     2.066912905636   111.01380339   178.40375112
 H     60  57  55     2.070603718171   110.44462644   172.11598204
 H     60  57  55     2.071461827250   111.39338069    52.04658867
 H     60  57  55     2.070754301024   111.35059556   291.29668452
 H     61  57  55     2.071580843600   111.10680177    68.41535981
 H     61  57  55     2.069659885333   111.35355962   307.90893726
 H     61  57  55     2.070489340891   110.51024844   187.63948185
 H     50  44  40     2.069669759386   110.21370477   187.21173683
 H     50  44  40     2.065300631171   111.74034594    67.27006029
 H     50  44  40     2.072912875428   110.72688240   306.67843182

---------------------
BASIS SET INFORMATION
---------------------
There are 3 groups of distinct atoms

 Group   1 Type C   : 8s5p1d contracted to 3s3p1d pattern {521/311/1}
 Group   2 Type H   : 4s2p contracted to 2s1p pattern {31/2}
 Group   3 Type O   : 8s5p1d contracted to 3s3p1d pattern {521/311/1}

Atom   0C    basis set group =>   1
Atom   1C    basis set group =>   1
Atom   2C    basis set group =>   1
Atom   3H    basis set group =>   2
Atom   4H    basis set group =>   2
Atom   5C    basis set group =>   1
Atom   6C    basis set group =>   1
Atom   7C    basis set group =>   1
Atom   8H    basis set group =>   2
Atom   9H    basis set group =>   2
Atom  10H    basis set group =>   2
Atom  11H    basis set group =>   2
Atom  12O    basis set group =>   3
Atom  13H    basis set group =>   2
Atom  14C    basis set group =>   1
Atom  15C    basis set group =>   1
Atom  16H    basis set group =>   2
Atom  17H    basis set group =>   2
Atom  18C    basis set group =>   1
Atom  19H    basis set group =>   2
Atom  20C    basis set group =>   1
Atom  21H    basis set group =>   2
Atom  22C    basis set group =>   1
Atom  23C    basis set group =>   1
Atom  24H    basis set group =>   2
Atom  25H    basis set group =>   2
Atom  26C    basis set group =>   1
Atom  27H    basis set group =>   2
Atom  28H    basis set group =>   2
Atom  29C    basis set group =>   1
Atom  30H    basis set group =>   2
Atom  31H    basis set group =>   2
Atom  32C    basis set group =>   1
Atom  33H    basis set group =>   2
Atom  34C    basis set group =>   1
Atom  35H    basis set group =>   2
Atom  36C    basis set group =>   1
Atom  37H    basis set group =>   2
Atom  38H    basis set group =>   2
Atom  39C    basis set group =>   1
Atom  40H    basis set group =>   2
Atom  41H    basis set group =>   2
Atom  42H    basis set group =>   2
Atom  43C    basis set group =>   1
Atom  44C    basis set group =>   1
Atom  45H    basis set group =>   2
Atom  46H    basis set group =>   2
Atom  47H    basis set group =>   2
Atom  48H    basis set group =>   2
Atom  49C    basis set group =>   1
Atom  50C    basis set group =>   1
Atom  51C    basis set group =>   1
Atom  52H    basis set group =>   2
Atom  53H    basis set group =>   2
Atom  54C    basis set group =>   1
Atom  55C    basis set group =>   1
Atom  56C    basis set group =>   1
Atom  57H    basis set group =>   2
Atom  58H    basis set group =>   2
Atom  59C    basis set group =>   1
Atom  60C    basis set group =>   1
Atom  61H    basis set group =>   2
Atom  62H    basis set group =>   2
Atom  63H    basis set group =>   2
Atom  64H    basis set group =>   2
Atom  65H    basis set group =>   2
Atom  66H    basis set group =>   2
Atom  67H    basis set group =>   2
Atom  68H    basis set group =>   2
Atom  69H    basis set group =>   2
Atom  70H    basis set group =>   2
Atom  71H    basis set group =>   2
Atom  72H    basis set group =>   2

-------------------------
BASIS SET IN INPUT FORMAT
-------------------------

 # Basis set for element : H 
 NewGTO H 
 S 3 
   1      12.2518000000      0.0372173893
   2       1.8687100000      0.2538082070
   3       0.4182080000      0.7973867639
 S 1 
   1       0.1061000000      1.0000000000
 P 2 
   1       9.0000000000      0.0402678705
   2       1.0000000000      0.9880231245
  end;

 # Basis set for element : C 
 NewGTO C 
 S 5 
   1    1243.2000000000      0.0056300977
   2     187.1450000000      0.0419506039
   3      42.5126000000      0.1846643605
   4      11.7393000000      0.4665574214
   5       3.5054800000      0.4482347783
 S 2 
   1       5.3908900000     -0.1481148174
   2       0.4933410000      1.0519817143
 S 1 
   1       0.1497410000      1.0000000000
 P 3 
   1      59.6736000000      0.0113906672
   2       9.1805600000      0.1672414929
   3       1.9365800000      0.9041087436
 P 1 
   1       0.5262960000      1.0000000000
 P 1 
   1       0.1363190000      1.0000000000
 D 1 
   1       0.8000000000      1.0000000000
  end;

 # Basis set for element : O 
 NewGTO O 
 S 5 
   1    2288.6400000000      0.0054511382
   2     344.4160000000      0.0407189228
   3      78.2538000000      0.1813694209
   4      21.7195000000      0.4655368202
   5       6.5590700000      0.4512113212
 S 2 
   1      10.4656000000     -0.1502112012
   2       0.9643510000      1.0528679834
 S 1 
   1       0.2851270000      1.0000000000
 P 3 
   1     110.8840000000      0.0113058003
   2      17.0590000000      0.1699226452
   3       3.6899900000      0.9008060328
 P 1 
   1       0.9929960000      1.0000000000
 P 1 
   1       0.2449240000      1.0000000000
 D 1 
   1       1.0000000000      1.0000000000
  end;

---------------------------------
AUXILIARY/J BASIS SET INFORMATION
---------------------------------
There are 3 groups of distinct atoms

 Group   1 Type C   : 12s5p4d2f1g contracted to 6s4p3d1f1g pattern {711111/2111/211/2/1}
 Group   2 Type H   : 5s2p1d contracted to 3s1p1d pattern {311/2/1}
 Group   3 Type O   : 12s5p4d2f1g contracted to 6s4p3d1f1g pattern {711111/2111/211/2/1}

Atom   0C    basis set group =>   1
Atom   1C    basis set group =>   1
Atom   2C    basis set group =>   1
Atom   3H    basis set group =>   2
Atom   4H    basis set group =>   2
Atom   5C    basis set group =>   1
Atom   6C    basis set group =>   1
Atom   7C    basis set group =>   1
Atom   8H    basis set group =>   2
Atom   9H    basis set group =>   2
Atom  10H    basis set group =>   2
Atom  11H    basis set group =>   2
Atom  12O    basis set group =>   3
Atom  13H    basis set group =>   2
Atom  14C    basis set group =>   1
Atom  15C    basis set group =>   1
Atom  16H    basis set group =>   2
Atom  17H    basis set group =>   2
Atom  18C    basis set group =>   1
Atom  19H    basis set group =>   2
Atom  20C    basis set group =>   1
Atom  21H    basis set group =>   2
Atom  22C    basis set group =>   1
Atom  23C    basis set group =>   1
Atom  24H    basis set group =>   2
Atom  25H    basis set group =>   2
Atom  26C    basis set group =>   1
Atom  27H    basis set group =>   2
Atom  28H    basis set group =>   2
Atom  29C    basis set group =>   1
Atom  30H    basis set group =>   2
Atom  31H    basis set group =>   2
Atom  32C    basis set group =>   1
Atom  33H    basis set group =>   2
Atom  34C    basis set group =>   1
Atom  35H    basis set group =>   2
Atom  36C    basis set group =>   1
Atom  37H    basis set group =>   2
Atom  38H    basis set group =>   2
Atom  39C    basis set group =>   1
Atom  40H    basis set group =>   2
Atom  41H    basis set group =>   2
Atom  42H    basis set group =>   2
Atom  43C    basis set group =>   1
Atom  44C    basis set group =>   1
Atom  45H    basis set group =>   2
Atom  46H    basis set group =>   2
Atom  47H    basis set group =>   2
Atom  48H    basis set group =>   2
Atom  49C    basis set group =>   1
Atom  50C    basis set group =>   1
Atom  51C    basis set group =>   1
Atom  52H    basis set group =>   2
Atom  53H    basis set group =>   2
Atom  54C    basis set group =>   1
Atom  55C    basis set group =>   1
Atom  56C    basis set group =>   1
Atom  57H    basis set group =>   2
Atom  58H    basis set group =>   2
Atom  59C    basis set group =>   1
Atom  60C    basis set group =>   1
Atom  61H    basis set group =>   2
Atom  62H    basis set group =>   2
Atom  63H    basis set group =>   2
Atom  64H    basis set group =>   2
Atom  65H    basis set group =>   2
Atom  66H    basis set group =>   2
Atom  67H    basis set group =>   2
Atom  68H    basis set group =>   2
Atom  69H    basis set group =>   2
Atom  70H    basis set group =>   2
Atom  71H    basis set group =>   2
Atom  72H    basis set group =>   2

-------------------------------------
AUXILIARY/J BASIS SET IN INPUT FORMAT
-------------------------------------

 # Auxiliary/J basis set for element : H 
 NewAuxJGTO H 
 S 3 
   1      15.6752927000      0.1007184237
   2       3.6063578000      0.3404257499
   3       1.2080016000      0.6491996172
 S 1 
   1       0.4726794000      1.0000000000
 S 1 
   1       0.2018100000      1.0000000000
 P 2 
   1       2.0281365000      0.5596620919
   2       0.5358730000      0.5596620919
 D 1 
   1       2.2165124000      1.0000000000
  end;

 # Auxiliary/J basis set for element : C 
 NewAuxJGTO C 
 S 7 
   1    1861.0916331000      0.0134602335
   2     642.9939764000      0.0299160374
   3     235.1105725000      0.1008649584
   4      90.7028894000      0.2370970548
   5      36.7794552000      0.3924037254
   6      15.6046273000      0.3195862154
   7       6.8907294000      0.0530104441
 S 1 
   1       3.1478850000     -1.0000000000
 S 1 
   1       1.4777287000      1.0000000000
 S 1 
   1       0.7076466000      1.0000000000
 S 1 
   1       0.3430122000      1.0000000000
 S 1 
   1       0.1669453000      1.0000000000
 P 2 
   1      13.5472892000     -0.6769313712
   2       5.4669419000     -0.3779500978
 P 1 
   1       2.1751721000      1.0000000000
 P 1 
   1       0.8582194000      1.0000000000
 P 1 
   1       0.3376720000      1.0000000000
 D 2 
   1       5.9287253000     -0.3533329857
   2       1.9809209000     -0.7456525731
 D 1 
   1       0.8055417000     -1.0000000000
 D 1 
   1       0.3531244000     -1.0000000000
 F 2 
   1       1.6755626000      0.6311076882
   2       0.5997536000      0.4968166032
 G 1 
   1       1.0024600000     -1.0000000000
  end;

 # Auxiliary/J basis set for element : O 
 NewAuxJGTO O 
 S 7 
   1    2876.8216605000      0.0168151159
   2    1004.7443032000      0.0340137548
   3     369.7579954000      0.1194951309
   4     142.9442404000      0.2664627624
   5      57.8366425000      0.4202764046
   6      24.3864983000      0.2765077335
   7      10.6622662000      0.0057008815
 S 1 
   1       4.8070437000     -1.0000000000
 S 1 
   1       2.2210770000      1.0000000000
 S 1 
   1       1.0447795000      1.0000000000
 S 1 
   1       0.4968425000      1.0000000000
 S 1 
   1       0.2371384000      1.0000000000
 P 2 
   1      64.2613382000     -0.2731534179
   2      16.3006076000     -0.8168011598
 P 1 
   1       4.3550542000      1.0000000000
 P 1 
   1       1.2019554000      1.0000000000
 P 1 
   1       0.3354196000      1.0000000000
 D 2 
   1       9.2146611000     -0.4661230638
   2       2.8435251000     -0.6600908911
 D 1 
   1       0.9955759000     -1.0000000000
 D 1 
   1       0.3649441000     -1.0000000000
 F 2 
   1       2.6420115000      0.5931563945
   2       0.7345613000      0.5931563945
 G 1 
   1       1.3931000000     -1.0000000000
  end;



           ************************************************************
           *        Program running with 4 parallel MPI-processes     *
           *              working on a common directory               *
           ************************************************************
------------------------------------------------------------------------------
                           ORCA GTO INTEGRAL CALCULATION
                           -- RI-GTO INTEGRALS CHOSEN --
------------------------------------------------------------------------------
------------------------------------------------------------------------------
                   ___                                                        
                  /   \      - P O W E R E D   B Y -                         
                 /     \                                                     
                 |  |  |   _    _      __       _____    __    __             
                 |  |  |  | |  | |    /  \     |  _  \  |  |  /  |          
                  \  \/   | |  | |   /    \    | | | |  |  | /  /          
                 / \  \   | |__| |  /  /\  \   | |_| |  |  |/  /          
                |  |  |   |  __  | /  /__\  \  |    /   |      \           
                |  |  |   | |  | | |   __   |  |    \   |  |\   \          
                \     /   | |  | | |  |  |  |  | |\  \  |  | \   \       
                 \___/    |_|  |_| |__|  |__|  |_| \__\ |__|  \__/        
                                                                              
                      - O R C A' S   B I G   F R I E N D -                    
                                      &                                       
                       - I N T E G R A L  F E E D E R -                       
                                                                              
 v1 FN, 2020, v2 2021                                                         
------------------------------------------------------------------------------


Reading SHARK input file inpS.SHARKINP.tmp ... ok
----------------------
SHARK INTEGRAL PACKAGE
----------------------

Number of atoms                             ...     73
Number of basis functions                   ...    713
Number of shells                            ...    335
Maximum angular momentum                    ...      2
Integral batch strategy                     ... SHARK/LIBINT Hybrid
RI-J (if used) integral strategy            ... SPLIT-RIJ (Revised 2003 algorithm where possible)
Printlevel                                  ...      1
Contraction scheme used                     ... SEGMENTED contraction
Coulomb Range Separation                    ... NOT USED
Exchange Range Separation                   ... NOT USED
Finite Nucleus Model                        ... NOT USED
Auxiliary Coulomb fitting basis             ... AVAILABLE
   # of basis functions in Aux-J            ...   1905
   # of shells in Aux-J                     ...    655
   Maximum angular momentum in Aux-J        ...      4
Auxiliary J/K fitting basis                 ... NOT available
Auxiliary Correlation fitting basis         ... NOT available
Auxiliary 'external' fitting basis          ... NOT available
Integral threshold                          ...     3.000000e-11
Primitive cut-off                           ...     1.000000e-12
Primitive pair pre-selection threshold      ...     1.000000e-12

Calculating pre-screening integrals         ... done (  0.0 sec) Dimension = 335
Organizing shell pair data                  ... done (  0.2 sec)
Shell pair information
Total number of shell pairs                 ...     56280
Shell pairs after pre-screening             ...     31599
Total number of primitive shell pairs       ...    225367
Primitive shell pairs kept                  ...     74429
          la=0 lb=0:   9678 shell pairs
          la=1 lb=0:  12985 shell pairs
          la=1 lb=1:   4239 shell pairs
          la=2 lb=0:   2759 shell pairs
          la=2 lb=1:   1745 shell pairs
          la=2 lb=2:    193 shell pairs

Calculating one electron integrals          ... done (  0.1 sec)
Calculating RI/J V-Matrix + Cholesky decomp.... done (  0.2 sec)
Calculating Nuclear repulsion               ... done (  0.0 sec) ENN=   2775.241035757998 Eh

SHARK setup successfully completed in   0.8 seconds

Maximum memory used throughout the entire GTOINT-calculation: 61.1 MB


           ************************************************************
           *        Program running with 4 parallel MPI-processes     *
           *              working on a common directory               *
           ************************************************************
-------------------------------------------------------------------------------
                                 ORCA SCF
-------------------------------------------------------------------------------

------------
SCF SETTINGS
------------
Hamiltonian:
 Density Functional     Method          .... DFT(GTOs)
 Exchange Functional    Exchange        .... revTPSS
 Correlation Functional Correlation     .... revTPSS
 LDA part of GGA corr.  LDAOpt          .... PW91-LDA
 Gradients option       PostSCFGGA      .... off
   Density functional embedding theory  .... OFF
 RI-approximation to the Coulomb term is turned on
   Number of AuxJ basis functions       .... 1905


General Settings:
 Integral files         IntName         .... inpS
 Hartree-Fock type      HFTyp           .... RHF
 Total Charge           Charge          ....    0
 Multiplicity           Mult            ....    1
 Number of Electrons    NEL             ....  220
 Basis Dimension        Dim             ....  713
 Nuclear Repulsion      ENuc            ....   2775.2410357580 Eh

Convergence Acceleration:
 DIIS                   CNVDIIS         .... on
   Start iteration      DIISMaxIt       ....    12
   Startup error        DIISStart       ....  0.200000
   # of expansion vecs  DIISMaxEq       ....     5
   Bias factor          DIISBfac        ....   1.050
   Max. coefficient     DIISMaxC        ....  10.000
 Trust-Rad. Augm. Hess. CNVTRAH         .... auto
   Auto Start mean grad. ratio tolernc. ....  1.125000
   Auto Start start iteration           ....    20
   Auto Start num. interpolation iter.  ....    10
   Max. Number of Micro iterations      ....    16
   Max. Number of Macro iterations      .... Maxiter - #DIIS iter
   Number of Davidson start vectors     ....     2
   Converg. threshold I  (grad. norm)   ....   1.000e-04
   Converg. threshold II (energy diff.) ....   1.000e-07
   Grad. Scal. Fac. for Micro threshold ....   0.100
   Minimum threshold for Micro iter.    ....   0.010
   NR start threshold (gradient norm)   ....   0.001
   Initial trust radius                 ....   0.400
   Minimum AH scaling param. (alpha)    ....   1.000
   Maximum AH scaling param. (alpha)    .... 1000.000
   Orbital update algorithm             .... Taylor
   White noise on init. David. guess    .... on
   Maximum white noise                  ....   0.010
   Quad. conv. algorithm                .... NR
 SOSCF                  CNVSOSCF        .... off
 Level Shifting         CNVShift        .... on
   Level shift para.    LevelShift      ....    0.2500
   Turn off err/grad.   ShiftErr        ....    0.0010
 Zerner damping         CNVZerner       .... off
 Static damping         CNVDamp         .... on
   Fraction old density DampFac         ....    0.7000
   Max. Damping (<1)    DampMax         ....    0.9800
   Min. Damping (>=0)   DampMin         ....    0.0000
   Turn off err/grad.   DampErr         ....    0.1000
 Fernandez-Rico         CNVRico         .... off

SCF Procedure:
 Maximum # iterations   MaxIter         ....   125
 SCF integral mode      SCFMode         .... Direct
   Integral package                     .... SHARK and LIBINT hybrid scheme
 Reset frequency        DirectResetFreq ....    20
 Integral Threshold     Thresh          ....  3.000e-11 Eh
 Primitive CutOff       TCut            ....  1.000e-12 Eh

Convergence Tolerance:
 Convergence Check Mode ConvCheckMode   .... Total+1el-Energy
 Convergence forced     ConvForced      .... 0
 Energy Change          TolE            ....  1.000e-07 Eh
 1-El. energy change                    ....  1.000e-04 Eh
 DIIS Error             TolErr          ....  1.000e-07


Diagonalization of the overlap matrix:
Smallest eigenvalue                        ... 5.028e-04
Time for diagonalization                   ...    0.063 sec
Threshold for overlap eigenvalues          ... 1.000e-08
Number of eigenvalues below threshold      ... 0
Time for construction of square roots      ...    0.073 sec
Total time needed                          ...    0.138 sec

Time for model grid setup =    0.904 sec

------------------------------
INITIAL GUESS: MODEL POTENTIAL
------------------------------
Loading Hartree-Fock densities                     ... done
Calculating cut-offs                               ... done
Initializing the effective Hamiltonian             ... done
Setting up the integral package (SHARK)            ... done
Starting the Coulomb interaction                   ... done (   0.8 sec)
Reading the grid                                   ... done
Mapping shells                                     ... done
Starting the XC term evaluation                    ... done (   0.3 sec)
  promolecular density results
     # of electrons  =    219.982683431
     EX              =   -164.432141211
     EC              =     -7.324943862
     EX+EC           =   -171.757085074
Transforming the Hamiltonian                       ... done (   0.0 sec)
Diagonalizing the Hamiltonian                      ... done (   0.1 sec)
Back transforming the eigenvectors                 ... done (   0.0 sec)
Now organizing SCF variables                       ... done
                      ------------------
                      INITIAL GUESS DONE (   2.1 sec)
                      ------------------
-------------------
DFT GRID GENERATION
-------------------

General Integration Accuracy     IntAcc      ... 4.388
Radial Grid Type                 RadialGrid  ... OptM3 with GC (2021)
Angular Grid (max. ang.)         AngularGrid ... 4 (Lebedev-302)
Angular grid pruning method      GridPruning ... 4 (adaptive)
Weight generation scheme         WeightScheme... Becke
Basis function cutoff            BFCut       ... 1.0000e-11
Integration weight cutoff        WCut        ... 1.0000e-14
Angular grids for H and He will be reduced by one unit
Partially contracted basis set               ... off
Rotationally invariant grid construction     ... off

Total number of grid points                  ...   309920
Total number of batches                      ...     4877
Average number of points per batch           ...       63
Average number of grid points per atom       ...     4245
Time for grid setup =    3.005 sec


--------------------
CPCM SOLVATION MODEL
--------------------
CPCM parameters:
  Epsilon                                         ...       4.9000
  Refrac                                          ...       1.4500
  Rsolv                                           ...       1.3000
  Surface type                                    ... GAUSSIAN VDW
  Epsilon function type                           ...         CPCM
Radii:
 Radius for C  used is    3.8550 Bohr (=   2.0400 Ang.)
 Radius for H  used is    2.4944 Bohr (=   1.3200 Ang.)
 Radius for O  used is    3.4469 Bohr (=   1.8240 Ang.)
Calculating surface                               ...        done! (  0.0s)
GEPOL surface points                              ...         3650
GEPOL Volume                                      ...    3593.6217
GEPOL Surface-area                                ...    1786.9462
Calculating surface distance matrix               ...        done! (  0.1s)
Performing Cholesky decomposition & store         ...        done! (  0.5s)
Overall time for CPCM initialization              ...                 0.7s
--------------
SCF ITERATIONS
--------------
ITER       Energy         Delta-E        Max-DP      RMS-DP      [F,P]     Damp
               ***  Starting incremental Fock matrix formation  ***

  HOMO= 109 E= -1.857 eV LUMO=  7.834 eV gap=   9.690 eV
  0  -1167.5243810445   0.000000000000 0.05326477  0.00083016  0.2610759 0.7000

  HOMO= 109 E= -3.343 eV LUMO=  6.720 eV gap=  10.063 eV
  1  -1167.8980523496  -0.373671305174 0.02889606  0.00061258  0.1016864 0.7000
                               ***Turning on DIIS***

  HOMO= 109 E= -4.320 eV LUMO=  5.828 eV gap=  10.148 eV
  2  -1168.0446226431  -0.146570293512 0.05171957  0.00101112  0.0307438 0.0000

  HOMO= 109 E= -4.949 eV LUMO=  5.235 eV gap=  10.185 eV
  3  -1168.2421168033  -0.197494160181 0.02314020  0.00047139  0.0542796 0.0000

  HOMO= 109 E= -4.986 eV LUMO=  5.199 eV gap=  10.185 eV
  4  -1168.3092146857  -0.067097882345 0.00744955  0.00015229  0.0103894 0.0000

  HOMO= 109 E= -4.936 eV LUMO=  5.256 eV gap=  10.192 eV
  5  -1168.3122946805  -0.003079994833 0.00307295  0.00005670  0.0091014 0.0000

  HOMO= 109 E= -4.917 eV LUMO=  5.272 eV gap=  10.189 eV
  6  -1168.3125576301  -0.000262949632 0.00125160  0.00001915  0.0029304 0.0000

  HOMO= 109 E= -4.919 eV LUMO= -1.533 eV gap=   3.386 eV
  7  -1168.3125781038  -0.000020473662 0.00072211  0.00001163  0.0005780 0.0000

  HOMO= 109 E= -4.917 eV LUMO= -1.531 eV gap=   3.386 eV
  8  -1168.3125810665  -0.000002962736 0.00027397  0.00000293  0.0003865 0.0000

  HOMO= 109 E= -4.915 eV LUMO= -1.529 eV gap=   3.386 eV
  9  -1168.3125816883  -0.000000621788 0.00017330  0.00000157  0.0002773 0.0000

  HOMO= 109 E= -4.915 eV LUMO= -1.529 eV gap=   3.386 eV
 10  -1168.3125819581  -0.000000269809 0.00005834  0.00000068  0.0001096 0.0000

  HOMO= 109 E= -4.916 eV LUMO= -1.529 eV gap=   3.386 eV
 11  -1168.3125820028  -0.000000044691 0.00002394  0.00000026  0.0000308 0.0000

  HOMO= 109 E= -4.916 eV LUMO= -1.529 eV gap=   3.386 eV
 12  -1168.3125819866   0.000000016170 0.00000969  0.00000011  0.0000151 0.0000

  HOMO= 109 E= -4.916 eV LUMO= -1.529 eV gap=   3.386 eV
 13  -1168.3125819974  -0.000000010750 0.00000482  0.00000004  0.0000084 0.0000
                 **** Energy Check signals convergence ****

               *****************************************************
               *                     SUCCESS                       *
               *           SCF CONVERGED AFTER  14 CYCLES          *
               *****************************************************


----------------
TOTAL SCF ENERGY
----------------

Total Energy       :        -1168.31258202 Eh          -31791.40160 eV

Components:
Nuclear Repulsion  :         2775.24103576 Eh           75518.14785 eV
Electronic Energy  :        -3943.55361778 Eh         -107309.54945 eV
One Electron Energy:        -7096.89401935 Eh         -193116.30411 eV
Two Electron Energy:         3153.34040157 Eh           85806.75466 eV
CPCM Dielectric    :           -0.01024937 Eh              -0.27890 eV

Virial components:
Potential Energy   :        -2330.42282659 Eh          -63414.02902 eV
Kinetic Energy     :         1162.11024457 Eh           31622.62742 eV
Virial Ratio       :            2.00533713


DFT components:
N(Alpha)           :      110.000063681632 electrons
N(Beta)            :      110.000063681632 electrons
N(Total)           :      220.000127363263 electrons
E(X)               :     -169.585199036125 Eh       
E(C)               :       -7.442278093340 Eh       
E(XC)              :     -177.027477129465 Eh       
DFET-embed. en.    :        0.000000000000 Eh       
CPCM Solvation Model Properties:
Surface-charge          :           -0.04526812
Charge-correction       :           -0.00002571 Eh              -0.00070 eV
Free-energy (cav+disp)  :  This term is not implemented in the current solvation scheme

---------------
SCF CONVERGENCE
---------------

  Last Energy change         ...   -2.4322e-08  Tolerance :   1.0000e-07
  Last MAX-Density change    ...    2.5126e-06  Tolerance :   1.0000e-05
  Last RMS-Density change    ...    2.4198e-08  Tolerance :   1.0000e-06
  Last DIIS Error            ...    2.5887e-06  Tolerance :   1.0000e-07

             **** THE GBW FILE WAS UPDATED (inpS.gbw) ****
             **** DENSITY inpS.scfp WAS UPDATED ****
             **** ENERGY FILE WAS UPDATED (inpS.en.tmp) ****
             **** THE GBW FILE WAS UPDATED (inpS.gbw) ****
             **** DENSITY inpS.scfp WAS UPDATED ****
----------------
ORBITAL ENERGIES
----------------

  NO   OCC          E(Eh)            E(eV) 
   0   2.0000     -18.905577      -514.4469 
   1   2.0000     -10.057063      -273.6666 
   2   2.0000     -10.015837      -272.5448 
   3   2.0000     -10.013424      -272.4791 
   4   2.0000     -10.013327      -272.4765 
   5   2.0000     -10.011281      -272.4208 
   6   2.0000     -10.010212      -272.3917 
   7   2.0000     -10.010079      -272.3881 
   8   2.0000     -10.009713      -272.3781 
   9   2.0000     -10.008264      -272.3387 
  10   2.0000     -10.007865      -272.3278 
  11   2.0000     -10.007810      -272.3264 
  12   2.0000     -10.006727      -272.2969 
  13   2.0000     -10.006547      -272.2920 
  14   2.0000     -10.005477      -272.2629 
  15   2.0000     -10.005131      -272.2534 
  16   2.0000     -10.004162      -272.2271 
  17   2.0000     -10.000941      -272.1394 
  18   2.0000     -10.000219      -272.1198 
  19   2.0000      -9.998944      -272.0851 
  20   2.0000      -9.998337      -272.0686 
  21   2.0000      -9.998169      -272.0640 
  22   2.0000      -9.997425      -272.0438 
  23   2.0000      -9.997076      -272.0343 
  24   2.0000      -9.996297      -272.0131 
  25   2.0000      -9.996123      -272.0083 
  26   2.0000      -9.995785      -271.9991 
  27   2.0000      -9.994804      -271.9724 
  28   2.0000      -9.993480      -271.9364 
  29   2.0000      -0.955828       -26.0094 
  30   2.0000      -0.806991       -21.9593 
  31   2.0000      -0.790984       -21.5238 
  32   2.0000      -0.770143       -20.9567 
  33   2.0000      -0.756530       -20.5862 
  34   2.0000      -0.734299       -19.9813 
  35   2.0000      -0.727511       -19.7966 
  36   2.0000      -0.708531       -19.2801 
  37   2.0000      -0.707994       -19.2655 
  38   2.0000      -0.693538       -18.8721 
  39   2.0000      -0.675282       -18.3754 
  40   2.0000      -0.656717       -17.8702 
  41   2.0000      -0.651889       -17.7388 
  42   2.0000      -0.634861       -17.2754 
  43   2.0000      -0.628574       -17.1044 
  44   2.0000      -0.622818       -16.9477 
  45   2.0000      -0.616070       -16.7641 
  46   2.0000      -0.596952       -16.2439 
  47   2.0000      -0.589630       -16.0447 
  48   2.0000      -0.556965       -15.1558 
  49   2.0000      -0.548946       -14.9376 
  50   2.0000      -0.547318       -14.8933 
  51   2.0000      -0.533409       -14.5148 
  52   2.0000      -0.525792       -14.3075 
  53   2.0000      -0.507210       -13.8019 
  54   2.0000      -0.491247       -13.3675 
  55   2.0000      -0.480908       -13.0862 
  56   2.0000      -0.472499       -12.8573 
  57   2.0000      -0.464008       -12.6263 
  58   2.0000      -0.451199       -12.2778 
  59   2.0000      -0.441604       -12.0167 
  60   2.0000      -0.432044       -11.7565 
  61   2.0000      -0.427600       -11.6356 
  62   2.0000      -0.423338       -11.5196 
  63   2.0000      -0.415255       -11.2997 
  64   2.0000      -0.413739       -11.2584 
  65   2.0000      -0.409866       -11.1530 
  66   2.0000      -0.404592       -11.0095 
  67   2.0000      -0.395572       -10.7640 
  68   2.0000      -0.394940       -10.7469 
  69   2.0000      -0.392822       -10.6892 
  70   2.0000      -0.387600       -10.5471 
  71   2.0000      -0.383958       -10.4480 
  72   2.0000      -0.377100       -10.2614 
  73   2.0000      -0.371853       -10.1186 
  74   2.0000      -0.366451        -9.9717 
  75   2.0000      -0.361824        -9.8457 
  76   2.0000      -0.358049        -9.7430 
  77   2.0000      -0.357073        -9.7165 
  78   2.0000      -0.354585        -9.6488 
  79   2.0000      -0.352816        -9.6006 
  80   2.0000      -0.347127        -9.4458 
  81   2.0000      -0.344596        -9.3769 
  82   2.0000      -0.341685        -9.2977 
  83   2.0000      -0.338277        -9.2050 
  84   2.0000      -0.331879        -9.0309 
  85   2.0000      -0.327442        -8.9102 
  86   2.0000      -0.323966        -8.8156 
  87   2.0000      -0.320273        -8.7151 
  88   2.0000      -0.315135        -8.5753 
  89   2.0000      -0.313478        -8.5302 
  90   2.0000      -0.310303        -8.4438 
  91   2.0000      -0.305373        -8.3096 
  92   2.0000      -0.300254        -8.1703 
  93   2.0000      -0.293044        -7.9741 
  94   2.0000      -0.289811        -7.8861 
  95   2.0000      -0.288077        -7.8390 
  96   2.0000      -0.284264        -7.7352 
  97   2.0000      -0.284161        -7.7324 
  98   2.0000      -0.279646        -7.6096 
  99   2.0000      -0.278390        -7.5754 
 100   2.0000      -0.277246        -7.5442 
 101   2.0000      -0.276063        -7.5121 
 102   2.0000      -0.269529        -7.3343 
 103   2.0000      -0.267690        -7.2842 
 104   2.0000      -0.260799        -7.0967 
 105   2.0000      -0.248412        -6.7596 
 106   2.0000      -0.233277        -6.3478 
 107   2.0000      -0.227291        -6.1849 
 108   2.0000      -0.212746        -5.7891 
 109   2.0000      -0.180646        -4.9156 
 110   0.0000      -0.056202        -1.5293 
 111   0.0000      -0.013108        -0.3567 
 112   0.0000      -0.004652        -0.1266 
 113   0.0000       0.032653         0.8885 
 114   0.0000       0.038546         1.0489 
 115   0.0000       0.043319         1.1788 
 116   0.0000       0.045778         1.2457 
 117   0.0000       0.048846         1.3292 
 118   0.0000       0.051980         1.4145 
 119   0.0000       0.056886         1.5479 
 120   0.0000       0.062587         1.7031 
 121   0.0000       0.066299         1.8041 
 122   0.0000       0.073574         2.0021 
 123   0.0000       0.074473         2.0265 
 124   0.0000       0.074869         2.0373 
 125   0.0000       0.079024         2.1503 
 126   0.0000       0.083358         2.2683 
 127   0.0000       0.086188         2.3453 
 128   0.0000       0.087702         2.3865 
 129   0.0000       0.093762         2.5514 
 130   0.0000       0.099429         2.7056 
 131   0.0000       0.101006         2.7485 
 132   0.0000       0.103531         2.8172 
 133   0.0000       0.105467         2.8699 
 134   0.0000       0.109503         2.9797 
 135   0.0000       0.111925         3.0456 
 136   0.0000       0.114843         3.1250 
 137   0.0000       0.117507         3.1975 
 138   0.0000       0.122121         3.3231 
 139   0.0000       0.124835         3.3969 
 140   0.0000       0.125835         3.4241 
 141   0.0000       0.128486         3.4963 
 142   0.0000       0.130174         3.5422 
 143   0.0000       0.134791         3.6678 
 144   0.0000       0.139041         3.7835 
 145   0.0000       0.139685         3.8010 
 146   0.0000       0.142264         3.8712 
 147   0.0000       0.144224         3.9245 
 148   0.0000       0.146540         3.9876 
 149   0.0000       0.147794         4.0217 
 150   0.0000       0.148875         4.0511 
 151   0.0000       0.160196         4.3592 
 152   0.0000       0.161500         4.3946 
 153   0.0000       0.166992         4.5441 
 154   0.0000       0.168186         4.5766 
 155   0.0000       0.171673         4.6715 
 156   0.0000       0.177820         4.8387 
 157   0.0000       0.178566         4.8590 
 158   0.0000       0.180571         4.9136 
 159   0.0000       0.185008         5.0343 
 160   0.0000       0.186226         5.0675 
 161   0.0000       0.194575         5.2946 
 162   0.0000       0.195910         5.3310 
 163   0.0000       0.199849         5.4382 
 164   0.0000       0.200969         5.4686 
 165   0.0000       0.203223         5.5300 
 166   0.0000       0.204960         5.5773 
 167   0.0000       0.212896         5.7932 
 168   0.0000       0.217340         5.9141 
 169   0.0000       0.219576         5.9750 
 170   0.0000       0.223179         6.0730 
 171   0.0000       0.227449         6.1892 
 172   0.0000       0.229729         6.2512 
 173   0.0000       0.231028         6.2866 
 174   0.0000       0.240121         6.5340 
 175   0.0000       0.243395         6.6231 
 176   0.0000       0.246678         6.7125 
 177   0.0000       0.256042         6.9673 
 178   0.0000       0.262719         7.1489 
 179   0.0000       0.271070         7.3762 
 180   0.0000       0.274191         7.4611 
 181   0.0000       0.274783         7.4772 
 182   0.0000       0.290449         7.9035 
 183   0.0000       0.294189         8.0053 
 184   0.0000       0.297008         8.0820 
 185   0.0000       0.320536         8.7222 
 186   0.0000       0.332043         9.0354 
 187   0.0000       0.340531         9.2663 
 188   0.0000       0.348915         9.4944 
 189   0.0000       0.353602         9.6220 
 190   0.0000       0.355306         9.6684 
 191   0.0000       0.361051         9.8247 
 192   0.0000       0.363980         9.9044 
 193   0.0000       0.372133        10.1263 
 194   0.0000       0.375018        10.2048 
 195   0.0000       0.380162        10.3447 
 196   0.0000       0.383106        10.4248 
 197   0.0000       0.386256        10.5106 
 198   0.0000       0.391016        10.6401 
 199   0.0000       0.399329        10.8663 
 200   0.0000       0.405340        11.0299 
 201   0.0000       0.408991        11.1292 
 202   0.0000       0.412498        11.2246 
 203   0.0000       0.418156        11.3786 
 204   0.0000       0.429658        11.6916 
 205   0.0000       0.435498        11.8505 
 206   0.0000       0.436719        11.8837 
 207   0.0000       0.446373        12.1464 
 208   0.0000       0.452984        12.3263 
 209   0.0000       0.455601        12.3975 
 210   0.0000       0.459996        12.5171 
 211   0.0000       0.468414        12.7462 
 212   0.0000       0.471293        12.8245 
 213   0.0000       0.475485        12.9386 
 214   0.0000       0.480769        13.0824 
 215   0.0000       0.484579        13.1861 
 216   0.0000       0.486465        13.2374 
 217   0.0000       0.491654        13.3786 
 218   0.0000       0.502686        13.6788 
 219   0.0000       0.505327        13.7507 
 220   0.0000       0.509149        13.8546 
 221   0.0000       0.513546        13.9743 
 222   0.0000       0.518603        14.1119 
 223   0.0000       0.519526        14.1370 
 224   0.0000       0.527078        14.3425 
 225   0.0000       0.532809        14.4985 
 226   0.0000       0.539652        14.6847 
 227   0.0000       0.542075        14.7506 
 228   0.0000       0.544401        14.8139 
 229   0.0000       0.548516        14.9259 
 230   0.0000       0.552628        15.0378 
 231   0.0000       0.555713        15.1217 
 232   0.0000       0.558056        15.1855 
 233   0.0000       0.562969        15.3192 
 234   0.0000       0.567214        15.4347 
 235   0.0000       0.571152        15.5418 
 236   0.0000       0.571384        15.5481 
 237   0.0000       0.574494        15.6328 
 238   0.0000       0.576339        15.6830 
 239   0.0000       0.578222        15.7342 
 240   0.0000       0.583071        15.8662 
 241   0.0000       0.586082        15.9481 
 242   0.0000       0.587533        15.9876 
 243   0.0000       0.589612        16.0442 
 244   0.0000       0.592103        16.1119 
 245   0.0000       0.594282        16.1712 
 246   0.0000       0.597628        16.2623 
 247   0.0000       0.599650        16.3173 
 248   0.0000       0.601834        16.3767 
 249   0.0000       0.604901        16.4602 
 250   0.0000       0.606823        16.5125 
 251   0.0000       0.609110        16.5747 
 252   0.0000       0.612699        16.6724 
 253   0.0000       0.617151        16.7935 
 254   0.0000       0.617642        16.8069 
 255   0.0000       0.622018        16.9260 
 256   0.0000       0.622938        16.9510 
 257   0.0000       0.627644        17.0791 
 258   0.0000       0.630144        17.1471 
 259   0.0000       0.631153        17.1745 
 260   0.0000       0.634738        17.2721 
 261   0.0000       0.637618        17.3505 
 262   0.0000       0.640758        17.4359 
 263   0.0000       0.642287        17.4775 
 264   0.0000       0.643499        17.5105 
 265   0.0000       0.650718        17.7069 
 266   0.0000       0.653296        17.7771 
 267   0.0000       0.653933        17.7944 
 268   0.0000       0.658097        17.9077 
 269   0.0000       0.658447        17.9173 
 270   0.0000       0.662563        18.0293 
 271   0.0000       0.665316        18.1042 
 272   0.0000       0.666453        18.1351 
 273   0.0000       0.672201        18.2915 
 274   0.0000       0.674414        18.3517 
 275   0.0000       0.676006        18.3951 
 276   0.0000       0.680807        18.5257 
 277   0.0000       0.684066        18.6144 
 278   0.0000       0.686603        18.6834 
 279   0.0000       0.690734        18.7958 
 280   0.0000       0.693015        18.8579 
 281   0.0000       0.694935        18.9101 
 282   0.0000       0.702013        19.1027 
 283   0.0000       0.706393        19.2219 
 284   0.0000       0.708795        19.2873 
 285   0.0000       0.716229        19.4896 
 286   0.0000       0.717556        19.5257 
 287   0.0000       0.724445        19.7132 
 288   0.0000       0.728394        19.8206 
 289   0.0000       0.733200        19.9514 
 290   0.0000       0.737935        20.0802 
 291   0.0000       0.741525        20.1779 
 292   0.0000       0.745531        20.2869 
 293   0.0000       0.752984        20.4897 
 294   0.0000       0.758981        20.6529 
 295   0.0000       0.764354        20.7991 
 296   0.0000       0.776313        21.1245 
 297   0.0000       0.778661        21.1884 
 298   0.0000       0.781311        21.2605 
 299   0.0000       0.793967        21.6050 
 300   0.0000       0.800229        21.7753 
 301   0.0000       0.807429        21.9713 
 302   0.0000       0.826574        22.4922 
 303   0.0000       0.836688        22.7674 
 304   0.0000       0.839180        22.8352 
 305   0.0000       0.855309        23.2741 
 306   0.0000       0.881571        23.9888 
 307   0.0000       0.891219        24.2513 
 308   0.0000       0.894697        24.3459 
 309   0.0000       0.915457        24.9108 
 310   0.0000       0.922731        25.1088 
 311   0.0000       0.938547        25.5392 
 312   0.0000       0.942851        25.6563 
 313   0.0000       0.953619        25.9493 
 314   0.0000       0.968956        26.3666 
 315   0.0000       0.981600        26.7107 
 316   0.0000       0.990091        26.9417 
 317   0.0000       1.031138        28.0587 
 318   0.0000       1.035782        28.1850 
 319   0.0000       1.042650        28.3719 
 320   0.0000       1.052399        28.6372 
 321   0.0000       1.067906        29.0592 
 322   0.0000       1.079549        29.3760 
 323   0.0000       1.099512        29.9192 
 324   0.0000       1.125533        30.6273 
 325   0.0000       1.129014        30.7220 
 326   0.0000       1.144662        31.1478 
 327   0.0000       1.149662        31.2839 
 328   0.0000       1.175435        31.9852 
 329   0.0000       1.190097        32.3842 
 330   0.0000       1.196781        32.5661 
 331   0.0000       1.222324        33.2611 
 332   0.0000       1.232462        33.5370 
 333   0.0000       1.251634        34.0587 
 334   0.0000       1.256562        34.1928 
 335   0.0000       1.264901        34.4197 
 336   0.0000       1.276715        34.7412 
 337   0.0000       1.281791        34.8793 
 338   0.0000       1.292401        35.1680 
 339   0.0000       1.306930        35.5634 
 340   0.0000       1.319335        35.9009 
 341   0.0000       1.331870        36.2420 
 342   0.0000       1.340670        36.4815 
 343   0.0000       1.359147        36.9843 
 344   0.0000       1.361607        37.0512 
 345   0.0000       1.371086        37.3091 
 346   0.0000       1.388112        37.7724 
 347   0.0000       1.389844        37.8196 
 348   0.0000       1.409308        38.3492 
 349   0.0000       1.415167        38.5086 
 350   0.0000       1.419606        38.6294 
 351   0.0000       1.437495        39.1162 
 352   0.0000       1.441380        39.2219 
 353   0.0000       1.447739        39.3950 
 354   0.0000       1.459127        39.7049 
 355   0.0000       1.465422        39.8762 
 356   0.0000       1.477302        40.1994 
 357   0.0000       1.492278        40.6069 
 358   0.0000       1.506953        41.0063 
 359   0.0000       1.514178        41.2029 
 360   0.0000       1.518712        41.3263 
 361   0.0000       1.521180        41.3934 
 362   0.0000       1.533686        41.7337 
 363   0.0000       1.536404        41.8077 
 364   0.0000       1.549485        42.1636 
 365   0.0000       1.563567        42.5468 
 366   0.0000       1.570646        42.7395 
 367   0.0000       1.576218        42.8911 
 368   0.0000       1.594113        43.3780 
 369   0.0000       1.598060        43.4854 
 370   0.0000       1.603473        43.6327 
 371   0.0000       1.608553        43.7710 
 372   0.0000       1.621200        44.1151 
 373   0.0000       1.630281        44.3622 
 374   0.0000       1.637682        44.5636 
 375   0.0000       1.651189        44.9311 
 376   0.0000       1.654141        45.0115 
 377   0.0000       1.665091        45.3094 
 378   0.0000       1.675502        45.5927 
 379   0.0000       1.685875        45.8750 
 380   0.0000       1.694332        46.1051 
 381   0.0000       1.699422        46.2436 
 382   0.0000       1.702674        46.3321 
 383   0.0000       1.711156        46.5629 
 384   0.0000       1.720492        46.8170 
 385   0.0000       1.721424        46.8423 
 386   0.0000       1.728040        47.0224 
 387   0.0000       1.733304        47.1656 
 388   0.0000       1.736107        47.2419 
 389   0.0000       1.740925        47.3730 
 390   0.0000       1.746006        47.5112 
 391   0.0000       1.748978        47.5921 
 392   0.0000       1.754194        47.7341 
 393   0.0000       1.767518        48.0966 
 394   0.0000       1.768017        48.1102 
 395   0.0000       1.772910        48.2433 
 396   0.0000       1.774325        48.2818 
 397   0.0000       1.782243        48.4973 
 398   0.0000       1.785591        48.5884 
 399   0.0000       1.787735        48.6467 
 400   0.0000       1.798104        48.9289 
 401   0.0000       1.801146        49.0117 
 402   0.0000       1.803273        49.0695 
 403   0.0000       1.812378        49.3173 
 404   0.0000       1.820265        49.5319 
 405   0.0000       1.830460        49.8094 
 406   0.0000       1.836416        49.9714 
 407   0.0000       1.838004        50.0146 
 408   0.0000       1.845978        50.2316 
 409   0.0000       1.851660        50.3862 
 410   0.0000       1.862238        50.6741 
 411   0.0000       1.871275        50.9200 
 412   0.0000       1.876853        51.0718 
 413   0.0000       1.879418        51.1416 
 414   0.0000       1.892004        51.4840 
 415   0.0000       1.895921        51.5906 
 416   0.0000       1.898854        51.6705 
 417   0.0000       1.907133        51.8957 
 418   0.0000       1.908844        51.9423 
 419   0.0000       1.916247        52.1437 
 420   0.0000       1.922939        52.3258 
 421   0.0000       1.936020        52.6818 
 422   0.0000       1.939284        52.7706 
 423   0.0000       1.946266        52.9606 
 424   0.0000       1.949464        53.0476 
 425   0.0000       1.951298        53.0975 
 426   0.0000       1.967011        53.5251 
 427   0.0000       1.968025        53.5527 
 428   0.0000       1.974848        53.7383 
 429   0.0000       1.981543        53.9205 
 430   0.0000       1.984922        54.0125 
 431   0.0000       1.992092        54.2076 
 432   0.0000       1.996920        54.3390 
 433   0.0000       1.998026        54.3690 
 434   0.0000       1.998983        54.3951 
 435   0.0000       2.002824        54.4996 
 436   0.0000       2.007059        54.6149 
 437   0.0000       2.013636        54.7938 
 438   0.0000       2.017766        54.9062 
 439   0.0000       2.026912        55.1551 
 440   0.0000       2.032714        55.3130 
 441   0.0000       2.033965        55.3470 
 442   0.0000       2.041516        55.5525 
 443   0.0000       2.045846        55.6703 
[...]

 --------------
 Nucleus  47H :
 --------------

Diamagnetic contribution to the shielding tensor (ppm) : 
            31.683          2.779        -0.691
            -0.353         49.202        -2.396
             0.156         -1.570        41.651

Paramagnetic contribution to the shielding tensor (ppm): 
            -2.937         -2.182         1.494
             1.208        -15.653        -0.893
            -0.128         -1.796       -10.110

Total shielding tensor (ppm): 
            28.745          0.597         0.803
             0.856         33.548        -3.290
             0.028         -3.366        31.541


 Diagonalized sT*s matrix:
 
 sDSO            35.465           38.549           48.522  iso=      40.845
 sPSO            -7.349           -8.865          -12.486  iso=      -9.567
        ---------------  ---------------  ---------------
 Total           28.115           29.683           36.036  iso=      31.278

 --------------
 Nucleus  48H :
 --------------

Diamagnetic contribution to the shielding tensor (ppm) : 
            37.572         -0.383        -2.365
            -8.664         38.845        -0.219
            -3.908         -1.332        43.076

Paramagnetic contribution to the shielding tensor (ppm): 
            -6.070          1.776         2.475
            10.391        -10.034        -1.080
             3.273         -0.434       -13.573

Total shielding tensor (ppm): 
            31.502          1.393         0.111
             1.727         28.811        -1.299
            -0.635         -1.766        29.503


 Diagonalized sT*s matrix:
 
 sDSO            42.113           40.726           36.654  iso=      39.831
 sPSO           -14.819          -10.712           -4.145  iso=      -9.892
        ---------------  ---------------  ---------------
 Total           27.294           30.014           32.508  iso=      29.939

 --------------
 Nucleus  52H :
 --------------

Diamagnetic contribution to the shielding tensor (ppm) : 
            39.914         -0.030         2.284
             0.320         36.210       -15.328
             5.282        -11.803        43.133

Paramagnetic contribution to the shielding tensor (ppm): 
            -9.257          3.999        -1.561
             3.238         -8.774        16.797
            -3.497         14.006       -21.277

Total shielding tensor (ppm): 
            30.657          3.969         0.723
             3.558         27.436         1.469
             1.785          2.204        21.856


 Diagonalized sT*s matrix:
 
 sDSO            49.642           32.129           37.486  iso=      39.752
 sPSO           -28.336           -6.990           -3.982  iso=     -13.103
        ---------------  ---------------  ---------------
 Total           21.306           25.139           33.504  iso=      26.650

 --------------
 Nucleus  53H :
 --------------

Diamagnetic contribution to the shielding tensor (ppm) : 
            37.746         -0.035         1.406
            -3.733         40.390        -6.738
             1.438         -7.904        43.542

Paramagnetic contribution to the shielding tensor (ppm): 
           -10.356          4.296        -1.894
             7.839        -13.890         7.567
            -1.439          9.330       -18.818

Total shielding tensor (ppm): 
            27.390          4.261        -0.488
             4.106         26.500         0.828
            -0.000          1.427        24.724


 Diagonalized sT*s matrix:
 
 sDSO            46.148           39.049           36.481  iso=      40.559
 sPSO           -23.833          -13.953           -5.278  iso=     -14.355
        ---------------  ---------------  ---------------
 Total           22.315           25.096           31.203  iso=      26.205

 --------------
 Nucleus  57H :
 --------------

Diamagnetic contribution to the shielding tensor (ppm) : 
            42.671          2.824        -5.055
            -4.226         18.690        -7.426
           -13.501        -10.486        36.739

Paramagnetic contribution to the shielding tensor (ppm): 
           -11.700         -1.553         0.818
             3.996          8.660         9.007
             9.421         11.165        -5.916

Total shielding tensor (ppm): 
            30.972          1.272        -4.237
            -0.230         27.350         1.580
            -4.080          0.679        30.823


 Diagonalized sT*s matrix:
 
 sDSO            32.738           16.916           48.446  iso=      32.700
 sPSO            -6.910           11.322          -13.367  iso=      -2.985
        ---------------  ---------------  ---------------
 Total           25.827           28.238           35.078  iso=      29.715

 --------------
 Nucleus  58H :
 --------------

Diamagnetic contribution to the shielding tensor (ppm) : 
            31.376         -1.907         3.250
             8.128         39.504        -6.133
             2.287        -12.752        38.608

Paramagnetic contribution to the shielding tensor (ppm): 
            -2.863          2.335        -0.373
            -7.527         -9.694         2.889
             0.113         10.378        -6.240

Total shielding tensor (ppm): 
            28.513          0.428         2.877
             0.601         29.811        -3.244
             2.400         -2.374        32.368


 Diagonalized sT*s matrix:
 
 sDSO            26.309           37.566           45.614  iso=      36.496
 sPSO            -0.146           -7.861          -10.791  iso=      -6.266
        ---------------  ---------------  ---------------
 Total           26.163           29.705           34.824  iso=      30.231

 --------------
 Nucleus  61H :
 --------------

Diamagnetic contribution to the shielding tensor (ppm) : 
            34.982         -4.896         2.847
           -16.836         26.228       -13.012
             1.100         -6.541        23.124

Paramagnetic contribution to the shielding tensor (ppm): 
            -4.203          1.300        -0.959
            13.688          9.352        13.153
             0.016          6.704         3.323

Total shielding tensor (ppm): 
            30.779         -3.596         1.888
            -3.148         35.580         0.141
             1.115          0.163        26.448


 Diagonalized sT*s matrix:
 
 sDSO            24.896           21.407           38.031  iso=      28.111
 sPSO             0.915            8.242           -0.684  iso=       2.824
        ---------------  ---------------  ---------------
 Total           25.811           29.649           37.347  iso=      30.936

 --------------
 Nucleus  62H :
 --------------

Diamagnetic contribution to the shielding tensor (ppm) : 
            36.040          1.540        -6.197
            -0.741         24.378        -6.056
             1.057         -9.275        41.578

Paramagnetic contribution to the shielding tensor (ppm): 
            -5.553         -1.116         4.211
             1.475          4.778         4.766
            -3.172          7.447        -8.016

Total shielding tensor (ppm): 
            30.487          0.424        -1.986
             0.734         29.156        -1.290
            -2.115         -1.828        33.563


 Diagonalized sT*s matrix:
 
 sDSO            21.477           35.630           44.889  iso=      33.999
 sPSO             7.178           -6.132           -9.836  iso=      -2.930
        ---------------  ---------------  ---------------
 Total           28.655           29.499           35.052  iso=      31.069

 --------------
 Nucleus  63H :
 --------------

Diamagnetic contribution to the shielding tensor (ppm) : 
            42.195          6.959         7.546
            -4.124          9.609        -0.842
             5.665          0.252        28.377

Paramagnetic contribution to the shielding tensor (ppm): 
            -8.016         -5.047        -2.466
             5.677         20.544         0.224
            -0.460         -0.455        -0.312

Total shielding tensor (ppm): 
            34.179          1.912         5.080
             1.553         30.153        -0.618
             5.205         -0.203        28.065


 Diagonalized sT*s matrix:
 
 sDSO            24.895           11.493           43.793  iso=      26.727
 sPSO            -0.041           18.705           -6.448  iso=       4.072
        ---------------  ---------------  ---------------
 Total           24.854           30.198           37.344  iso=      30.799

 --------------
 Nucleus  64H :
 --------------

Diamagnetic contribution to the shielding tensor (ppm) : 
            18.435          4.733         3.631
            23.652         36.337        -1.267
             3.220         -3.751        15.038

Paramagnetic contribution to the shielding tensor (ppm): 
            10.267         -2.212        -3.560
           -21.751          1.003         1.132
            -3.532          4.177        10.879

Total shielding tensor (ppm): 
            28.702          2.522         0.071
             1.901         37.341        -0.134
            -0.312          0.427        25.917


 Diagonalized sT*s matrix:
 
 sDSO            15.525           12.571           41.714  iso=      23.270
 sPSO            10.381           15.608           -3.840  iso=       7.383
        ---------------  ---------------  ---------------
 Total           25.906           28.179           37.874  iso=      30.653

 --------------
 Nucleus  65H :
 --------------

Diamagnetic contribution to the shielding tensor (ppm) : 
            36.131          9.688        -3.885
             9.566         11.612        -1.893
           -11.319        -10.661        22.665

Paramagnetic contribution to the shielding tensor (ppm): 
            -1.556         -7.405        -1.306
            -6.465         16.706         1.101
             7.200         10.238         6.844

Total shielding tensor (ppm): 
            34.576          2.283        -5.191
             3.101         28.318        -0.792
            -4.119         -0.423        29.510


 Diagonalized sT*s matrix:
 
 sDSO            17.253            9.950           43.205  iso=      23.470
 sPSO             8.990           18.157           -5.152  iso=       7.331
        ---------------  ---------------  ---------------
 Total           26.243           28.107           38.053  iso=      30.801

 --------------
 Nucleus  66H :
 --------------

Diamagnetic contribution to the shielding tensor (ppm) : 
            30.089          8.339         8.263
             8.904         13.395        -2.000
            12.142          0.156        31.825

Paramagnetic contribution to the shielding tensor (ppm): 
             1.245         -6.676        -3.767
            -6.708         16.403         2.231
            -8.057         -0.305        -0.606

Total shielding tensor (ppm): 
            31.334          1.664         4.495
             2.196         29.798         0.231
             4.085         -0.149        31.220


 Diagonalized sT*s matrix:
 
 sDSO            14.569           18.582           42.159  iso=      25.103
 sPSO            11.859           11.442           -6.258  iso=       5.681
        ---------------  ---------------  ---------------
 Total           26.429           30.023           35.901  iso=      30.784

 --------------
 Nucleus  67H :
 --------------

Diamagnetic contribution to the shielding tensor (ppm) : 
            25.839         -4.340        -1.102
            10.051         36.435         4.314
             8.823          1.246        44.028

Paramagnetic contribution to the shielding tensor (ppm): 
             3.044          3.592         0.844
           -10.545         -7.044        -3.853
            -8.232         -1.054        -8.448

Total shielding tensor (ppm): 
            28.883         -0.748        -0.258
            -0.494         29.391         0.461
             0.591          0.192        35.580


 Diagonalized sT*s matrix:
 
 sDSO            31.395           30.426           44.480  iso=      35.434
 sPSO            -2.944           -0.623           -8.881  iso=      -4.149
        ---------------  ---------------  ---------------
 Total           28.452           29.803           35.599  iso=      31.285

 --------------
 Nucleus  68H :
 --------------

Diamagnetic contribution to the shielding tensor (ppm) : 
            38.583          1.145        -6.232
            17.213         45.950         8.173
             3.548         10.806        35.151

Paramagnetic contribution to the shielding tensor (ppm): 
            -1.950          3.649         6.050
           -13.191        -15.588        -5.367
            -4.594         -8.365        -9.870

Total shielding tensor (ppm): 
            36.633          4.794        -0.181
             4.023         30.362         2.806
            -1.047          2.441        25.281


 Diagonalized sT*s matrix:
 
 sDSO            27.817           43.626           48.240  iso=      39.895
 sPSO            -4.120          -13.987           -9.301  iso=      -9.136
        ---------------  ---------------  ---------------
 Total           23.698           29.639           38.940  iso=      30.759

 --------------
 Nucleus  69H :
 --------------

Diamagnetic contribution to the shielding tensor (ppm) : 
            21.847        -10.000        -3.788
            11.422         50.969         3.200
             6.528          7.828        33.859

Paramagnetic contribution to the shielding tensor (ppm): 
             8.713          6.524         2.126
           -14.312        -15.246        -1.540
            -7.943         -5.424        -6.822

Total shielding tensor (ppm): 
            30.560         -3.476        -1.663
            -2.890         35.723         1.660
            -1.415          2.404        27.037


 Diagonalized sT*s matrix:
 
 sDSO            32.689           27.805           46.180  iso=      35.558
 sPSO            -6.324            1.331           -8.361  iso=      -4.451
        ---------------  ---------------  ---------------
 Total           26.365           29.136           37.819  iso=      31.107

 --------------
 Nucleus  70H :
 --------------

Diamagnetic contribution to the shielding tensor (ppm) : 
            35.749         -7.281        -8.819
           -15.607         25.469         2.121
           -16.218          2.394        32.565

Paramagnetic contribution to the shielding tensor (ppm): 
            -1.988          5.757         3.870
            13.859          4.128         0.747
            11.588          0.464        -3.096

Total shielding tensor (ppm): 
            33.761         -1.525        -4.949
            -1.748         29.597         2.869
            -4.631          2.859        29.469


 Diagonalized sT*s matrix:
 
 sDSO            26.003           16.906           50.875  iso=      31.261
 sPSO            -0.357           12.354          -12.954  iso=      -0.319
        ---------------  ---------------  ---------------
 Total           25.647           29.260           37.921  iso=      30.942

 --------------
 Nucleus  71H :
 --------------

Diamagnetic contribution to the shielding tensor (ppm) : 
            32.352          1.362         4.328
            -7.973         37.831         9.971
            -3.246          7.743        37.751

Paramagnetic contribution to the shielding tensor (ppm): 
            -0.148         -0.670        -4.059
             9.961         -7.607        -4.735
             3.986         -3.044        -9.570

Total shielding tensor (ppm): 
            32.205          0.692         0.270
             1.988         30.224         5.236
             0.740          4.699        28.181


 Diagonalized sT*s matrix:
 
 sDSO            29.344           36.905           41.686  iso=      35.978
 sPSO            -5.239           -5.349           -6.737  iso=      -5.775
        ---------------  ---------------  ---------------
 Total           24.106           31.555           34.949  iso=      30.203

 --------------
 Nucleus  72H :
 --------------

Diamagnetic contribution to the shielding tensor (ppm) : 
            28.561         -7.169         0.128
           -13.436         39.503        -2.640
            -4.386         -7.074        35.175

Paramagnetic contribution to the shielding tensor (ppm): 
             1.959          4.601         0.480
            11.342         -5.819        -0.524
             4.618          5.167        -6.616

Total shielding tensor (ppm): 
            30.520         -2.568         0.608
            -2.093         33.685        -3.164
             0.232         -1.907        28.559


 Diagonalized sT*s matrix:
 
 sDSO            29.372           27.360           46.508  iso=      34.413
 sPSO            -1.959            2.235          -10.752  iso=      -3.492
        ---------------  ---------------  ---------------
 Total           27.413           29.595           35.756  iso=      30.921



--------------------------------
CHEMICAL SHIELDING SUMMARY (ppm)
--------------------------------


  Nucleus  Element    Isotropic     Anisotropy
  -------  -------  ------------   ------------
      3       H           29.640          5.462 
      4       H           29.132          5.289 
      8       H           29.572          6.434 
      9       H           29.429          7.728 
     10       H           29.631          8.784 
     11       H           30.532          6.236 
     13       H           28.187          2.733 
     16       H           26.862          5.095 
     17       H           26.523          4.978 
     19       H           25.452         10.693 
     21       H           25.705         15.011 
     24       H           28.891          9.930 
     25       H           29.993          9.477 
     27       H           30.226          7.136 
     28       H           30.145         11.825 
     30       H           29.733          8.010 
     31       H           30.390          7.014 
     33       H           29.757          4.185 
     35       H           31.120         14.872 
     37       H           30.398         10.523 
     38       H           30.292          9.243 
     40       H           30.026         10.179 
     41       H           30.540          9.345 
     42       H           30.536          5.055 
     45       H           31.055          8.252 
     46       H           31.306          9.210 
     47       H           31.278          7.137 
     48       H           29.939          3.855 
     52       H           26.650         10.282 
     53       H           26.205          7.498 
     57       H           29.715          8.046 
     58       H           30.231          6.890 
     61       H           30.936          9.617 
     62       H           31.069          5.976 
     63       H           30.799          9.818 
     64       H           30.653         10.832 
     65       H           30.801         10.878 
     66       H           30.784          7.675 
     67       H           31.285          6.472 
     68       H           30.759         12.271 
     69       H           31.107         10.068 
     70       H           30.942         10.467 
     71       H           30.203          7.118 
     72       H           30.921          7.252 



Maximum memory used throughout the entire EPRNMR-calculation: 140.7 MB

Timings for individual modules:

Sum of individual times         ...      141.460 sec (=   2.358 min)
GTO integral calculation        ...        0.963 sec (=   0.016 min)   0.7 %
SCF iterations                  ...       93.419 sec (=   1.557 min)  66.0 %
EPR/NMR calculation             ...       47.078 sec (=   0.785 min)  33.3 %
                             ****ORCA TERMINATED NORMALLY****
TOTAL RUN TIME: 0 days 0 hours 2 minutes 21 seconds 972 msec
