
                                 *****************
                                 * O   R   C   A *
                                 *****************

                                            #,                                       
                                            ###                                      
                                            ####                                     
                                            #####                                    
                                            ######                                   
                                           ########,                                 
                                     ,,################,,,,,                         
                               ,,#################################,,                 
                          ,,##########################################,,             
                       ,#########################################, ''#####,          
                    ,#############################################,,   '####,        
                  ,##################################################,,,,####,       
                ,###########''''           ''''###############################       
              ,#####''   ,,,,##########,,,,          '''####'''          '####       
            ,##' ,,,,###########################,,,                        '##       
           ' ,,###''''                  '''############,,,                           
         ,,##''                                '''############,,,,        ,,,,,,###''
      ,#''                                            '''#######################'''  
     '                                                          ''''####''''         
             ,#######,   #######,   ,#######,      ##                                
            ,#'     '#,  ##    ##  ,#'     '#,    #''#        ######   ,####,        
            ##       ##  ##   ,#'  ##            #'  '#       #        #'  '#        
            ##       ##  #######   ##           ,######,      #####,   #    #        
            '#,     ,#'  ##    ##  '#,     ,#' ,#      #,         ##   #,  ,#        
             '#######'   ##     ##  '#######'  #'      '#     #####' # '####'        



                  #######################################################
                  #                        -***-                        #
                  #          Department of theory and spectroscopy      #
                  #    Directorship and core code : Frank Neese         #
                  #        Max Planck Institute fuer Kohlenforschung    #
                  #                Kaiser Wilhelm Platz 1               #
                  #                 D-45470 Muelheim/Ruhr               #
                  #                      Germany                        #
                  #                                                     #
                  #                  All rights reserved                #
                  #                        -***-                        #
                  #######################################################


                         Program Version 5.0.2 -  RELEASE  -


 With contributions from (in alphabetic order):
   Daniel Aravena         : Magnetic Suceptibility
   Michael Atanasov       : Ab Initio Ligand Field Theory (pilot matlab implementation)
   Alexander A. Auer      : GIAO ZORA, VPT2 properties, NMR spectrum
   Ute Becker             : Parallelization
   Giovanni Bistoni       : ED, misc. LED, open-shell LED, HFLD
   Martin Brehm           : Molecular dynamics
   Dmytro Bykov           : SCF Hessian
   Vijay G. Chilkuri      : MRCI spin determinant printing, contributions to CSF-ICE
   Dipayan Datta          : RHF DLPNO-CCSD density
   Achintya Kumar Dutta   : EOM-CC, STEOM-CC
   Dmitry Ganyushin       : Spin-Orbit,Spin-Spin,Magnetic field MRCI
   Miquel Garcia          : C-PCM and meta-GGA Hessian, CC/C-PCM, Gaussian charge scheme
   Yang Guo               : DLPNO-NEVPT2, F12-NEVPT2, CIM, IAO-localization
   Andreas Hansen         : Spin unrestricted coupled pair/coupled cluster methods
   Benjamin Helmich-Paris : MC-RPA, TRAH-SCF, COSX integrals
   Lee Huntington         : MR-EOM, pCC
   Robert Izsak           : Overlap fitted RIJCOSX, COSX-SCS-MP3, EOM
   Marcus Kettner         : VPT2
   Christian Kollmar      : KDIIS, OOCD, Brueckner-CCSD(T), CCSD density, CASPT2, CASPT2-K
   Simone Kossmann        : Meta GGA functionals, TD-DFT gradient, OOMP2, MP2 Hessian
   Martin Krupicka        : Initial AUTO-CI
   Lucas Lang             : DCDCAS
   Marvin Lechner         : AUTO-CI (C++ implementation), FIC-MRCC
   Dagmar Lenk            : GEPOL surface, SMD
   Dimitrios Liakos       : Extrapolation schemes; Compound Job, initial MDCI parallelization
   Dimitrios Manganas     : Further ROCIS development; embedding schemes
   Dimitrios Pantazis     : SARC Basis sets
   Anastasios Papadopoulos: AUTO-CI, single reference methods and gradients
   Taras Petrenko         : DFT Hessian,TD-DFT gradient, ASA, ECA, R-Raman, ABS, FL, XAS/XES, NRVS
   Peter Pinski           : DLPNO-MP2, DLPNO-MP2 Gradient
   Christoph Reimann      : Effective Core Potentials
   Marius Retegan         : Local ZFS, SOC
   Christoph Riplinger    : Optimizer, TS searches, QM/MM, DLPNO-CCSD(T), (RO)-DLPNO pert. Triples
   Tobias Risthaus        : Range-separated hybrids, TD-DFT gradient, RPA, STAB
   Michael Roemelt        : Original ROCIS implementation
   Masaaki Saitow         : Open-shell DLPNO-CCSD energy and density
   Barbara Sandhoefer     : DKH picture change effects
   Avijit Sen             : IP-ROCIS
   Kantharuban Sivalingam : CASSCF convergence, NEVPT2, FIC-MRCI
   Bernardo de Souza      : ESD, SOC TD-DFT
   Georgi Stoychev        : AutoAux, RI-MP2 NMR, DLPNO-MP2 response
   Willem Van den Heuvel  : Paramagnetic NMR
   Boris Wezisla          : Elementary symmetry handling
   Frank Wennmohs         : Technical directorship


 We gratefully acknowledge several colleagues who have allowed us to
 interface, adapt or use parts of their codes:
   Stefan Grimme, W. Hujo, H. Kruse, P. Pracht,  : VdW corrections, initial TS optimization,
                  C. Bannwarth, S. Ehlert          DFT functionals, gCP, sTDA/sTD-DF
   Ed Valeev, F. Pavosevic, A. Kumar             : LibInt (2-el integral package), F12 methods
   Garnet Chan, S. Sharma, J. Yang, R. Olivares  : DMRG
   Ulf Ekstrom                                   : XCFun DFT Library
   Mihaly Kallay                                 : mrcc  (arbitrary order and MRCC methods)
   Jiri Pittner, Ondrej Demel                    : Mk-CCSD
   Frank Weinhold                                : gennbo (NPA and NBO analysis)
   Christopher J. Cramer and Donald G. Truhlar   : smd solvation model
   Lars Goerigk                                  : TD-DFT with DH, B97 family of functionals
   V. Asgeirsson, H. Jonsson                     : NEB implementation
   FAccTs GmbH                                   : IRC, NEB, NEB-TS, DLPNO-Multilevel, CI-OPT
                                                   MM, QMMM, 2- and 3-layer-ONIOM, Crystal-QMMM,
                                                   LR-CPCM, SF, NACMEs, symmetry and pop. for TD-DFT,
                                                   nearIR, NL-DFT gradient (VV10), updates on ESD,
                                                   ML-optimized integration grids
   S Lehtola, MJT Oliveira, MAL Marques          : LibXC Library
   Liviu Ungur et al                             : ANISO software


 Your calculation uses the libint2 library for the computation of 2-el integrals
 For citations please refer to: http://libint.valeyev.net

 Your ORCA version has been built with support for libXC version: 5.1.0
 For citations please refer to: https://tddft.org/programs/libxc/

 This ORCA versions uses:
   CBLAS   interface :  Fast vector & matrix operations
   LAPACKE interface :  Fast linear algebra routines
   SCALAPACK package :  Parallel linear algebra routines
   Shared memory     :  Shared parallel matrices
   BLAS/LAPACK       :  OpenBLAS 0.3.15  USE64BITINT DYNAMIC_ARCH NO_AFFINITY Zen SINGLE_THREADED
        Core in use  :  Zen
   Copyright (c) 2011-2014, The OpenBLAS Project


Your calculation utilizes the atom-pairwise dispersion correction
based on tight binding partial charges (D4)
Cite in your paper:
E.Caldeweyher, C.Bannwarth, S.Grimme, J.Chem.Phys., (2017), 147, 034112.
E.Caldeweyher, S.Ehlert, A.Hansen, H.Neugebauer, S.Grimme, J.Chem.Phys., (2018), in progress.
   

================================================================================

----- Orbital basis set information -----
Your calculation utilizes the basis: pcSseg-1
   F. Jensen, J. Chem. Theory Comput. 11, 132 (2015).

----- AuxJ basis set information -----
Your calculation utilizes the auxiliary basis: def2/J
   F. Weigend, Phys. Chem. Chem. Phys. 8, 1057 (2006).

================================================================================
                                        WARNINGS
                       Please study these warnings very carefully!
================================================================================



WARNING: Found flag for RIJCOSX approximation but no HF exchange needed!
  ===> : RIJCOSX  will be disabled and Split-RI-J is turned on

INFO   : the flag for use of the SHARK integral package has been found!

================================================================================
                                       INPUT FILE
================================================================================
NAME = inpS
|  1> ! revTPSS
|  2> ! D4
|  3> ! pcSseg-1
|  4> ! def2/J RIJCOSX
|  5> ! DEFGRID2
|  6> ! scfconv7
|  7> ! smallprint printgap noloewdin
|  8> ! NOSOSCF
|  9> %MaxCore 4000
| 10> %output
| 11>        print[P_BondOrder_M] 1
| 12>        print[P_Mayer] 1
| 13>        print[P_basis] 2
| 14> end
| 15> %pal
| 16>     nprocs 4
| 17> end
| 18> ! CPCM(chloroform)
| 19> *xyz 0 1
| 20> C   -5.2166019700   0.2639579900   0.1379017600
| 21> C   -6.5810090800  -0.2367388800  -0.2735402900
| 22> C   -7.0587879000   0.4225001100  -1.5734553900
| 23> H   -7.3154060900   0.0170586100   0.5096436800
| 24> H   -6.5758697600  -1.3263444600  -0.3871482100
| 25> C   -5.0968357500   1.7374726200   0.1669347800
| 26> C   -5.6226239600   2.4309561400  -1.0695858200
| 27> C   -7.0291871300   1.9409978300  -1.4400817700
| 28> H   -4.9453963400   2.2066320500  -1.9077087800
| 29> H   -5.6171349300   3.5166373300  -0.9263403800
| 30> H   -7.3560793000   2.4008960100  -2.3801159300
| 31> H   -7.7424248300   2.2391184800  -0.6568152900
| 32> O   -8.3575145100  -0.0539491900  -1.9494487700
| 33> H   -6.3959030100   0.1158070900  -2.3945928000
| 34> C   -4.2069702000  -0.5998749600   0.3983362400
| 35> C   -4.6101615800   2.4158289700   1.2122791300
| 36> H   -4.2608580500   1.9052904700   2.1054768800
| 37> H   -4.5602094000   3.5021023200   1.1999605500
| 38> C   -2.8380200900  -0.2522859700   0.7012036800
| 39> H   -4.4499891000  -1.6592013600   0.3275530000
| 40> C   -1.8440037100  -1.1095620500   1.0187890300
| 41> H   -2.5930312400   0.8061359100   0.6490776100
| 42> C   -1.9852427700  -2.6018619200   1.1805474900
| 43> C   -0.9652046300  -3.3701785400   0.3183490800
| 44> H   -2.9976902300  -2.9501036300   0.9582933200
| 45> H   -1.7915857600  -2.8451898000   2.2376045700
| 46> C    0.4715850400  -2.8656507800   0.5113138900
| 47> H   -1.2506577600  -3.2828693800  -0.7376446000
| 48> H   -1.0158279400  -4.4373554300   0.5671380300
| 49> C    0.5803015500  -1.3506113700   0.2886468700
| 50> H    1.1362081700  -3.4168457200  -0.1620619200
| 51> H    0.7983885400  -3.0890924100   1.5381611800
| 52> C   -0.4341509500  -0.6623098500   1.2557562900
| 53> H   -0.1533844400  -1.0310435500   2.2599250300
| 54> C   -0.0557343600   0.8131480500   1.1963852300
| 55> H   -8.9746530500   0.2022289900  -1.2510517400
| 56> C    1.4889360900   0.7821361500   1.0988235100
| 57> H   -0.4139189100   1.3683414200   2.0698937100
| 58> H   -0.4903474500   1.2891734900   0.3102184200
| 59> C    1.9027709200  -0.6876513800   0.7721310300
| 60> H    1.9512171200   1.1168520200   2.0312517200
| 61> H    1.8505111000   1.4578945000   0.3146297900
| 62> H    2.1687704600  -1.1993026800   1.7107074600
| 63> C    3.1203228400  -0.7463329900  -0.1604003900
| 64> C    0.2751166300  -0.9830330000  -1.1700149500
| 65> H   -0.7747178100  -1.1691515400  -1.4170138000
| 66> H    0.8915247100  -1.5715934600  -1.8577805000
| 67> H    0.4735144600   0.0747800600  -1.3696540100
| 68> H    2.8555101000  -0.2050238100  -1.0825069500
| 69> C    3.5332956100  -2.1734470700  -0.5673355300
| 70> C    4.3514903800  -0.0681881300   0.4017853200
| 71> C    4.6294439400   0.1613485000   1.6852107600
| 72> H    5.0986914000   0.1819102100  -0.3529908800
| 73> H    3.8861638100  -0.1008658000   2.4377412200
| 74> C    5.8969232400   0.7626276700   2.2339722800
| 75> C    6.8633450300   1.2631623200   1.1612884400
| 76> C    6.6020752700  -0.1972395400   3.2365484600
| 77> H    5.5937292800   1.6364946300   2.8357009600
| 78> H    7.5095170900   0.3310986600   3.5663800000
| 79> C    7.0294546600  -1.5174878200   2.5915377300
| 80> C    5.7467810100  -0.4640696500   4.4780803100
| 81> H    6.3932705200   2.0304193100   0.5369246800
| 82> H    7.1968946000   0.4562122400   0.5007109600
| 83> H    7.7509217700   1.7020955700   1.6295170200
| 84> H    7.5679720200  -2.1399961500   3.3147558900
| 85> H    7.6868275100  -1.3615216200   1.7302837900
| 86> H    6.1532307700  -2.0801126500   2.2474604800
| 87> H    4.8691723800  -1.0750083700   4.2370430800
| 88> H    5.3964818800   0.4708285700   4.9309317100
| 89> H    6.3263717300  -1.0086108400   5.2318004700
| 90> H    4.4873990300  -2.1539445500  -1.1060510400
| 91> H    2.7942528100  -2.6475448200  -1.2184453800
| 92> H    3.6650159500  -2.7980410100   0.3241622400
| 93> *
| 94> %eprnmr
| 95>  Nuclei = all H { shift }
| 96>  origin giao
| 97>  giao_2el giao_2el_same_as_scf
| 98>  giao_1el giao_1el_analytic
| 99> end
|100> 
|101>                          ****END OF INPUT****
================================================================================

                       ****************************
                       * Single Point Calculation *
                       ****************************

---------------------------------
CARTESIAN COORDINATES (ANGSTROEM)
---------------------------------
  C     -5.216602    0.263958    0.137902
  C     -6.581009   -0.236739   -0.273540
  C     -7.058788    0.422500   -1.573455
  H     -7.315406    0.017059    0.509644
  H     -6.575870   -1.326344   -0.387148
  C     -5.096836    1.737473    0.166935
  C     -5.622624    2.430956   -1.069586
  C     -7.029187    1.940998   -1.440082
  H     -4.945396    2.206632   -1.907709
  H     -5.617135    3.516637   -0.926340
  H     -7.356079    2.400896   -2.380116
  H     -7.742425    2.239118   -0.656815
  O     -8.357515   -0.053949   -1.949449
  H     -6.395903    0.115807   -2.394593
  C     -4.206970   -0.599875    0.398336
  C     -4.610162    2.415829    1.212279
  H     -4.260858    1.905290    2.105477
  H     -4.560209    3.502102    1.199961
  C     -2.838020   -0.252286    0.701204
  H     -4.449989   -1.659201    0.327553
  C     -1.844004   -1.109562    1.018789
  H     -2.593031    0.806136    0.649078
  C     -1.985243   -2.601862    1.180547
  C     -0.965205   -3.370179    0.318349
  H     -2.997690   -2.950104    0.958293
  H     -1.791586   -2.845190    2.237605
  C      0.471585   -2.865651    0.511314
  H     -1.250658   -3.282869   -0.737645
  H     -1.015828   -4.437355    0.567138
  C      0.580302   -1.350611    0.288647
  H      1.136208   -3.416846   -0.162062
  H      0.798389   -3.089092    1.538161
  C     -0.434151   -0.662310    1.255756
  H     -0.153384   -1.031044    2.259925
  C     -0.055734    0.813148    1.196385
  H     -8.974653    0.202229   -1.251052
  C      1.488936    0.782136    1.098824
  H     -0.413919    1.368341    2.069894
  H     -0.490347    1.289173    0.310218
  C      1.902771   -0.687651    0.772131
  H      1.951217    1.116852    2.031252
  H      1.850511    1.457895    0.314630
  H      2.168770   -1.199303    1.710707
  C      3.120323   -0.746333   -0.160400
  C      0.275117   -0.983033   -1.170015
  H     -0.774718   -1.169152   -1.417014
  H      0.891525   -1.571593   -1.857780
  H      0.473514    0.074780   -1.369654
  H      2.855510   -0.205024   -1.082507
  C      3.533296   -2.173447   -0.567336
  C      4.351490   -0.068188    0.401785
  C      4.629444    0.161349    1.685211
  H      5.098691    0.181910   -0.352991
  H      3.886164   -0.100866    2.437741
  C      5.896923    0.762628    2.233972
  C      6.863345    1.263162    1.161288
  C      6.602075   -0.197240    3.236548
  H      5.593729    1.636495    2.835701
  H      7.509517    0.331099    3.566380
  C      7.029455   -1.517488    2.591538
  C      5.746781   -0.464070    4.478080
  H      6.393271    2.030419    0.536925
  H      7.196895    0.456212    0.500711
  H      7.750922    1.702096    1.629517
  H      7.567972   -2.139996    3.314756
  H      7.686828   -1.361522    1.730284
  H      6.153231   -2.080113    2.247460
  H      4.869172   -1.075008    4.237043
  H      5.396482    0.470829    4.930932
  H      6.326372   -1.008611    5.231800
  H      4.487399   -2.153945   -1.106051
  H      2.794253   -2.647545   -1.218445
  H      3.665016   -2.798041    0.324162

----------------------------
CARTESIAN COORDINATES (A.U.)
----------------------------
  NO LB      ZA    FRAG     MASS         X           Y           Z
   0 C     6.0000    0    12.011   -9.857949    0.498808    0.260597
   1 C     6.0000    0    12.011  -12.436305   -0.447372   -0.516916
   2 C     6.0000    0    12.011  -13.339176    0.798409   -2.973400
   3 H     1.0000    0     1.008  -13.824114    0.032236    0.963087
   4 H     1.0000    0     1.008  -12.426593   -2.506428   -0.731604
   5 C     6.0000    0    12.011   -9.631624    3.283347    0.315461
   6 C     6.0000    0    12.011  -10.625219    4.593841   -2.021224
   7 C     6.0000    0    12.011  -13.283239    3.667954   -2.721360
   8 H     1.0000    0     1.008   -9.345445    4.169930   -3.605047
   9 H     1.0000    0     1.008  -10.614847    6.645481   -1.750530
  10 H     1.0000    0     1.008  -13.900975    4.537036   -4.497767
  11 H     1.0000    0     1.008  -14.631063    4.231321   -1.241201
  12 O     8.0000    0    15.999  -15.793414   -0.101949   -3.683924
  13 H     1.0000    0     1.008  -12.086505    0.218844   -4.525125
  14 C     6.0000    0    12.011   -7.950022   -1.133599    0.752746
  15 C     6.0000    0    12.011   -8.711943    4.565255    2.290876
  16 H     1.0000    0     1.008   -8.051855    3.600477    3.978775
  17 H     1.0000    0     1.008   -8.617547    6.618014    2.267597
  18 C     6.0000    0    12.011   -5.363081   -0.476751    1.325083
  19 H     1.0000    0     1.008   -8.409261   -3.135436    0.618985
  20 C     6.0000    0    12.011   -3.484662   -2.096768    1.925232
  21 H     1.0000    0     1.008   -4.900119    1.523376    1.226579
  22 C     6.0000    0    12.011   -3.751565   -4.916806    2.230911
  23 C     6.0000    0    12.011   -1.823972   -6.368714    0.601593
  24 H     1.0000    0     1.008   -5.664814   -5.574888    1.810912
  25 H     1.0000    0     1.008   -3.385606   -5.376630    4.228460
  26 C     6.0000    0    12.011    0.891167   -5.415295    0.966243
  27 H     1.0000    0     1.008   -2.363401   -6.203724   -1.393946
  28 H     1.0000    0     1.008   -1.919637   -8.385387    1.071736
  29 C     6.0000    0    12.011    1.096611   -2.552286    0.545464
  30 H     1.0000    0     1.008    2.147122   -6.456903   -0.306253
  31 H     1.0000    0     1.008    1.508736   -5.837539    2.906703
  32 C     6.0000    0    12.011   -0.820426   -1.251584    2.373035
  33 H     1.0000    0     1.008   -0.289855   -1.948390    4.270639
  34 C     6.0000    0    12.011   -0.105323    1.536627    2.260840
  35 H     1.0000    0     1.008  -16.959636    0.382157   -2.364145
  36 C     6.0000    0    12.011    2.813681    1.478023    2.076476
  37 H     1.0000    0     1.008   -0.782193    2.585791    3.911532
  38 H     1.0000    0     1.008   -0.926622    2.436185    0.586228
  39 C     6.0000    0    12.011    3.595716   -1.299473    1.459116
  40 H     1.0000    0     1.008    3.687266    2.110544    3.838509
  41 H     1.0000    0     1.008    3.496959    2.755021    0.594564
  42 H     1.0000    0     1.008    4.098382   -2.266354    3.232769
  43 C     6.0000    0    12.011    5.896556   -1.410365   -0.303113
  44 C     6.0000    0    12.011    0.519895   -1.857663   -2.211008
  45 H     1.0000    0     1.008   -1.464004   -2.209376   -2.677768
  46 H     1.0000    0     1.008    1.684738   -2.969881   -3.510696
  47 H     1.0000    0     1.008    0.894813    0.141314   -2.588271
  48 H     1.0000    0     1.008    5.396132   -0.387439   -2.045642
  49 C     6.0000    0    12.011    6.676961   -4.107220   -1.072109
  50 C     6.0000    0    12.011    8.223125   -0.128857    0.759264
  51 C     6.0000    0    12.011    8.748381    0.304904    3.184587
  52 H     1.0000    0     1.008    9.635130    0.343760   -0.667056
  53 H     1.0000    0     1.008    7.343785   -0.190609    4.606663
  54 C     6.0000    0    12.011   11.143570    1.441157    4.221596
  55 C     6.0000    0    12.011   12.969842    2.387031    2.194517
  56 C     6.0000    0    12.011   12.476114   -0.372729    6.116190
  57 H     1.0000    0     1.008   10.570616    3.092527    5.358698
  58 H     1.0000    0     1.008   14.190931    0.625686    6.739481
  59 C     6.0000    0    12.011   13.283744   -2.867636    4.897297
  60 C     6.0000    0    12.011   10.859842   -0.876965    8.462345
  61 H     1.0000    0     1.008   12.081530    3.836936    1.014641
  62 H     1.0000    0     1.008   13.600160    0.862116    0.946207
  63 H     1.0000    0     1.008   14.647119    3.216494    3.079341
  64 H     1.0000    0     1.008   14.301395   -4.044007    6.263981
  65 H     1.0000    0     1.008   14.525999   -2.572903    3.269762
  66 H     1.0000    0     1.008   11.627921   -3.930843    4.247085
  67 H     1.0000    0     1.008    9.201402   -2.031471    8.006851
  68 H     1.0000    0     1.008   10.197873    0.889737    9.318111
  69 H     1.0000    0     1.008   11.955110   -1.905998    9.886670
  70 H     1.0000    0     1.008    8.479955   -4.070365   -2.090134
  71 H     1.0000    0     1.008    5.280373   -5.003135   -2.302528
  72 H     1.0000    0     1.008    6.925876   -5.287531    0.612578

--------------------------------
INTERNAL COORDINATES (ANGSTROEM)
--------------------------------
 C      0   0   0     0.000000000000     0.00000000     0.00000000
 C      1   0   0     1.510492859286     0.00000000     0.00000000
 C      2   1   0     1.533834382841   111.69998407     0.00000000
 H      2   1   3     1.103235815722   109.37021631   241.51550497
 H      2   1   3     1.095524300079   110.71367261   122.88200655
 C      1   2   3     1.478658929073   114.13181127    50.65335510
 C      6   1   2     1.512070047488   114.38178986   311.75958144
 C      3   2   1     1.524631120547   110.35789754   305.04009578
 H      7   6   1     1.100640105904   108.37807363   290.19365069
 H      7   6   1     1.095104119183   110.24128617   172.94543446
 H      8   3   2     1.096370853654   109.69370123   179.03908457
 H      8   3   2     1.100495487201   108.63187019   296.47294051
 O      3   2   1     1.433550056606   111.20053722   180.35926590
 H      3   2   1     1.098973899603   108.98995509    65.15564451
 C      1   2   3     1.354027250417   120.96089271   233.02162632
 C      6   1   2     1.337820576687   123.37413827   129.48540375
 H     16   6   1     1.086491940448   121.40302030     0.74441487
 H     16   6   1     1.087491038409   120.95412838   181.37083522
 C     15   1   2     1.444496865988   126.40338021   175.05215001
 H     15   1   2     1.089146856287   116.20792975   357.91060850
 C     19  15   1     1.350500387110   126.44845968   176.86677152
 H     19  15   1     1.087655064743   115.94948831   355.80932349
 C     21  19  15     1.507671440816   125.77406919   357.05967855
 C     23  21  19     1.540835595977   111.80814935   127.16162846
 H     23  21  19     1.093489398177   112.34307804     3.04583386
 H     23  21  19     1.101853513442   107.76099118   245.79287875
 C     24  23  21     1.534974994691   112.66969618    50.69137516
 H     24  23  21     1.097373697082   109.06192816   288.53530018
 H     24  23  21     1.096961793185   109.12549118   172.59360960
 C     27  24  23     1.535169142211   111.86566537   306.35156053
 H     27  24  23     1.094977053780   108.98882210   182.73952675
 H     27  24  23     1.100518989663   109.17904500    66.25746505
 C     21  19  15     1.497956213511   122.71193026   177.04618213
 H     33  21  19     1.105960773738   106.44066747   124.67034473
 C     33  21  19     1.524368739192   121.09627353     2.17477106
 H     13   3   2     0.966563835954   107.50790888    62.65957027
 C     35  33  21     1.548059051281   103.34217226   195.21390636
 H     35  33  21     1.095241030359   112.23469072    73.45472338
 H     35  33  21     1.095801246884   110.70209559   313.76846898
 C     30  27  24     1.556341259461   115.81742528   166.47128222
 H     37  35  33     1.093234115426   111.22586453   251.71594967
 H     37  35  33     1.096515219201   111.20789263   133.35412276
 H     40  30  27     1.101575473140   105.78451134   322.07761495
 C     40  30  27     1.534760912499   117.97343686    82.94085427
 C     30  27  24     1.534909117379   111.10615720   294.64075870
 H     45  30  27     1.094440904866   111.37522705    67.37019197
 H     45  30  27     1.095163817852   110.86674569   307.25314914
 H     45  30  27     1.094616792824   111.63621468   187.26515819
 H     44  40  30     1.101554321681   107.40497540    62.02566154
 C     44  40  30     1.540388689345   114.11846206   303.13246551
 C     44  40  30     1.513838411199   113.72915697   179.76705145
 C     51  44  40     1.333088934043   127.17362123    23.43053925
 H     51  44  40     1.091121283839   113.74843474   198.90297793
 H     52  51  44     1.089735648681   118.76314649   356.01221401
 C     52  51  44     1.506379640740   126.50440894   176.02125178
 C     55  52  51     1.528121929898   114.02596953     6.28483209
 C     55  52  51     1.556837641808   111.69123935   238.66646146
 H     55  52  51     1.103470636444   106.47297490   124.38959623
 H     57  55  52     1.100627436984   105.69158729   179.57926430
 C     57  55  52     1.530276937569   112.76723111    61.71760952
 C     57  55  52     1.531054510250   112.12516379   296.45009155
 H     56  55  52     1.095209312623   110.98987872    59.32639811
 H     56  55  52     1.094891023957   112.00995352   298.97640920
 H     56  55  52     1.095304921231   110.10036098   178.98626077
 H     60  57  55     1.095701635891   110.43912983   176.95694471
 H     60  57  55     1.094633668688   112.11259039    56.76527030
 H     60  57  55     1.096678694380   110.59232323   296.39581517
 H     61  57  55     1.096148700356   111.47393086    69.74197263
 H     61  57  55     1.096274852726   111.39814649   308.92503368
 H     61  57  55     1.095693656962   110.42164986   188.94600102
 H     50  44  40     1.095859518851   110.29146278   188.34292696
 H     50  44  40     1.093113431238   112.20480685    68.31195562
 H     50  44  40     1.096465280695   110.19202121   307.20672990

---------------------------
INTERNAL COORDINATES (A.U.)
---------------------------
 C      0   0   0     0.000000000000     0.00000000     0.00000000
 C      1   0   0     2.854417831295     0.00000000     0.00000000
 C      2   1   0     2.898526918361   111.69998407     0.00000000
 H      2   1   3     2.084813552848   109.37021631   241.51550497
 H      2   1   3     2.070240900205   110.71367261   122.88200655
 C      1   2   3     2.794260421425   114.13181127    50.65335510
 C      6   1   2     2.857398285058   114.38178986   311.75958144
 C      3   2   1     2.881135273088   110.35789754   305.04009578
 H      7   6   1     2.079908372169   108.37807363   290.19365069
 H      7   6   1     2.069446873384   110.24128617   172.94543446
 H      8   3   2     2.071840654619   109.69370123   179.03908457
 H      8   3   2     2.079635082426   108.63187019   296.47294051
 O      3   2   1     2.709017006254   111.20053722   180.35926590
 H      3   2   1     2.076759698577   108.98995509    65.15564451
 C      1   2   3     2.558740681155   120.96089271   233.02162632
 C      6   1   2     2.528114506263   123.37413827   129.48540375
 H     16   6   1     2.053172214159   121.40302030     0.74441487
 H     16   6   1     2.055060235687   120.95412838   181.37083522
 C     15   1   2     2.729703478026   126.40338021   175.05215001
 H     15   1   2     2.058189278003   116.20792975   357.91060850
 C     19  15   1     2.552075875392   126.44845968   176.86677152
 H     19  15   1     2.055370200536   115.94948831   355.80932349
 C     21  19  15     2.849086123077   125.77406919   357.05967855
 C     23  21  19     2.911757293794   111.80814935   127.16162846
 H     23  21  19     2.066395492902   112.34307804     3.04583386
 H     23  21  19     2.082201380105   107.76099118   245.79287875
 C     24  23  21     2.900682362384   112.66969618    50.69137516
 H     24  23  21     2.073735754053   109.06192816   288.53530018
 H     24  23  21     2.072957368495   109.12549118   172.59360960
 C     27  24  23     2.901049248025   111.86566537   306.35156053
 H     27  24  23     2.069206754573   108.98882210   182.73952675
 H     27  24  23     2.079679495643   109.17904500    66.25746505
 C     21  19  15     2.830727004142   122.71193026   177.04618213
 H     33  21  19     2.089962977224   106.44066747   124.67034473
 C     33  21  19     2.880639444183   121.09627353     2.17477106
 H     13   3   2     1.826540940906   107.50790888    62.65957027
 C     35  33  21     2.925407646060   103.34217226   195.21390636
 H     35  33  21     2.069705598013   112.23469072    73.45472338
 H     35  33  21     2.070764253820   110.70209559   313.76846898
 C     30  27  24     2.941058751303   115.81742528   166.47128222
 H     37  35  33     2.065913078415   111.22586453   251.71594967
 H     37  35  33     2.072113465966   111.20789263   133.35412276
 H     40  30  27     2.081675960079   105.78451134   322.07761495
 C     40  30  27     2.900277805670   117.97343686    82.94085427
 C     30  27  24     2.900557872305   111.10615720   294.64075870
 H     45  30  27     2.068193579957   111.37522705    67.37019197
 H     45  30  27     2.069559687519   110.86674569   307.25314914
 H     45  30  27     2.068525960029   111.63621468   187.26515819
 H     44  40  30     2.081635989614   107.40497540    62.02566154
 C     44  40  30     2.910912762652   114.11846206   303.13246551
 C     44  40  30     2.860740008177   113.72915697   179.76705145
 C     51  44  40     2.519172997502   127.17362123    23.43053925
 H     51  44  40     2.061920405348   113.74843474   198.90297793
 H     52  51  44     2.059301934377   118.76314649   356.01221401
 C     52  51  44     2.846644974714   126.50440894   176.02125178
 C     55  52  51     2.887731946746   114.02596953     6.28483209
 C     55  52  51     2.941996777997   111.69123935   238.66646146
 H     55  52  51     2.085257299703   106.47297490   124.38959623
 H     57  55  52     2.079884431380   105.69158729   179.57926430
 C     57  55  52     2.891804321061   112.76723111    61.71760952
 C     57  55  52     2.893273720477   112.12516379   296.45009155
 H     56  55  52     2.069645660178   110.98987872    59.32639811
 H     56  55  52     2.069044181768   112.00995352   298.97640920
 H     56  55  52     2.069826334263   110.10036098   178.98626077
 H     60  57  55     2.070576016324   110.43912983   176.95694471
 H     60  57  55     2.068557850790   112.11259039    56.76527030
 H     60  57  55     2.072422389284   110.59232323   296.39581517
 H     61  57  55     2.071420845726   111.47393086    69.74197263
 H     61  57  55     2.071659239157   111.39814649   308.92503368
 H     61  57  55     2.070560938333   110.42164986   188.94600102
 H     50  44  40     2.070874371879   110.29146278   188.34292696
 H     50  44  40     2.065685018352   112.20480685    68.31195562
 H     50  44  40     2.072019095867   110.19202121   307.20672990

---------------------
BASIS SET INFORMATION
---------------------
There are 3 groups of distinct atoms

 Group   1 Type C   : 8s5p1d contracted to 3s3p1d pattern {521/311/1}
 Group   2 Type H   : 4s2p contracted to 2s1p pattern {31/2}
 Group   3 Type O   : 8s5p1d contracted to 3s3p1d pattern {521/311/1}

Atom   0C    basis set group =>   1
Atom   1C    basis set group =>   1
Atom   2C    basis set group =>   1
Atom   3H    basis set group =>   2
Atom   4H    basis set group =>   2
Atom   5C    basis set group =>   1
Atom   6C    basis set group =>   1
Atom   7C    basis set group =>   1
Atom   8H    basis set group =>   2
Atom   9H    basis set group =>   2
Atom  10H    basis set group =>   2
Atom  11H    basis set group =>   2
Atom  12O    basis set group =>   3
Atom  13H    basis set group =>   2
Atom  14C    basis set group =>   1
Atom  15C    basis set group =>   1
Atom  16H    basis set group =>   2
Atom  17H    basis set group =>   2
Atom  18C    basis set group =>   1
Atom  19H    basis set group =>   2
Atom  20C    basis set group =>   1
Atom  21H    basis set group =>   2
Atom  22C    basis set group =>   1
Atom  23C    basis set group =>   1
Atom  24H    basis set group =>   2
Atom  25H    basis set group =>   2
Atom  26C    basis set group =>   1
Atom  27H    basis set group =>   2
Atom  28H    basis set group =>   2
Atom  29C    basis set group =>   1
Atom  30H    basis set group =>   2
Atom  31H    basis set group =>   2
Atom  32C    basis set group =>   1
Atom  33H    basis set group =>   2
Atom  34C    basis set group =>   1
Atom  35H    basis set group =>   2
Atom  36C    basis set group =>   1
Atom  37H    basis set group =>   2
Atom  38H    basis set group =>   2
Atom  39C    basis set group =>   1
Atom  40H    basis set group =>   2
Atom  41H    basis set group =>   2
Atom  42H    basis set group =>   2
Atom  43C    basis set group =>   1
Atom  44C    basis set group =>   1
Atom  45H    basis set group =>   2
Atom  46H    basis set group =>   2
Atom  47H    basis set group =>   2
Atom  48H    basis set group =>   2
Atom  49C    basis set group =>   1
Atom  50C    basis set group =>   1
Atom  51C    basis set group =>   1
Atom  52H    basis set group =>   2
Atom  53H    basis set group =>   2
Atom  54C    basis set group =>   1
Atom  55C    basis set group =>   1
Atom  56C    basis set group =>   1
Atom  57H    basis set group =>   2
Atom  58H    basis set group =>   2
Atom  59C    basis set group =>   1
Atom  60C    basis set group =>   1
Atom  61H    basis set group =>   2
Atom  62H    basis set group =>   2
Atom  63H    basis set group =>   2
Atom  64H    basis set group =>   2
Atom  65H    basis set group =>   2
Atom  66H    basis set group =>   2
Atom  67H    basis set group =>   2
Atom  68H    basis set group =>   2
Atom  69H    basis set group =>   2
Atom  70H    basis set group =>   2
Atom  71H    basis set group =>   2
Atom  72H    basis set group =>   2

-------------------------
BASIS SET IN INPUT FORMAT
-------------------------

 # Basis set for element : H 
 NewGTO H 
 S 3 
   1      12.2518000000      0.0372173893
   2       1.8687100000      0.2538082070
   3       0.4182080000      0.7973867639
 S 1 
   1       0.1061000000      1.0000000000
 P 2 
   1       9.0000000000      0.0402678705
   2       1.0000000000      0.9880231245
  end;

 # Basis set for element : C 
 NewGTO C 
 S 5 
   1    1243.2000000000      0.0056300977
   2     187.1450000000      0.0419506039
   3      42.5126000000      0.1846643605
   4      11.7393000000      0.4665574214
   5       3.5054800000      0.4482347783
 S 2 
   1       5.3908900000     -0.1481148174
   2       0.4933410000      1.0519817143
 S 1 
   1       0.1497410000      1.0000000000
 P 3 
   1      59.6736000000      0.0113906672
   2       9.1805600000      0.1672414929
   3       1.9365800000      0.9041087436
 P 1 
   1       0.5262960000      1.0000000000
 P 1 
   1       0.1363190000      1.0000000000
 D 1 
   1       0.8000000000      1.0000000000
  end;

 # Basis set for element : O 
 NewGTO O 
 S 5 
   1    2288.6400000000      0.0054511382
   2     344.4160000000      0.0407189228
   3      78.2538000000      0.1813694209
   4      21.7195000000      0.4655368202
   5       6.5590700000      0.4512113212
 S 2 
   1      10.4656000000     -0.1502112012
   2       0.9643510000      1.0528679834
 S 1 
   1       0.2851270000      1.0000000000
 P 3 
   1     110.8840000000      0.0113058003
   2      17.0590000000      0.1699226452
   3       3.6899900000      0.9008060328
 P 1 
   1       0.9929960000      1.0000000000
 P 1 
   1       0.2449240000      1.0000000000
 D 1 
   1       1.0000000000      1.0000000000
  end;

---------------------------------
AUXILIARY/J BASIS SET INFORMATION
---------------------------------
There are 3 groups of distinct atoms

 Group   1 Type C   : 12s5p4d2f1g contracted to 6s4p3d1f1g pattern {711111/2111/211/2/1}
 Group   2 Type H   : 5s2p1d contracted to 3s1p1d pattern {311/2/1}
 Group   3 Type O   : 12s5p4d2f1g contracted to 6s4p3d1f1g pattern {711111/2111/211/2/1}

Atom   0C    basis set group =>   1
Atom   1C    basis set group =>   1
Atom   2C    basis set group =>   1
Atom   3H    basis set group =>   2
Atom   4H    basis set group =>   2
Atom   5C    basis set group =>   1
Atom   6C    basis set group =>   1
Atom   7C    basis set group =>   1
Atom   8H    basis set group =>   2
Atom   9H    basis set group =>   2
Atom  10H    basis set group =>   2
Atom  11H    basis set group =>   2
Atom  12O    basis set group =>   3
Atom  13H    basis set group =>   2
Atom  14C    basis set group =>   1
Atom  15C    basis set group =>   1
Atom  16H    basis set group =>   2
Atom  17H    basis set group =>   2
Atom  18C    basis set group =>   1
Atom  19H    basis set group =>   2
Atom  20C    basis set group =>   1
Atom  21H    basis set group =>   2
Atom  22C    basis set group =>   1
Atom  23C    basis set group =>   1
Atom  24H    basis set group =>   2
Atom  25H    basis set group =>   2
Atom  26C    basis set group =>   1
Atom  27H    basis set group =>   2
Atom  28H    basis set group =>   2
Atom  29C    basis set group =>   1
Atom  30H    basis set group =>   2
Atom  31H    basis set group =>   2
Atom  32C    basis set group =>   1
Atom  33H    basis set group =>   2
Atom  34C    basis set group =>   1
Atom  35H    basis set group =>   2
Atom  36C    basis set group =>   1
Atom  37H    basis set group =>   2
Atom  38H    basis set group =>   2
Atom  39C    basis set group =>   1
Atom  40H    basis set group =>   2
Atom  41H    basis set group =>   2
Atom  42H    basis set group =>   2
Atom  43C    basis set group =>   1
Atom  44C    basis set group =>   1
Atom  45H    basis set group =>   2
Atom  46H    basis set group =>   2
Atom  47H    basis set group =>   2
Atom  48H    basis set group =>   2
Atom  49C    basis set group =>   1
Atom  50C    basis set group =>   1
Atom  51C    basis set group =>   1
Atom  52H    basis set group =>   2
Atom  53H    basis set group =>   2
Atom  54C    basis set group =>   1
Atom  55C    basis set group =>   1
Atom  56C    basis set group =>   1
Atom  57H    basis set group =>   2
Atom  58H    basis set group =>   2
Atom  59C    basis set group =>   1
Atom  60C    basis set group =>   1
Atom  61H    basis set group =>   2
Atom  62H    basis set group =>   2
Atom  63H    basis set group =>   2
Atom  64H    basis set group =>   2
Atom  65H    basis set group =>   2
Atom  66H    basis set group =>   2
Atom  67H    basis set group =>   2
Atom  68H    basis set group =>   2
Atom  69H    basis set group =>   2
Atom  70H    basis set group =>   2
Atom  71H    basis set group =>   2
Atom  72H    basis set group =>   2

-------------------------------------
AUXILIARY/J BASIS SET IN INPUT FORMAT
-------------------------------------

 # Auxiliary/J basis set for element : H 
 NewAuxJGTO H 
 S 3 
   1      15.6752927000      0.1007184237
   2       3.6063578000      0.3404257499
   3       1.2080016000      0.6491996172
 S 1 
   1       0.4726794000      1.0000000000
 S 1 
   1       0.2018100000      1.0000000000
 P 2 
   1       2.0281365000      0.5596620919
   2       0.5358730000      0.5596620919
 D 1 
   1       2.2165124000      1.0000000000
  end;

 # Auxiliary/J basis set for element : C 
 NewAuxJGTO C 
 S 7 
   1    1861.0916331000      0.0134602335
   2     642.9939764000      0.0299160374
   3     235.1105725000      0.1008649584
   4      90.7028894000      0.2370970548
   5      36.7794552000      0.3924037254
   6      15.6046273000      0.3195862154
   7       6.8907294000      0.0530104441
 S 1 
   1       3.1478850000     -1.0000000000
 S 1 
   1       1.4777287000      1.0000000000
 S 1 
   1       0.7076466000      1.0000000000
 S 1 
   1       0.3430122000      1.0000000000
 S 1 
   1       0.1669453000      1.0000000000
 P 2 
   1      13.5472892000     -0.6769313712
   2       5.4669419000     -0.3779500978
 P 1 
   1       2.1751721000      1.0000000000
 P 1 
   1       0.8582194000      1.0000000000
 P 1 
   1       0.3376720000      1.0000000000
 D 2 
   1       5.9287253000     -0.3533329857
   2       1.9809209000     -0.7456525731
 D 1 
   1       0.8055417000     -1.0000000000
 D 1 
   1       0.3531244000     -1.0000000000
 F 2 
   1       1.6755626000      0.6311076882
   2       0.5997536000      0.4968166032
 G 1 
   1       1.0024600000     -1.0000000000
  end;

 # Auxiliary/J basis set for element : O 
 NewAuxJGTO O 
 S 7 
   1    2876.8216605000      0.0168151159
   2    1004.7443032000      0.0340137548
   3     369.7579954000      0.1194951309
   4     142.9442404000      0.2664627624
   5      57.8366425000      0.4202764046
   6      24.3864983000      0.2765077335
   7      10.6622662000      0.0057008815
 S 1 
   1       4.8070437000     -1.0000000000
 S 1 
   1       2.2210770000      1.0000000000
 S 1 
   1       1.0447795000      1.0000000000
 S 1 
   1       0.4968425000      1.0000000000
 S 1 
   1       0.2371384000      1.0000000000
 P 2 
   1      64.2613382000     -0.2731534179
   2      16.3006076000     -0.8168011598
 P 1 
   1       4.3550542000      1.0000000000
 P 1 
   1       1.2019554000      1.0000000000
 P 1 
   1       0.3354196000      1.0000000000
 D 2 
   1       9.2146611000     -0.4661230638
   2       2.8435251000     -0.6600908911
 D 1 
   1       0.9955759000     -1.0000000000
 D 1 
   1       0.3649441000     -1.0000000000
 F 2 
   1       2.6420115000      0.5931563945
   2       0.7345613000      0.5931563945
 G 1 
   1       1.3931000000     -1.0000000000
  end;



           ************************************************************
           *        Program running with 4 parallel MPI-processes     *
           *              working on a common directory               *
           ************************************************************
------------------------------------------------------------------------------
                           ORCA GTO INTEGRAL CALCULATION
                           -- RI-GTO INTEGRALS CHOSEN --
------------------------------------------------------------------------------
------------------------------------------------------------------------------
                   ___                                                        
                  /   \      - P O W E R E D   B Y -                         
                 /     \                                                     
                 |  |  |   _    _      __       _____    __    __             
                 |  |  |  | |  | |    /  \     |  _  \  |  |  /  |          
                  \  \/   | |  | |   /    \    | | | |  |  | /  /          
                 / \  \   | |__| |  /  /\  \   | |_| |  |  |/  /          
                |  |  |   |  __  | /  /__\  \  |    /   |      \           
                |  |  |   | |  | | |   __   |  |    \   |  |\   \          
                \     /   | |  | | |  |  |  |  | |\  \  |  | \   \       
                 \___/    |_|  |_| |__|  |__|  |_| \__\ |__|  \__/        
                                                                              
                      - O R C A' S   B I G   F R I E N D -                    
                                      &                                       
                       - I N T E G R A L  F E E D E R -                       
                                                                              
 v1 FN, 2020, v2 2021                                                         
------------------------------------------------------------------------------


Reading SHARK input file inpS.SHARKINP.tmp ... ok
----------------------
SHARK INTEGRAL PACKAGE
----------------------

Number of atoms                             ...     73
Number of basis functions                   ...    713
Number of shells                            ...    335
Maximum angular momentum                    ...      2
Integral batch strategy                     ... SHARK/LIBINT Hybrid
RI-J (if used) integral strategy            ... SPLIT-RIJ (Revised 2003 algorithm where possible)
Printlevel                                  ...      1
Contraction scheme used                     ... SEGMENTED contraction
Coulomb Range Separation                    ... NOT USED
Exchange Range Separation                   ... NOT USED
Finite Nucleus Model                        ... NOT USED
Auxiliary Coulomb fitting basis             ... AVAILABLE
   # of basis functions in Aux-J            ...   1905
   # of shells in Aux-J                     ...    655
   Maximum angular momentum in Aux-J        ...      4
Auxiliary J/K fitting basis                 ... NOT available
Auxiliary Correlation fitting basis         ... NOT available
Auxiliary 'external' fitting basis          ... NOT available
Integral threshold                          ...     3.000000e-11
Primitive cut-off                           ...     1.000000e-12
Primitive pair pre-selection threshold      ...     1.000000e-12

Calculating pre-screening integrals         ... done (  0.0 sec) Dimension = 335
Organizing shell pair data                  ... done (  0.2 sec)
Shell pair information
Total number of shell pairs                 ...     56280
Shell pairs after pre-screening             ...     31879
Total number of primitive shell pairs       ...    225367
Primitive shell pairs kept                  ...     75019
          la=0 lb=0:   9755 shell pairs
          la=1 lb=0:  13093 shell pairs
          la=1 lb=1:   4286 shell pairs
          la=2 lb=0:   2787 shell pairs
          la=2 lb=1:   1761 shell pairs
          la=2 lb=2:    197 shell pairs

Calculating one electron integrals          ... done (  0.1 sec)
Calculating RI/J V-Matrix + Cholesky decomp.... done (  0.2 sec)
Calculating Nuclear repulsion               ... done (  0.0 sec) ENN=   2783.248108447214 Eh

SHARK setup successfully completed in   0.6 seconds

Maximum memory used throughout the entire GTOINT-calculation: 61.4 MB


           ************************************************************
           *        Program running with 4 parallel MPI-processes     *
           *              working on a common directory               *
           ************************************************************
-------------------------------------------------------------------------------
                                 ORCA SCF
-------------------------------------------------------------------------------

------------
SCF SETTINGS
------------
Hamiltonian:
 Density Functional     Method          .... DFT(GTOs)
 Exchange Functional    Exchange        .... revTPSS
 Correlation Functional Correlation     .... revTPSS
 LDA part of GGA corr.  LDAOpt          .... PW91-LDA
 Gradients option       PostSCFGGA      .... off
   Density functional embedding theory  .... OFF
 RI-approximation to the Coulomb term is turned on
   Number of AuxJ basis functions       .... 1905


General Settings:
 Integral files         IntName         .... inpS
 Hartree-Fock type      HFTyp           .... RHF
 Total Charge           Charge          ....    0
 Multiplicity           Mult            ....    1
 Number of Electrons    NEL             ....  220
 Basis Dimension        Dim             ....  713
 Nuclear Repulsion      ENuc            ....   2783.2481084472 Eh

Convergence Acceleration:
 DIIS                   CNVDIIS         .... on
   Start iteration      DIISMaxIt       ....    12
   Startup error        DIISStart       ....  0.200000
   # of expansion vecs  DIISMaxEq       ....     5
   Bias factor          DIISBfac        ....   1.050
   Max. coefficient     DIISMaxC        ....  10.000
 Trust-Rad. Augm. Hess. CNVTRAH         .... auto
   Auto Start mean grad. ratio tolernc. ....  1.125000
   Auto Start start iteration           ....    20
   Auto Start num. interpolation iter.  ....    10
   Max. Number of Micro iterations      ....    16
   Max. Number of Macro iterations      .... Maxiter - #DIIS iter
   Number of Davidson start vectors     ....     2
   Converg. threshold I  (grad. norm)   ....   1.000e-04
   Converg. threshold II (energy diff.) ....   1.000e-07
   Grad. Scal. Fac. for Micro threshold ....   0.100
   Minimum threshold for Micro iter.    ....   0.010
   NR start threshold (gradient norm)   ....   0.001
   Initial trust radius                 ....   0.400
   Minimum AH scaling param. (alpha)    ....   1.000
   Maximum AH scaling param. (alpha)    .... 1000.000
   Orbital update algorithm             .... Taylor
   White noise on init. David. guess    .... on
   Maximum white noise                  ....   0.010
   Quad. conv. algorithm                .... NR
 SOSCF                  CNVSOSCF        .... off
 Level Shifting         CNVShift        .... on
   Level shift para.    LevelShift      ....    0.2500
   Turn off err/grad.   ShiftErr        ....    0.0010
 Zerner damping         CNVZerner       .... off
 Static damping         CNVDamp         .... on
   Fraction old density DampFac         ....    0.7000
   Max. Damping (<1)    DampMax         ....    0.9800
   Min. Damping (>=0)   DampMin         ....    0.0000
   Turn off err/grad.   DampErr         ....    0.1000
 Fernandez-Rico         CNVRico         .... off

SCF Procedure:
 Maximum # iterations   MaxIter         ....   125
 SCF integral mode      SCFMode         .... Direct
   Integral package                     .... SHARK and LIBINT hybrid scheme
 Reset frequency        DirectResetFreq ....    20
 Integral Threshold     Thresh          ....  3.000e-11 Eh
 Primitive CutOff       TCut            ....  1.000e-12 Eh

Convergence Tolerance:
 Convergence Check Mode ConvCheckMode   .... Total+1el-Energy
 Convergence forced     ConvForced      .... 0
 Energy Change          TolE            ....  1.000e-07 Eh
 1-El. energy change                    ....  1.000e-04 Eh
 DIIS Error             TolErr          ....  1.000e-07


Diagonalization of the overlap matrix:
Smallest eigenvalue                        ... 4.980e-04
Time for diagonalization                   ...    0.081 sec
Threshold for overlap eigenvalues          ... 1.000e-08
Number of eigenvalues below threshold      ... 0
Time for construction of square roots      ...    0.071 sec
Total time needed                          ...    0.155 sec

Time for model grid setup =    0.757 sec

------------------------------
INITIAL GUESS: MODEL POTENTIAL
------------------------------
Loading Hartree-Fock densities                     ... done
Calculating cut-offs                               ... done
Initializing the effective Hamiltonian             ... done
Setting up the integral package (SHARK)            ... done
Starting the Coulomb interaction                   ... done (   0.7 sec)
Reading the grid                                   ... done
Mapping shells                                     ... done
Starting the XC term evaluation                    ... done (   0.3 sec)
  promolecular density results
     # of electrons  =    219.982046533
     EX              =   -164.433531389
     EC              =     -7.326920926
     EX+EC           =   -171.760452315
Transforming the Hamiltonian                       ... done (   0.1 sec)
Diagonalizing the Hamiltonian                      ... done (   0.1 sec)
Back transforming the eigenvectors                 ... done (   0.0 sec)
Now organizing SCF variables                       ... done
                      ------------------
                      INITIAL GUESS DONE (   1.9 sec)
                      ------------------
-------------------
DFT GRID GENERATION
-------------------

General Integration Accuracy     IntAcc      ... 4.388
Radial Grid Type                 RadialGrid  ... OptM3 with GC (2021)
Angular Grid (max. ang.)         AngularGrid ... 4 (Lebedev-302)
Angular grid pruning method      GridPruning ... 4 (adaptive)
Weight generation scheme         WeightScheme... Becke
Basis function cutoff            BFCut       ... 1.0000e-11
Integration weight cutoff        WCut        ... 1.0000e-14
Angular grids for H and He will be reduced by one unit
Partially contracted basis set               ... off
Rotationally invariant grid construction     ... off

Total number of grid points                  ...   309897
Total number of batches                      ...     4877
Average number of points per batch           ...       63
Average number of grid points per atom       ...     4245
Time for grid setup =    3.118 sec


--------------------
CPCM SOLVATION MODEL
--------------------
CPCM parameters:
  Epsilon                                         ...       4.9000
  Refrac                                          ...       1.4500
  Rsolv                                           ...       1.3000
  Surface type                                    ... GAUSSIAN VDW
  Epsilon function type                           ...         CPCM
Radii:
 Radius for C  used is    3.8550 Bohr (=   2.0400 Ang.)
 Radius for H  used is    2.4944 Bohr (=   1.3200 Ang.)
 Radius for O  used is    3.4469 Bohr (=   1.8240 Ang.)
Calculating surface                               ...        done! (  0.0s)
GEPOL surface points                              ...         3637
GEPOL Volume                                      ...    3603.0029
GEPOL Surface-area                                ...    1790.0361
Calculating surface distance matrix               ...        done! (  0.1s)
Performing Cholesky decomposition & store         ...        done! (  0.5s)
Overall time for CPCM initialization              ...                 0.6s
--------------
SCF ITERATIONS
--------------
ITER       Energy         Delta-E        Max-DP      RMS-DP      [F,P]     Damp
               ***  Starting incremental Fock matrix formation  ***

  HOMO= 109 E= -1.873 eV LUMO=  7.838 eV gap=   9.711 eV
  0  -1167.5218639192   0.000000000000 0.05216824  0.00083499  0.2598563 0.7000

  HOMO= 109 E= -3.347 eV LUMO=  6.726 eV gap=  10.073 eV
  1  -1167.8953151148  -0.373451195628 0.02890773  0.00061652  0.1007967 0.7000
                               ***Turning on DIIS***

  HOMO= 109 E= -4.322 eV LUMO=  5.835 eV gap=  10.156 eV
  2  -1168.0416690665  -0.146353951745 0.05203426  0.00101425  0.0298830 0.0000

  HOMO= 109 E= -4.949 eV LUMO=  5.243 eV gap=  10.192 eV
  3  -1168.2387893734  -0.197120306826 0.02318771  0.00047687  0.0545275 0.0000

  HOMO= 109 E= -4.988 eV LUMO=  5.204 eV gap=  10.193 eV
  4  -1168.3059781239  -0.067188750499 0.00743194  0.00015140  0.0102088 0.0000

  HOMO= 109 E= -4.938 eV LUMO=  5.262 eV gap=  10.200 eV
  5  -1168.3090299640  -0.003051840155 0.00309579  0.00005671  0.0091590 0.0000

  HOMO= 109 E= -4.918 eV LUMO=  5.279 eV gap=  10.197 eV
  6  -1168.3092950726  -0.000265108626 0.00123258  0.00001918  0.0028884 0.0000

  HOMO= 109 E= -4.920 eV LUMO= -1.526 eV gap=   3.394 eV
  7  -1168.3093154303  -0.000020357678 0.00073629  0.00001163  0.0005142 0.0000

  HOMO= 109 E= -4.919 eV LUMO= -1.525 eV gap=   3.394 eV
  8  -1168.3093182500  -0.000002819651 0.00026810  0.00000297  0.0003875 0.0000

  HOMO= 109 E= -4.916 eV LUMO= -1.522 eV gap=   3.394 eV
  9  -1168.3093189172  -0.000000667212 0.00016364  0.00000157  0.0002528 0.0000

  HOMO= 109 E= -4.917 eV LUMO= -1.523 eV gap=   3.394 eV
 10  -1168.3093191657  -0.000000248515 0.00006184  0.00000070  0.0000958 0.0000

  HOMO= 109 E= -4.917 eV LUMO= -1.523 eV gap=   3.394 eV
 11  -1168.3093192219  -0.000000056158 0.00002472  0.00000027  0.0000315 0.0000

  HOMO= 109 E= -4.917 eV LUMO= -1.523 eV gap=   3.394 eV
 12  -1168.3093192085   0.000000013400 0.00001104  0.00000012  0.0000160 0.0000

  HOMO= 109 E= -4.917 eV LUMO= -1.523 eV gap=   3.394 eV
 13  -1168.3093192453  -0.000000036828 0.00000580  0.00000005  0.0000084 0.0000
                 **** Energy Check signals convergence ****

               *****************************************************
               *                     SUCCESS                       *
               *           SCF CONVERGED AFTER  14 CYCLES          *
               *****************************************************


----------------
TOTAL SCF ENERGY
----------------

Total Energy       :        -1168.30931926 Eh          -31791.31282 eV

Components:
Nuclear Repulsion  :         2783.24810845 Eh           75736.03138 eV
Electronic Energy  :        -3951.55742770 Eh         -107527.34419 eV
One Electron Energy:        -7112.92397855 Eh         -193552.50148 eV
Two Electron Energy:         3161.36655084 Eh           86025.15728 eV
CPCM Dielectric    :           -0.01048862 Eh              -0.28541 eV

Virial components:
Potential Energy   :        -2330.40750278 Eh          -63413.61204 eV
Kinetic Energy     :         1162.09818352 Eh           31622.29922 eV
Virial Ratio       :            2.00534476


DFT components:
N(Alpha)           :      110.000108242667 electrons
N(Beta)            :      110.000108242667 electrons
N(Total)           :      220.000216485335 electrons
E(X)               :     -169.584217049769 Eh       
E(C)               :       -7.443408866266 Eh       
E(XC)              :     -177.027625916035 Eh       
DFET-embed. en.    :        0.000000000000 Eh       
CPCM Solvation Model Properties:
Surface-charge          :           -0.04485354
Charge-correction       :           -0.00002916 Eh              -0.00079 eV
Free-energy (cav+disp)  :  This term is not implemented in the current solvation scheme

---------------
SCF CONVERGENCE
---------------

  Last Energy change         ...   -1.2328e-08  Tolerance :   1.0000e-07
  Last MAX-Density change    ...    2.9757e-06  Tolerance :   1.0000e-05
  Last RMS-Density change    ...    2.7328e-08  Tolerance :   1.0000e-06
  Last DIIS Error            ...    3.3946e-06  Tolerance :   1.0000e-07

             **** THE GBW FILE WAS UPDATED (inpS.gbw) ****
             **** DENSITY inpS.scfp WAS UPDATED ****
             **** ENERGY FILE WAS UPDATED (inpS.en.tmp) ****
             **** THE GBW FILE WAS UPDATED (inpS.gbw) ****
             **** DENSITY inpS.scfp WAS UPDATED ****
----------------
ORBITAL ENERGIES
----------------

  NO   OCC          E(Eh)            E(eV) 
   0   2.0000     -18.905505      -514.4449 
   1   2.0000     -10.056999      -273.6648 
   2   2.0000     -10.015795      -272.5436 
   3   2.0000     -10.013393      -272.4783 
   4   2.0000     -10.013286      -272.4754 
   5   2.0000     -10.011347      -272.4226 
   6   2.0000     -10.011087      -272.4155 
   7   2.0000     -10.010160      -272.3903 
   8   2.0000     -10.010114      -272.3891 
   9   2.0000     -10.008171      -272.3362 
  10   2.0000     -10.008168      -272.3361 
  11   2.0000     -10.007733      -272.3243 
  12   2.0000     -10.006738      -272.2972 
  13   2.0000     -10.006507      -272.2909 
  14   2.0000     -10.005241      -272.2564 
  15   2.0000     -10.004627      -272.2397 
  16   2.0000     -10.004139      -272.2265 
  17   2.0000     -10.000921      -272.1389 
  18   2.0000      -9.999981      -272.1133 
  19   2.0000      -9.998606      -272.0759 
  20   2.0000      -9.998279      -272.0670 
  21   2.0000      -9.998266      -272.0666 
  22   2.0000      -9.998198      -272.0648 
  23   2.0000      -9.997269      -272.0395 
  24   2.0000      -9.996195      -272.0103 
  25   2.0000      -9.995980      -272.0044 
  26   2.0000      -9.995928      -272.0030 
  27   2.0000      -9.994493      -271.9640 
  28   2.0000      -9.994004      -271.9507 
  29   2.0000      -0.955800       -26.0086 
  30   2.0000      -0.806938       -21.9579 
  31   2.0000      -0.790925       -21.5222 
  32   2.0000      -0.770268       -20.9601 
  33   2.0000      -0.756016       -20.5722 
  34   2.0000      -0.733739       -19.9661 
  35   2.0000      -0.727204       -19.7882 
  36   2.0000      -0.708241       -19.2722 
  37   2.0000      -0.707850       -19.2616 
  38   2.0000      -0.693390       -18.8681 
  39   2.0000      -0.675314       -18.3762 
  40   2.0000      -0.656520       -17.8648 
  41   2.0000      -0.653187       -17.7741 
  42   2.0000      -0.634675       -17.2704 
  43   2.0000      -0.629195       -17.1213 
  44   2.0000      -0.623172       -16.9574 
  45   2.0000      -0.615965       -16.7613 
  46   2.0000      -0.590581       -16.0705 
  47   2.0000      -0.589318       -16.0362 
  48   2.0000      -0.559778       -15.2323 
  49   2.0000      -0.548865       -14.9354 
  50   2.0000      -0.547268       -14.8919 
  51   2.0000      -0.538440       -14.6517 
  52   2.0000      -0.526384       -14.3236 
  53   2.0000      -0.513951       -13.9853 
  54   2.0000      -0.494431       -13.4541 
  55   2.0000      -0.473185       -12.8760 
  56   2.0000      -0.465407       -12.6644 
  57   2.0000      -0.462108       -12.5746 
  58   2.0000      -0.451127       -12.2758 
  59   2.0000      -0.443783       -12.0760 
  60   2.0000      -0.430686       -11.7196 
  61   2.0000      -0.429310       -11.6821 
  62   2.0000      -0.424079       -11.5398 
  63   2.0000      -0.415335       -11.3018 
  64   2.0000      -0.413466       -11.2510 
  65   2.0000      -0.407216       -11.0809 
  66   2.0000      -0.403001       -10.9662 
  67   2.0000      -0.396530       -10.7901 
  68   2.0000      -0.395401       -10.7594 
  69   2.0000      -0.391608       -10.6562 
  70   2.0000      -0.386802       -10.5254 
  71   2.0000      -0.382794       -10.4164 
  72   2.0000      -0.377339       -10.2679 
  73   2.0000      -0.374133       -10.1807 
  74   2.0000      -0.371745       -10.1157 
  75   2.0000      -0.366698        -9.9784 
  76   2.0000      -0.359273        -9.7763 
  77   2.0000      -0.356698        -9.7063 
  78   2.0000      -0.352774        -9.5995 
  79   2.0000      -0.348803        -9.4914 
  80   2.0000      -0.345069        -9.3898 
  81   2.0000      -0.344288        -9.3686 
  82   2.0000      -0.342336        -9.3154 
  83   2.0000      -0.336716        -9.1625 
  84   2.0000      -0.332778        -9.0553 
  85   2.0000      -0.329255        -8.9595 
  86   2.0000      -0.322677        -8.7805 
  87   2.0000      -0.319779        -8.7016 
  88   2.0000      -0.316779        -8.6200 
  89   2.0000      -0.313275        -8.5247 
  90   2.0000      -0.309860        -8.4317 
  91   2.0000      -0.306504        -8.3404 
  92   2.0000      -0.304798        -8.2940 
  93   2.0000      -0.294805        -8.0221 
  94   2.0000      -0.289655        -7.8819 
  95   2.0000      -0.286917        -7.8074 
  96   2.0000      -0.284245        -7.7347 
  97   2.0000      -0.282936        -7.6991 
  98   2.0000      -0.279622        -7.6089 
  99   2.0000      -0.277669        -7.5558 
 100   2.0000      -0.275836        -7.5059 
 101   2.0000      -0.272638        -7.4189 
 102   2.0000      -0.269946        -7.3456 
 103   2.0000      -0.266095        -7.2408 
 104   2.0000      -0.260372        -7.0851 
 105   2.0000      -0.248528        -6.7628 
 106   2.0000      -0.233116        -6.3434 
 107   2.0000      -0.227171        -6.1816 
 108   2.0000      -0.212592        -5.7849 
 109   2.0000      -0.180697        -4.9170 
 110   0.0000      -0.055971        -1.5231 
 111   0.0000      -0.012978        -0.3531 
 112   0.0000      -0.005986        -0.1629 
 113   0.0000       0.030153         0.8205 
 114   0.0000       0.040967         1.1148 
 115   0.0000       0.042592         1.1590 
 116   0.0000       0.047327         1.2878 
 117   0.0000       0.048708         1.3254 
 118   0.0000       0.052201         1.4205 
 119   0.0000       0.052819         1.4373 
 120   0.0000       0.059596         1.6217 
 121   0.0000       0.067702         1.8423 
 122   0.0000       0.070431         1.9165 
 123   0.0000       0.073858         2.0098 
 124   0.0000       0.075523         2.0551 
 125   0.0000       0.078557         2.1377 
 126   0.0000       0.084303         2.2940 
 127   0.0000       0.088040         2.3957 
 128   0.0000       0.091426         2.4878 
 129   0.0000       0.093131         2.5342 
 130   0.0000       0.097586         2.6555 
 131   0.0000       0.101538         2.7630 
 132   0.0000       0.102547         2.7904 
 133   0.0000       0.104845         2.8530 
 134   0.0000       0.109209         2.9717 
 135   0.0000       0.110271         3.0006 
 136   0.0000       0.118208         3.2166 
 137   0.0000       0.118565         3.2263 
 138   0.0000       0.123042         3.3481 
 139   0.0000       0.125811         3.4235 
 140   0.0000       0.127596         3.4721 
 141   0.0000       0.128856         3.5063 
 142   0.0000       0.131711         3.5840 
 143   0.0000       0.136194         3.7060 
 144   0.0000       0.137307         3.7363 
 145   0.0000       0.142948         3.8898 
 146   0.0000       0.145765         3.9665 
 147   0.0000       0.147382         4.0105 
 148   0.0000       0.149101         4.0573 
 149   0.0000       0.151103         4.1117 
 150   0.0000       0.155338         4.2270 
 151   0.0000       0.157315         4.2808 
 152   0.0000       0.161931         4.4064 
 153   0.0000       0.164939         4.4882 
 154   0.0000       0.169907         4.6234 
 155   0.0000       0.172164         4.6848 
 156   0.0000       0.176342         4.7985 
 157   0.0000       0.177223         4.8225 
 158   0.0000       0.180079         4.9002 
 159   0.0000       0.183519         4.9938 
 160   0.0000       0.187856         5.1118 
 161   0.0000       0.193405         5.2628 
 162   0.0000       0.193754         5.2723 
 163   0.0000       0.198169         5.3925 
 164   0.0000       0.200430         5.4540 
 165   0.0000       0.201935         5.4949 
 166   0.0000       0.205368         5.5883 
 167   0.0000       0.212376         5.7790 
 168   0.0000       0.216033         5.8785 
 169   0.0000       0.218806         5.9540 
 170   0.0000       0.222687         6.0596 
 171   0.0000       0.225424         6.1341 
 172   0.0000       0.229663         6.2494 
 173   0.0000       0.230113         6.2617 
 174   0.0000       0.242395         6.5959 
 175   0.0000       0.244332         6.6486 
 176   0.0000       0.249277         6.7832 
 177   0.0000       0.257911         7.0181 
 178   0.0000       0.264154         7.1880 
 179   0.0000       0.270275         7.3546 
 180   0.0000       0.270677         7.3655 
 181   0.0000       0.284948         7.7538 
 182   0.0000       0.292922         7.9708 
 183   0.0000       0.295497         8.0409 
 184   0.0000       0.304794         8.2939 
 185   0.0000       0.332712         9.0536 
 186   0.0000       0.337049         9.1716 
 187   0.0000       0.340627         9.2689 
 188   0.0000       0.345751         9.4084 
 189   0.0000       0.348877         9.4934 
 190   0.0000       0.352931         9.6037 
 191   0.0000       0.361277         9.8308 
 192   0.0000       0.364616         9.9217 
 193   0.0000       0.371289        10.1033 
 194   0.0000       0.372261        10.1297 
 195   0.0000       0.379093        10.3156 
 196   0.0000       0.382978        10.4214 
 197   0.0000       0.389672        10.6035 
 198   0.0000       0.391876        10.6635 
 199   0.0000       0.395113        10.7516 
 200   0.0000       0.399563        10.8727 
 201   0.0000       0.407305        11.0833 
 202   0.0000       0.409332        11.1385 
 203   0.0000       0.414103        11.2683 
 204   0.0000       0.423493        11.5238 
 205   0.0000       0.432558        11.7705 
 206   0.0000       0.435107        11.8399 
 207   0.0000       0.445553        12.1241 
 208   0.0000       0.453534        12.3413 
 209   0.0000       0.455739        12.4013 
 210   0.0000       0.462177        12.5765 
 211   0.0000       0.469581        12.7779 
 212   0.0000       0.473732        12.8909 
 213   0.0000       0.477806        13.0018 
 214   0.0000       0.479198        13.0396 
 215   0.0000       0.483843        13.1660 
 216   0.0000       0.489236        13.3128 
 217   0.0000       0.492122        13.3913 
 218   0.0000       0.493863        13.4387 
 219   0.0000       0.506036        13.7699 
 220   0.0000       0.507748        13.8165 
 221   0.0000       0.511969        13.9314 
 222   0.0000       0.521315        14.1857 
 223   0.0000       0.527935        14.3658 
 224   0.0000       0.533048        14.5050 
 225   0.0000       0.534029        14.5317 
 226   0.0000       0.538860        14.6631 
 227   0.0000       0.540637        14.7115 
 228   0.0000       0.544443        14.8150 
 229   0.0000       0.549131        14.9426 
 230   0.0000       0.555617        15.1191 
 231   0.0000       0.555968        15.1287 
 232   0.0000       0.560283        15.2461 
 233   0.0000       0.561999        15.2928 
 234   0.0000       0.566051        15.4030 
 235   0.0000       0.570806        15.5324 
 236   0.0000       0.573627        15.6092 
 237   0.0000       0.576065        15.6755 
 238   0.0000       0.577148        15.7050 
 239   0.0000       0.579930        15.7807 
 240   0.0000       0.581730        15.8297 
 241   0.0000       0.583118        15.8674 
 242   0.0000       0.587695        15.9920 
 243   0.0000       0.589217        16.0334 
 244   0.0000       0.589366        16.0375 
 245   0.0000       0.593958        16.1624 
 246   0.0000       0.596209        16.2237 
 247   0.0000       0.598244        16.2790 
 248   0.0000       0.601709        16.3733 
 249   0.0000       0.606233        16.4964 
 250   0.0000       0.608178        16.5494 
 251   0.0000       0.610554        16.6140 
 252   0.0000       0.611904        16.6508 
 253   0.0000       0.612623        16.6703 
 254   0.0000       0.614439        16.7197 
 255   0.0000       0.622564        16.9408 
 256   0.0000       0.624824        17.0023 
 257   0.0000       0.626089        17.0368 
 258   0.0000       0.629906        17.1406 
 259   0.0000       0.631188        17.1755 
 260   0.0000       0.632108        17.2005 
 261   0.0000       0.634694        17.2709 
 262   0.0000       0.639957        17.4141 
 263   0.0000       0.643343        17.5063 
 264   0.0000       0.644708        17.5434 
 265   0.0000       0.648345        17.6424 
 266   0.0000       0.651694        17.7335 
 267   0.0000       0.652756        17.7624 
 268   0.0000       0.659812        17.9544 
 269   0.0000       0.661881        18.0107 
 270   0.0000       0.662412        18.0251 
 271   0.0000       0.668065        18.1790 
 272   0.0000       0.669513        18.2184 
 273   0.0000       0.672637        18.3034 
 274   0.0000       0.674506        18.3542 
 275   0.0000       0.678671        18.4676 
 276   0.0000       0.679706        18.4957 
 277   0.0000       0.681935        18.5564 
 278   0.0000       0.684220        18.6186 
 279   0.0000       0.689748        18.7690 
 280   0.0000       0.694457        18.8971 
 281   0.0000       0.695386        18.9224 
 282   0.0000       0.700550        19.0629 
 283   0.0000       0.703928        19.1549 
 284   0.0000       0.709223        19.2989 
 285   0.0000       0.714919        19.4539 
 286   0.0000       0.721813        19.6415 
 287   0.0000       0.724521        19.7152 
 288   0.0000       0.733084        19.9482 
 289   0.0000       0.734846        19.9962 
 290   0.0000       0.743555        20.2332 
 291   0.0000       0.745802        20.2943 
 292   0.0000       0.750038        20.4096 
 293   0.0000       0.758386        20.6367 
 294   0.0000       0.766061        20.8456 
 295   0.0000       0.769703        20.9447 
 296   0.0000       0.777631        21.1604 
 297   0.0000       0.781017        21.2525 
 298   0.0000       0.791336        21.5333 
 299   0.0000       0.792632        21.5686 
 300   0.0000       0.795336        21.6422 
 301   0.0000       0.809014        22.0144 
 302   0.0000       0.825119        22.4526 
 303   0.0000       0.835358        22.7313 
 304   0.0000       0.836092        22.7512 
 305   0.0000       0.850631        23.1468 
 306   0.0000       0.862597        23.4725 
 307   0.0000       0.887413        24.1477 
 308   0.0000       0.888524        24.1780 
 309   0.0000       0.907253        24.6876 
 310   0.0000       0.915373        24.9086 
 311   0.0000       0.938024        25.5249 
 312   0.0000       0.940579        25.5945 
 313   0.0000       0.953859        25.9558 
 314   0.0000       0.971540        26.4370 
 315   0.0000       0.986922        26.8555 
 316   0.0000       0.998242        27.1635 
 317   0.0000       1.025421        27.9031 
 318   0.0000       1.031204        28.0605 
 319   0.0000       1.038171        28.2501 
 320   0.0000       1.039946        28.2984 
 321   0.0000       1.060756        28.8646 
 322   0.0000       1.066499        29.0209 
 323   0.0000       1.078641        29.3513 
 324   0.0000       1.122932        30.5565 
 325   0.0000       1.128737        30.7145 
 326   0.0000       1.134718        30.8772 
 327   0.0000       1.146959        31.2104 
 328   0.0000       1.168216        31.7888 
 329   0.0000       1.179193        32.0875 
 330   0.0000       1.189820        32.3766 
 331   0.0000       1.215181        33.0668 
 332   0.0000       1.233537        33.5662 
 333   0.0000       1.251519        34.0556 
 334   0.0000       1.261274        34.3210 
 335   0.0000       1.263700        34.3870 
 336   0.0000       1.277630        34.7661 
 337   0.0000       1.284412        34.9506 
 338   0.0000       1.287509        35.0349 
 339   0.0000       1.296628        35.2830 
 340   0.0000       1.321033        35.9471 
 341   0.0000       1.334540        36.3147 
 342   0.0000       1.342420        36.5291 
 343   0.0000       1.355726        36.8912 
 344   0.0000       1.365305        37.1518 
 345   0.0000       1.375906        37.4403 
 346   0.0000       1.384289        37.6684 
 347   0.0000       1.402316        38.1590 
 348   0.0000       1.407722        38.3061 
 349   0.0000       1.412582        38.4383 
 350   0.0000       1.424294        38.7570 
 351   0.0000       1.431986        38.9663 
 352   0.0000       1.451635        39.5010 
 353   0.0000       1.452585        39.5269 
 354   0.0000       1.464669        39.8557 
 355   0.0000       1.470307        40.0091 
 356   0.0000       1.482108        40.3302 
 357   0.0000       1.501873        40.8681 
 358   0.0000       1.505216        40.9590 
 359   0.0000       1.512636        41.1609 
 360   0.0000       1.518833        41.3296 
 361   0.0000       1.526712        41.5439 
 362   0.0000       1.529317        41.6148 
 363   0.0000       1.550204        42.1832 
 364   0.0000       1.562783        42.5255 
 365   0.0000       1.565965        42.6121 
 366   0.0000       1.573412        42.8147 
 367   0.0000       1.578151        42.9437 
 368   0.0000       1.599128        43.5145 
 369   0.0000       1.605454        43.6866 
 370   0.0000       1.616501        43.9872 
 371   0.0000       1.619856        44.0785 
 372   0.0000       1.626060        44.2473 
 373   0.0000       1.635179        44.4955 
 374   0.0000       1.641633        44.6711 
 375   0.0000       1.652005        44.9534 
 376   0.0000       1.657273        45.0967 
 377   0.0000       1.674313        45.5604 
 378   0.0000       1.677191        45.6387 
 379   0.0000       1.683575        45.8124 
 380   0.0000       1.688543        45.9476 
 381   0.0000       1.695761        46.1440 
 382   0.0000       1.702312        46.3223 
 383   0.0000       1.703040        46.3421 
 384   0.0000       1.719763        46.7971 
 385   0.0000       1.723857        46.9085 
 386   0.0000       1.729047        47.0498 
 387   0.0000       1.735179        47.2166 
 388   0.0000       1.738364        47.3033 
 389   0.0000       1.740230        47.3541 
 390   0.0000       1.745133        47.4875 
 391   0.0000       1.749188        47.5978 
 392   0.0000       1.755538        47.7706 
 393   0.0000       1.757027        47.8111 
 394   0.0000       1.768616        48.1265 
 395   0.0000       1.771190        48.1965 
 396   0.0000       1.778889        48.4060 
 397   0.0000       1.783792        48.5394 
 398   0.0000       1.786229        48.6058 
 399   0.0000       1.795876        48.8683 
 400   0.0000       1.797376        48.9091 
 401   0.0000       1.801853        49.0309 
 402   0.0000       1.803690        49.0809 
 403   0.0000       1.809856        49.2487 
 404   0.0000       1.816805        49.4378 
 405   0.0000       1.820067        49.5266 
 406   0.0000       1.828484        49.7556 
 407   0.0000       1.836504        49.9738 
 408   0.0000       1.845987        50.2319 
 409   0.0000       1.856062        50.5060 
 410   0.0000       1.863123        50.6981 
 411   0.0000       1.865162        50.7536 
 412   0.0000       1.874694        51.0130 
 413   0.0000       1.883286        51.2468 
 414   0.0000       1.894649        51.5560 
 415   0.0000       1.902196        51.7614 
 416   0.0000       1.903355        51.7929 
 417   0.0000       1.908183        51.9243 
 418   0.0000       1.911965        52.0272 
 419   0.0000       1.916464        52.1496 
 420   0.0000       1.923598        52.3438 
 421   0.0000       1.936025        52.6819 
 422   0.0000       1.938941        52.7613 
 423   0.0000       1.947369        52.9906 
 424   0.0000       1.950664        53.0803 
 425   0.0000       1.951370        53.0995 
 426   0.0000       1.964869        53.4668 
 427   0.0000       1.970886        53.6305 
 428   0.0000       1.972312        53.6693 
 429   0.0000       1.980977        53.9051 
 430   0.0000       1.982042        53.9341 
 431   0.0000       1.987933        54.0944 
 432   0.0000       1.991616        54.1946 
 433   0.0000       1.995168        54.2913 
 434   0.0000       2.000662        54.4408 
 435   0.0000       2.006563        54.6014 
 436   0.0000       2.009529        54.6821 
 437   0.0000       2.013566        54.7919 
 438   0.0000       2.015159        54.8353 
 439   0.0000       2.020918        54.9920 
 440   0.0000       2.023798        55.0703 
 441   0.0000       2.029820        55.2342 
 442   0.0000       2.037620        55.4465 
 443   0.0000       2.044834        55.6428 
[...]

 --------------
 Nucleus  47H :
 --------------

Diamagnetic contribution to the shielding tensor (ppm) : 
            31.290          3.422        -0.762
             1.435         48.951        -4.916
             0.393         -3.715        41.819

Paramagnetic contribution to the shielding tensor (ppm): 
            -2.693         -3.181         1.407
            -1.173        -16.001         1.330
            -0.318          0.129        -9.504

Total shielding tensor (ppm): 
            28.597          0.241         0.646
             0.262         32.950        -3.586
             0.075         -3.586        32.315


 Diagonalized sT*s matrix:
 
 sDSO            32.543           39.540           49.977  iso=      40.687
 sPSO            -4.216          -10.238          -13.744  iso=      -9.399
        ---------------  ---------------  ---------------
 Total           28.328           29.302           36.233  iso=      31.288

 --------------
 Nucleus  48H :
 --------------

Diamagnetic contribution to the shielding tensor (ppm) : 
            35.788          0.318        -1.175
            -2.576         40.042        -7.005
            -0.767         -2.434        43.849

Paramagnetic contribution to the shielding tensor (ppm): 
            -4.054          0.591         1.755
             2.790        -12.923         3.677
             0.736         -0.032       -13.345

Total shielding tensor (ppm): 
            31.734          0.909         0.580
             0.214         27.119        -3.327
            -0.031         -2.466        30.503


 Diagonalized sT*s matrix:
 
 sDSO            37.217           35.537           46.924  iso=      39.893
 sPSO           -11.821           -3.747          -14.754  iso=     -10.107
        ---------------  ---------------  ---------------
 Total           25.396           31.790           32.170  iso=      29.786

 --------------
 Nucleus  52H :
 --------------

Diamagnetic contribution to the shielding tensor (ppm) : 
            41.743          3.946        -7.248
            10.659         26.346        -5.640
           -10.436         -5.973        51.401

Paramagnetic contribution to the shielding tensor (ppm): 
           -13.355         -1.223        11.287
            -7.949         -2.181         6.837
            13.253          6.680       -25.104

Total shielding tensor (ppm): 
            28.388          2.724         4.039
             2.711         24.166         1.197
             2.817          0.707        26.298


 Diagonalized sT*s matrix:
 
 sDSO            27.436           54.926           37.129  iso=      39.830
 sPSO            -4.818          -30.606           -5.216  iso=     -13.547
        ---------------  ---------------  ---------------
 Total           22.619           24.320           31.913  iso=      26.284

 --------------
 Nucleus  53H :
 --------------

Diamagnetic contribution to the shielding tensor (ppm) : 
            45.910          6.692        -9.355
             3.478         36.753        -6.937
            -3.236         -8.120        53.549

Paramagnetic contribution to the shielding tensor (ppm): 
           -15.411         -6.073        16.072
            -2.906        -15.358         8.950
             8.961          9.086       -27.340

Total shielding tensor (ppm): 
            30.499          0.619         6.717
             0.572         21.395         2.013
             5.725          0.966        26.209


 Diagonalized sT*s matrix:
 
 sDSO            52.567           41.179           42.466  iso=      45.404
 sPSO           -31.948          -18.762           -7.399  iso=     -19.370
        ---------------  ---------------  ---------------
 Total           20.619           22.417           35.066  iso=      26.034

 --------------
 Nucleus  57H :
 --------------

Diamagnetic contribution to the shielding tensor (ppm) : 
            34.155         -0.450        -2.582
             9.898         34.345        11.803
            -2.837          4.618        39.916

Paramagnetic contribution to the shielding tensor (ppm): 
            -6.388         -0.754         1.424
           -10.771         -2.141        -8.198
             2.260         -2.707       -11.189

Total shielding tensor (ppm): 
            27.766         -1.204        -1.157
            -0.872         32.204         3.605
            -0.577          1.911        28.727


 Diagonalized sT*s matrix:
 
 sDSO            29.584           37.391           41.440  iso=      36.138
 sPSO            -2.526           -9.759           -7.433  iso=      -6.573
        ---------------  ---------------  ---------------
 Total           27.058           27.633           34.007  iso=      29.566

 --------------
 Nucleus  58H :
 --------------

Diamagnetic contribution to the shielding tensor (ppm) : 
            38.534          3.297         7.837
             6.923         18.071         7.009
            11.819          2.237        23.888

Paramagnetic contribution to the shielding tensor (ppm): 
            -5.496          0.680        -4.864
            -3.788         10.111        -6.723
            -8.953         -1.618         5.937

Total shielding tensor (ppm): 
            33.037          3.976         2.973
             3.135         28.182         0.286
             2.866          0.619        29.825


 Diagonalized sT*s matrix:
 
 sDSO            19.156           17.043           44.293  iso=      26.831
 sPSO             6.835           11.846           -8.130  iso=       3.517
        ---------------  ---------------  ---------------
 Total           25.991           28.889           36.163  iso=      30.348

 --------------
 Nucleus  61H :
 --------------

Diamagnetic contribution to the shielding tensor (ppm) : 
            32.174         -1.035         0.681
            20.891         31.375        -4.433
           -11.521         -7.970        35.440

Paramagnetic contribution to the shielding tensor (ppm): 
            -3.166          1.412         0.086
           -20.031          1.241        -1.065
            12.914          2.614        -5.012

Total shielding tensor (ppm): 
            29.008          0.377         0.767
             0.860         32.616        -5.497
             1.392         -5.356        30.428


 Diagonalized sT*s matrix:
 
 sDSO            26.977           33.486           38.526  iso=      32.996
 sPSO            -1.426           -4.048           -1.463  iso=      -2.312
        ---------------  ---------------  ---------------
 Total           25.550           29.439           37.063  iso=      30.684

 --------------
 Nucleus  62H :
 --------------

Diamagnetic contribution to the shielding tensor (ppm) : 
            34.991         -3.399        -5.634
             5.082         22.052        10.084
           -10.003          7.391        35.326

Paramagnetic contribution to the shielding tensor (ppm): 
            -4.492          2.597         2.559
            -5.879          7.289        -8.550
             7.406         -5.737        -3.575

Total shielding tensor (ppm): 
            30.499         -0.802        -3.075
            -0.796         29.340         1.534
            -2.597          1.654        31.751


 Diagonalized sT*s matrix:
 
 sDSO            21.077           26.755           44.537  iso=      30.790
 sPSO             6.966            2.184           -9.928  iso=      -0.259
        ---------------  ---------------  ---------------
 Total           28.043           28.939           34.609  iso=      30.530

 --------------
 Nucleus  63H :
 --------------

Diamagnetic contribution to the shielding tensor (ppm) : 
            40.456          5.265         3.270
            18.588         17.832         8.318
            -1.530          7.492        18.916

Paramagnetic contribution to the shielding tensor (ppm): 
            -5.935          0.172        -1.915
           -13.241         12.163        -8.666
             2.264         -7.776         9.372

Total shielding tensor (ppm): 
            34.521          5.437         1.355
             5.347         29.995        -0.348
             0.734         -0.284        28.288


 Diagonalized sT*s matrix:
 
 sDSO            18.695           13.331           45.178  iso=      25.735
 sPSO             7.388           15.234           -7.023  iso=       5.200
        ---------------  ---------------  ---------------
 Total           26.083           28.566           38.154  iso=      30.935

 --------------
 Nucleus  64H :
 --------------

Diamagnetic contribution to the shielding tensor (ppm) : 
            28.853         -7.793         9.285
           -14.773         23.667       -11.100
             9.366         -8.261        17.559

Paramagnetic contribution to the shielding tensor (ppm): 
             2.335          2.796        -6.493
             9.712          8.711         7.947
            -6.789          5.950        12.291

Total shielding tensor (ppm): 
            31.188         -4.997         2.792
            -5.061         32.379        -3.154
             2.577         -2.311        29.850


 Diagonalized sT*s matrix:
 
 sDSO            15.504           10.610           43.965  iso=      23.360
 sPSO            11.194           17.575           -5.432  iso=       7.779
        ---------------  ---------------  ---------------
 Total           26.698           28.185           38.533  iso=      31.139

 --------------
 Nucleus  65H :
 --------------

Diamagnetic contribution to the shielding tensor (ppm) : 
            33.902         -7.095        -4.577
            -8.725         17.932        -0.230
            -1.550          6.738        28.041

Paramagnetic contribution to the shielding tensor (ppm): 
            -2.051          4.853         0.085
             5.436         11.212         0.791
            -2.662         -7.231         3.396

Total shielding tensor (ppm): 
            31.851         -2.242        -4.492
            -3.289         29.144         0.562
            -4.212         -0.493        31.437


 Diagonalized sT*s matrix:
 
 sDSO            21.386           21.035           37.453  iso=      26.625
 sPSO             4.607            8.823           -0.873  iso=       4.186
        ---------------  ---------------  ---------------
 Total           25.993           29.858           36.581  iso=      30.811

 --------------
 Nucleus  66H :
 --------------

Diamagnetic contribution to the shielding tensor (ppm) : 
            35.233         -0.736         5.304
           -10.380         32.772        -4.093
             4.004          5.753        25.744

Paramagnetic contribution to the shielding tensor (ppm): 
            -2.774          1.861        -1.473
            12.115          0.247         5.598
            -0.202         -4.020         2.652

Total shielding tensor (ppm): 
            32.459          1.125         3.831
             1.735         33.019         1.504
             3.801          1.733        28.395


 Diagonalized sT*s matrix:
 
 sDSO            23.484           38.677           31.587  iso=      31.249
 sPSO             2.555           -6.974            4.544  iso=       0.041
        ---------------  ---------------  ---------------
 Total           26.038           31.703           36.131  iso=      31.291

 --------------
 Nucleus  67H :
 --------------

Diamagnetic contribution to the shielding tensor (ppm) : 
            35.431          9.613        -5.413
             2.933         26.076        -4.588
             6.304         -8.868        42.145

Paramagnetic contribution to the shielding tensor (ppm): 
            -1.712         -6.199         6.209
             0.646          1.862         2.949
            -6.401          7.443       -11.727

Total shielding tensor (ppm): 
            33.719          3.415         0.796
             3.579         27.938        -1.638
            -0.097         -1.424        30.418


 Diagonalized sT*s matrix:
 
 sDSO            21.078           43.652           38.923  iso=      34.551
 sPSO             4.704          -12.748           -3.533  iso=      -3.859
        ---------------  ---------------  ---------------
 Total           25.783           30.903           35.389  iso=      30.692

 --------------
 Nucleus  68H :
 --------------

Diamagnetic contribution to the shielding tensor (ppm) : 
            25.472         -1.386        -5.837
            -2.770         28.424         6.926
             5.752          0.719        40.751

Paramagnetic contribution to the shielding tensor (ppm): 
             3.013         -1.195         3.875
             1.235          1.884        -3.709
            -8.018          3.734        -7.505

Total shielding tensor (ppm): 
            28.484         -2.581        -1.962
            -1.534         30.308         3.217
            -2.265          4.453        33.246


 Diagonalized sT*s matrix:
 
 sDSO            24.317           31.020           39.310  iso=      31.549
 sPSO             2.777           -2.967           -2.419  iso=      -0.869
        ---------------  ---------------  ---------------
 Total           27.095           28.053           36.891  iso=      30.680

 --------------
 Nucleus  69H :
 --------------

Diamagnetic contribution to the shielding tensor (ppm) : 
            21.630         -0.601         6.644
            -2.646         22.368        -8.449
            18.705        -11.869        34.303

Paramagnetic contribution to the shielding tensor (ppm): 
             6.778         -0.602        -4.627
             0.605          5.585         4.613
           -16.229          8.269         1.332

Total shielding tensor (ppm): 
            28.408         -1.202         2.017
            -2.041         27.953        -3.836
             2.477         -3.599        35.635


 Diagonalized sT*s matrix:
 
 sDSO            19.783           13.561           44.957  iso=      26.100
 sPSO             6.389           14.358           -7.052  iso=       4.565
        ---------------  ---------------  ---------------
 Total           26.172           27.919           37.905  iso=      30.665

 --------------
 Nucleus  70H :
 --------------

Diamagnetic contribution to the shielding tensor (ppm) : 
            36.177         -6.885        -7.869
           -13.081         28.788        -0.987
           -10.674          5.581        31.808

Paramagnetic contribution to the shielding tensor (ppm): 
            -2.065          5.585         3.694
            11.289         -0.310         4.420
             6.811         -3.233        -2.183

Total shielding tensor (ppm): 
            34.113         -1.300        -4.176
            -1.792         28.478         3.434
            -3.863          2.348        29.626


 Diagonalized sT*s matrix:
 
 sDSO            28.525           20.679           47.570  iso=      32.258
 sPSO            -2.744            8.378          -10.191  iso=      -1.519
        ---------------  ---------------  ---------------
 Total           25.780           29.056           37.379  iso=      30.739

 --------------
 Nucleus  71H :
 --------------

Diamagnetic contribution to the shielding tensor (ppm) : 
            32.458          1.988         4.271
            -6.248         40.350         7.597
            -0.233          8.679        36.262

Paramagnetic contribution to the shielding tensor (ppm): 
            -0.262         -1.572        -3.930
             7.925        -10.558        -1.986
             1.526         -3.861        -7.410

Total shielding tensor (ppm): 
            32.196          0.416         0.341
             1.676         29.792         5.611
             1.293          4.818        28.852


 Diagonalized sT*s matrix:
 
 sDSO            30.105           35.018           43.946  iso=      36.356
 sPSO            -6.020           -3.413           -8.796  iso=      -6.076
        ---------------  ---------------  ---------------
 Total           24.085           31.605           35.150  iso=      30.280

 --------------
 Nucleus  72H :
 --------------

Diamagnetic contribution to the shielding tensor (ppm) : 
            29.028         -6.286         1.223
           -12.710         41.757        -6.515
            -1.046         -4.997        33.766

Paramagnetic contribution to the shielding tensor (ppm): 
             2.144          3.955         0.051
            11.018         -8.598         4.122
             1.590          3.008        -4.389

Total shielding tensor (ppm): 
            31.172         -2.331         1.274
            -1.692         33.159        -2.393
             0.544         -1.989        29.378


 Diagonalized sT*s matrix:
 
 sDSO            30.758           25.319           48.474  iso=      34.850
 sPSO            -2.384            4.682          -13.142  iso=      -3.614
        ---------------  ---------------  ---------------
 Total           28.375           30.001           35.333  iso=      31.236



--------------------------------
CHEMICAL SHIELDING SUMMARY (ppm)
--------------------------------


  Nucleus  Element    Isotropic     Anisotropy
  -------  -------  ------------   ------------
      3       H           29.637          5.428 
      4       H           29.128          5.279 
      8       H           29.573          6.399 
      9       H           29.430          7.755 
     10       H           29.630          8.805 
     11       H           30.528          6.242 
     13       H           28.189          2.746 
     16       H           26.857          5.184 
     17       H           26.524          5.003 
     19       H           25.449         10.744 
     21       H           25.694         15.119 
     24       H           28.879          9.975 
     25       H           29.972          9.362 
     27       H           30.226          7.283 
     28       H           30.146         11.724 
     30       H           29.725          7.967 
     31       H           30.390          6.790 
     33       H           29.771          3.944 
     35       H           31.117         14.857 
     37       H           30.382         10.852 
     38       H           30.300          9.636 
     40       H           29.715          9.647 
     41       H           30.747          7.622 
     42       H           30.155          7.638 
     45       H           31.051          8.366 
     46       H           31.289          9.442 
     47       H           31.288          7.418 
     48       H           29.786          3.577 
     52       H           26.284          8.444 
     53       H           26.034         13.548 
     57       H           29.566          6.662 
     58       H           30.348          8.723 
     61       H           30.684          9.569 
     62       H           30.530          6.118 
     63       H           30.935         10.830 
     64       H           31.139         11.092 
     65       H           30.811          8.655 
     66       H           31.291          7.260 
     67       H           30.692          7.046 
     68       H           30.680          9.317 
     69       H           30.665         10.859 
     70       H           30.739          9.961 
     71       H           30.280          7.304 
     72       H           31.236          6.145 



Maximum memory used throughout the entire EPRNMR-calculation: 141.1 MB

Timings for individual modules:

Sum of individual times         ...      140.987 sec (=   2.350 min)
GTO integral calculation        ...        0.813 sec (=   0.014 min)   0.6 %
SCF iterations                  ...       93.657 sec (=   1.561 min)  66.4 %
EPR/NMR calculation             ...       46.517 sec (=   0.775 min)  33.0 %
                             ****ORCA TERMINATED NORMALLY****
TOTAL RUN TIME: 0 days 0 hours 2 minutes 21 seconds 547 msec
