 Entering Gaussian System
 *********************************************
 Gaussian 98:
 frequency output generated by the xtb code
 *********************************************
                         Standard orientation:
 --------------------------------------------------------------------
  Center     Atomic     Atomic              Coordinates (Angstroms)
  Number     Number      Type              X           Y           Z
 --------------------------------------------------------------------
    1          6             0        1.847159   -0.000007   -0.098392
    2          6             0        1.067576   -1.249935    0.293596
    3          6             0       -0.307528   -1.264603   -0.383353
    4          1             0        0.933116   -1.272347    1.377467
    5          1             0        1.617827   -2.147475    0.005823
    6          6             0       -1.064381    0.000027   -0.077515
    7          1             0       -0.893670   -2.126446   -0.059582
    8          1             0       -0.174407   -1.320841   -1.466308
    9          6             0       -0.307496    1.264637   -0.383354
   10          6             0        1.067600    1.249931    0.293612
   11          1             0       -0.893618    2.126496   -0.059594
   12          1             0       -0.174358    1.320865   -1.466307
   13          1             0        0.933127    1.272324    1.377482
   14          1             0        1.617873    2.147465    0.005862
   15          1             0        2.024104   -0.000002   -1.176096
   16          1             0        2.817330   -0.000020    0.402038
   17          8             0       -2.190097    0.000041    0.379121
 --------------------------------------------------------------------
     1 basis functions        1 primitive gaussians
     1 alpha electrons        1 beta electrons
 
 Harmonic frequencies (cm**-1), IR intensities (km*mol⁻¹),
 Raman scattering activities (A**4/amu), Raman depolarization ratios,
 reduced masses (AMU), force constants (mDyne/A) and normal coordinates:
                      1                      2                      3
                        a                      a                      a 
 Frequencies --    80.1686               172.1840               298.5270
 Red. masses --    11.3846                 7.2201                 6.9151
 Frc consts  --     0.0000                 0.0000                 0.0000
 IR Inten    --     3.8793                 2.8764                 0.3436
 Raman Activ --     0.0000                 0.0000                 0.0000
 Depolar     --     0.0000                 0.0000                 0.0000
 Atom AN      X      Y      Z        X      Y      Z        X      Y      Z
   1   6    -0.05  -0.00   0.28     0.00   0.14   0.00    -0.24   0.00  -0.36
   2   6    -0.16  -0.02   0.00     0.22  -0.10  -0.28    -0.10   0.13   0.26
   3   6     0.00   0.04  -0.36    -0.06  -0.09   0.28     0.06  -0.08  -0.03
   4   1    -0.13  -0.03  -0.01     0.19  -0.16  -0.07    -0.08   0.22   0.07
   5   1    -0.03  -0.00   0.03     0.07   0.02  -0.25    -0.02  -0.01   0.25
   6   6     0.04  -0.00  -0.12    -0.00   0.03  -0.00     0.12   0.00  -0.20
   7   1    -0.01  -0.01  -0.18     0.00   0.01   0.22    -0.02   0.00   0.01
   8   1     0.08   0.08  -0.10    -0.15  -0.13   0.07     0.09  -0.09   0.00
   9   6     0.00  -0.04  -0.36     0.06  -0.09  -0.28     0.06   0.08  -0.03
  10   6    -0.16   0.02   0.00    -0.22  -0.10   0.28    -0.10  -0.13   0.26
  11   1    -0.01   0.01  -0.18    -0.00   0.01  -0.22    -0.02  -0.00   0.01
  12   1     0.08  -0.08  -0.10     0.15  -0.13  -0.07     0.09   0.09   0.00
  13   1    -0.13   0.03  -0.01    -0.19  -0.16   0.07    -0.08  -0.22   0.07
  14   1    -0.03   0.00   0.03    -0.07   0.02   0.25    -0.02   0.01   0.25
  15   1     0.09  -0.00   0.10     0.00   0.13   0.00    -0.31   0.00  -0.14
  16   1    -0.06   0.00   0.18    -0.00   0.04   0.00     0.04   0.00  -0.32
  17   8     0.33  -0.00   0.53     0.00   0.25   0.00     0.25   0.00   0.03
                      4                      5                      6
                        a                      a                      a 
 Frequencies --   394.8716               399.4754               486.4575
 Red. masses --     8.9188                 9.6283                 6.2404
 Frc consts  --     0.0000                 0.0000                 0.0000
 IR Inten    --     0.8734                 4.2573                 0.5449
 Raman Activ --     0.0000                 0.0000                 0.0000
 Depolar     --     0.0000                 0.0000                 0.0000
 Atom AN      X      Y      Z        X      Y      Z        X      Y      Z
   1   6     0.31   0.00  -0.15     0.00  -0.22   0.00    -0.38   0.00  -0.01
   2   6     0.05   0.25   0.06     0.23  -0.27   0.15     0.02  -0.24   0.08
   3   6     0.08   0.27  -0.09     0.24   0.32   0.14     0.12   0.08  -0.04
   4   1    -0.03   0.19   0.02     0.12  -0.14   0.05     0.05  -0.19   0.02
   5   1    -0.05   0.00   0.12     0.01  -0.08  -0.05     0.05  -0.00  -0.11
   6   6    -0.26   0.00   0.18    -0.00   0.25   0.00     0.13  -0.00   0.35
   7   1     0.10  -0.02  -0.17     0.01   0.09  -0.06     0.00  -0.04  -0.25
   8   1     0.08   0.24  -0.03     0.13   0.16   0.04     0.12   0.26  -0.01
   9   6     0.08  -0.27  -0.09    -0.24   0.32  -0.14     0.12  -0.08  -0.04
  10   6     0.05  -0.25   0.06    -0.23  -0.27  -0.15     0.02   0.24   0.08
  11   1     0.10   0.02  -0.17    -0.01   0.09   0.06     0.00   0.04  -0.24
  12   1     0.08  -0.24  -0.03    -0.13   0.16  -0.04     0.12  -0.26  -0.01
  13   1    -0.03  -0.19   0.02    -0.12  -0.14  -0.05     0.05   0.19   0.02
  14   1    -0.05  -0.00   0.12    -0.01  -0.08   0.05     0.05   0.00  -0.11
  15   1     0.07   0.00  -0.04     0.00  -0.11   0.00    -0.31  -0.00  -0.04
  16   1     0.09  -0.00  -0.05     0.00   0.05   0.00    -0.01   0.00  -0.20
  17   8    -0.36   0.00   0.07    -0.00  -0.12   0.00    -0.06   0.00  -0.13
                      7                      8                      9
                        a                      a                      a 
 Frequencies --   487.0367               660.7176               798.4463
 Red. masses --    11.3515                 9.3464                 4.9406
 Frc consts  --     0.0000                 0.0000                 0.0000
 IR Inten    --    19.2689                10.8241                 6.7038
 Raman Activ --     0.0000                 0.0000                 0.0000
 Depolar     --     0.0000                 0.0000                 0.0000
 Atom AN      X      Y      Z        X      Y      Z        X      Y      Z
   1   6     0.00   0.02   0.00     0.01  -0.00   0.08    -0.00   0.12   0.00
   2   6     0.17  -0.07   0.07     0.18  -0.07   0.13    -0.18   0.12   0.11
   3   6     0.20  -0.20  -0.13     0.06   0.03  -0.00    -0.20  -0.04   0.22
   4   1     0.03  -0.01   0.02     0.13  -0.17   0.04     0.15  -0.20   0.05
   5   1     0.09  -0.00   0.04     0.03   0.02  -0.14    -0.06   0.12  -0.26
   6   6    -0.00  -0.24  -0.00    -0.44   0.00  -0.55     0.00  -0.19  -0.00
   7   1     0.11  -0.14  -0.18     0.04  -0.00   0.01    -0.04  -0.13  -0.24
   8   1     0.15   0.09  -0.04     0.14  -0.09   0.02     0.15   0.27   0.07
   9   6    -0.20  -0.20   0.13     0.06  -0.03  -0.00     0.20  -0.04  -0.22
  10   6    -0.17  -0.07  -0.07     0.18   0.07   0.13     0.18   0.12  -0.11
  11   1    -0.11  -0.14   0.18     0.04   0.00   0.01     0.04  -0.13   0.24
  12   1    -0.15   0.09   0.04     0.14   0.09   0.02    -0.15   0.27  -0.07
  13   1    -0.03  -0.01  -0.02     0.13   0.17   0.04    -0.15  -0.20  -0.05
  14   1    -0.09  -0.00  -0.04     0.03  -0.02  -0.14     0.06   0.12   0.26
  15   1     0.00  -0.01   0.00    -0.20   0.00  -0.01    -0.00  -0.04  -0.00
  16   1     0.00   0.07   0.00     0.10   0.00  -0.17     0.00  -0.05  -0.00
  17   8     0.00   0.67   0.00    -0.20   0.00   0.26     0.00  -0.07  -0.00
                     10                     11                     12
                        a                      a                      a 
 Frequencies --   801.9258               886.3417               904.6448
 Red. masses --     9.6881                 4.2808                 8.3499
 Frc consts  --     0.0000                 0.0000                 0.0000
 IR Inten    --     8.9865                 9.9844                 1.9732
 Raman Activ --     0.0000                 0.0000                 0.0000
 Depolar     --     0.0000                 0.0000                 0.0000
 Atom AN      X      Y      Z        X      Y      Z        X      Y      Z
   1   6     0.04   0.00  -0.05     0.17  -0.00   0.32     0.51  -0.00  -0.08
   2   6     0.14  -0.21  -0.00     0.04   0.06  -0.02     0.00  -0.31   0.12
   3   6     0.05  -0.45  -0.14     0.02   0.06  -0.22    -0.27   0.03   0.00
   4   1    -0.07   0.09  -0.01    -0.20  -0.08  -0.03    -0.00  -0.02   0.03
   5   1     0.15  -0.06   0.20     0.05   0.03   0.02    -0.14  -0.19   0.07
   6   6    -0.16  -0.00   0.18     0.04  -0.00   0.21     0.07   0.00  -0.06
   7   1     0.05  -0.16  -0.08     0.09   0.05   0.19    -0.22   0.07  -0.10
   8   1    -0.00  -0.07  -0.04    -0.27  -0.12  -0.08    -0.01   0.07   0.00
   9   6     0.05   0.45  -0.14     0.02  -0.06  -0.22    -0.27  -0.03   0.00
  10   6     0.14   0.21  -0.00     0.04  -0.06  -0.02     0.00   0.31   0.12
  11   1     0.05   0.16  -0.08     0.09  -0.05   0.19    -0.22  -0.07  -0.10
  12   1    -0.00   0.07  -0.05    -0.27   0.12  -0.08    -0.01  -0.07   0.00
  13   1    -0.07  -0.09  -0.01    -0.20   0.08  -0.03    -0.00   0.02   0.03
  14   1     0.15   0.06   0.20     0.05  -0.03   0.02    -0.14   0.19   0.07
  15   1     0.08  -0.00  -0.00    -0.40   0.00   0.01    -0.01  -0.00  -0.05
  16   1    -0.01  -0.00   0.04     0.25  -0.00  -0.32     0.21   0.00  -0.16
  17   8    -0.31  -0.00   0.09    -0.07   0.00  -0.03     0.11  -0.00  -0.04
                     13                     14                     15
                        a                      a                      a 
 Frequencies --   921.9675               965.9040               980.1780
 Red. masses --     4.4418                 7.3565                 7.8103
 Frc consts  --     0.0000                 0.0000                 0.0000
 IR Inten    --     0.1109                15.1510                 2.6077
 Raman Activ --     0.0000                 0.0000                 0.0000
 Depolar     --     0.0000                 0.0000                 0.0000
 Atom AN      X      Y      Z        X      Y      Z        X      Y      Z
   1   6     0.00  -0.10  -0.00    -0.00  -0.31  -0.00     0.24  -0.00   0.09
   2   6     0.04  -0.04  -0.26    -0.21   0.20  -0.12    -0.08   0.33   0.07
   3   6    -0.01   0.04   0.27     0.33   0.10   0.06    -0.20  -0.32  -0.01
   4   1    -0.02   0.32  -0.06    -0.03  -0.07  -0.03     0.14  -0.11   0.03
   5   1    -0.07  -0.14   0.21    -0.12   0.05  -0.15     0.00   0.17  -0.21
   6   6    -0.00  -0.12  -0.00    -0.00  -0.17  -0.00     0.09  -0.00   0.09
   7   1     0.07  -0.10  -0.10     0.27  -0.05   0.15    -0.02  -0.17  -0.16
   8   1    -0.06   0.30   0.04     0.04  -0.07   0.02     0.11   0.05   0.01
   9   6     0.01   0.04  -0.27    -0.33   0.10  -0.06    -0.20   0.32  -0.01
  10   6    -0.04  -0.04   0.26     0.21   0.20   0.12    -0.08  -0.33   0.07
  11   1    -0.07  -0.10   0.10    -0.27  -0.05  -0.15    -0.02   0.17  -0.16
  12   1     0.06   0.30  -0.04    -0.04  -0.07  -0.02     0.11  -0.05   0.01
  13   1     0.02   0.32   0.06     0.03  -0.07   0.03     0.14   0.11   0.03
  14   1     0.07  -0.14  -0.21     0.12   0.05   0.15     0.00  -0.17  -0.21
  15   1     0.00   0.26   0.00     0.00  -0.14  -0.00    -0.10   0.00  -0.01
  16   1     0.00  -0.15  -0.00    -0.00  -0.31  -0.00     0.13  -0.00  -0.11
  17   8    -0.00  -0.02   0.00    -0.00   0.08   0.00     0.08   0.00  -0.06
                     16                     17                     18
                        a                      a                      a 
 Frequencies --  1045.5276              1075.1821              1101.1814
 Red. masses --     1.4563                 6.4161                 6.2773
 Frc consts  --     0.0000                 0.0000                 0.0000
 IR Inten    --     1.7203                10.1819                11.2422
 Raman Activ --     0.0000                 0.0000                 0.0000
 Depolar     --     0.0000                 0.0000                 0.0000
 Atom AN      X      Y      Z        X      Y      Z        X      Y      Z
   1   6     0.00   0.00  -0.00    -0.21   0.00   0.07     0.00  -0.00   0.20
   2   6     0.05   0.01   0.05     0.34   0.09   0.07     0.00  -0.01  -0.21
   3   6    -0.04   0.06   0.03    -0.27   0.07  -0.08    -0.01  -0.07   0.30
   4   1    -0.25  -0.15  -0.02     0.08   0.10   0.02    -0.18   0.08  -0.07
   5   1     0.11   0.06   0.02     0.31   0.14   0.09     0.05  -0.02   0.11
   6   6    -0.00  -0.13   0.00     0.02  -0.00  -0.07    -0.09  -0.00  -0.33
   7   1     0.17  -0.09   0.05    -0.24   0.11  -0.07     0.13  -0.17  -0.12
   8   1    -0.42   0.25  -0.06    -0.15   0.10  -0.03    -0.15   0.32   0.03
   9   6     0.04   0.06  -0.03    -0.27  -0.07  -0.08    -0.01   0.07   0.30
  10   6    -0.05   0.01  -0.05     0.34  -0.09   0.07     0.00   0.01  -0.21
  11   1    -0.17  -0.09  -0.05    -0.24  -0.11  -0.07     0.13   0.17  -0.12
  12   1     0.42   0.25   0.06    -0.15  -0.10  -0.03    -0.15  -0.32   0.03
  13   1     0.25  -0.15   0.02     0.08  -0.10   0.02    -0.18  -0.08  -0.07
  14   1    -0.11   0.06  -0.02     0.31  -0.14   0.09     0.05   0.02   0.11
  15   1    -0.00  -0.36  -0.00     0.01  -0.00   0.03    -0.16  -0.00   0.02
  16   1     0.00   0.25   0.00    -0.07   0.00   0.06     0.08   0.00  -0.10
  17   8    -0.00  -0.01   0.00     0.05  -0.00  -0.02     0.18  -0.00   0.00
                     19                     20                     21
                        a                      a                      a 
 Frequencies --  1121.5225              1136.2494              1195.6035
 Red. masses --     3.4675                 8.5135                 4.4656
 Frc consts  --     0.0000                 0.0000                 0.0000
 IR Inten    --    38.0363                 9.7621                 2.9567
 Raman Activ --     0.0000                 0.0000                 0.0000
 Depolar     --     0.0000                 0.0000                 0.0000
 Atom AN      X      Y      Z        X      Y      Z        X      Y      Z
   1   6     0.00   0.13   0.00     0.00   0.43   0.00    -0.01  -0.00  -0.29
   2   6    -0.03  -0.06   0.06    -0.31  -0.24  -0.04     0.01  -0.02   0.30
   3   6    -0.07   0.16  -0.06     0.24  -0.06   0.15    -0.01  -0.02  -0.09
   4   1     0.05   0.01   0.02    -0.30  -0.15  -0.04     0.05  -0.15   0.08
   5   1    -0.42  -0.24  -0.06     0.03  -0.01   0.04    -0.06   0.00  -0.09
   6   6    -0.00  -0.35   0.00     0.00   0.13   0.00    -0.03   0.00  -0.10
   7   1     0.12  -0.02   0.09    -0.01   0.01  -0.00     0.24  -0.14   0.06
   8   1     0.01  -0.08  -0.00     0.08   0.00   0.04    -0.40   0.16  -0.08
   9   6     0.07   0.16   0.06    -0.24  -0.06  -0.15    -0.01   0.02  -0.09
  10   6     0.03  -0.06  -0.06     0.31  -0.24   0.04     0.01   0.02   0.30
  11   1    -0.12  -0.02  -0.09     0.01   0.01   0.00     0.24   0.14   0.06
  12   1    -0.01  -0.08   0.00    -0.08   0.00  -0.04    -0.40  -0.16  -0.08
  13   1    -0.05   0.01  -0.02     0.30  -0.15   0.04     0.05   0.15   0.08
  14   1     0.42  -0.24   0.06    -0.03  -0.01  -0.04    -0.06  -0.00  -0.09
  15   1     0.00   0.12   0.00     0.00   0.23   0.00     0.19  -0.00  -0.04
  16   1     0.00   0.48   0.00     0.00   0.12   0.00    -0.09  -0.00   0.11
  17   8     0.00   0.04   0.00    -0.00   0.01   0.00     0.10  -0.00  -0.03
                     22                     23                     24
                        a                      a                      a 
 Frequencies --  1217.8368              1232.8143              1236.9913
 Red. masses --     6.1025                 3.9527                 4.4515
 Frc consts  --     0.0000                 0.0000                 0.0000
 IR Inten    --    73.6546                 1.7947                30.8691
 Raman Activ --     0.0000                 0.0000                 0.0000
 Depolar     --     0.0000                 0.0000                 0.0000
 Atom AN      X      Y      Z        X      Y      Z        X      Y      Z
   1   6    -0.00  -0.12   0.00     0.21   0.00  -0.27     0.00  -0.07  -0.00
   2   6     0.01   0.08  -0.16    -0.17  -0.00   0.06     0.06   0.07  -0.22
   3   6    -0.07  -0.18   0.05     0.16  -0.02   0.10    -0.01   0.10   0.12
   4   1    -0.03   0.04  -0.04    -0.31  -0.24  -0.03    -0.20   0.02  -0.09
   5   1    -0.08  -0.05   0.00     0.31   0.22  -0.02     0.07   0.02   0.04
   6   6     0.00   0.55  -0.00    -0.04   0.00  -0.05    -0.00  -0.37   0.00
   7   1     0.20  -0.22  -0.07    -0.19   0.13  -0.03    -0.28   0.18  -0.04
   8   1     0.19  -0.05   0.04    -0.01   0.03   0.02     0.24  -0.06   0.07
   9   6     0.07  -0.18  -0.05     0.16   0.02   0.10     0.01   0.10  -0.12
  10   6    -0.01   0.08   0.16    -0.17   0.00   0.06    -0.06   0.07   0.22
  11   1    -0.20  -0.22   0.07    -0.19  -0.13  -0.03     0.28   0.18   0.04
  12   1    -0.19  -0.05  -0.04    -0.01  -0.03   0.02    -0.24  -0.06  -0.07
  13   1     0.03   0.04   0.04    -0.31   0.24  -0.03     0.20   0.02   0.09
  14   1     0.08  -0.05  -0.00     0.31  -0.22  -0.02    -0.07   0.02  -0.04
  15   1    -0.00  -0.31  -0.00     0.14  -0.00  -0.06    -0.00  -0.42  -0.00
  16   1     0.00   0.38   0.00     0.01   0.00   0.00     0.00   0.22   0.00
  17   8     0.00  -0.08  -0.00    -0.06  -0.00   0.04     0.00   0.05  -0.00
                     25                     26                     27
                        a                      a                      a 
 Frequencies --  1292.7059              1306.3411              1328.9636
 Red. masses --     5.0049                 4.8313                 4.2365
 Frc consts  --     0.0000                 0.0000                 0.0000
 IR Inten    --    13.5073                 8.5843                 9.0462
 Raman Activ --     0.0000                 0.0000                 0.0000
 Depolar     --     0.0000                 0.0000                 0.0000
 Atom AN      X      Y      Z        X      Y      Z        X      Y      Z
   1   6    -0.00   0.04   0.00     0.01  -0.00   0.11    -0.00  -0.34  -0.00
   2   6     0.13  -0.08   0.04    -0.09   0.07  -0.02    -0.25  -0.08  -0.03
   3   6    -0.31   0.23  -0.00     0.33  -0.18   0.00    -0.01   0.10  -0.01
   4   1    -0.22  -0.10  -0.02     0.21   0.11   0.03     0.19   0.12   0.02
   5   1     0.16   0.04   0.07    -0.15  -0.05  -0.06     0.31   0.21   0.00
   6   6    -0.00  -0.11  -0.00    -0.04  -0.00  -0.07     0.00  -0.12   0.00
   7   1     0.28  -0.16   0.07    -0.32   0.19  -0.07     0.07   0.00   0.06
   8   1     0.24  -0.13   0.05    -0.28   0.12  -0.06     0.02   0.00   0.00
   9   6     0.31   0.23   0.00     0.33   0.18   0.00     0.01   0.10   0.01
  10   6    -0.13  -0.08  -0.04    -0.09  -0.07  -0.02     0.25  -0.08   0.03
  11   1    -0.28  -0.16  -0.07    -0.32  -0.19  -0.07    -0.07   0.00  -0.06
  12   1    -0.24  -0.13  -0.05    -0.28  -0.12  -0.06    -0.02   0.00  -0.00
  13   1     0.22  -0.10   0.02     0.21  -0.11   0.03    -0.19   0.12  -0.02
  14   1    -0.16   0.04  -0.07    -0.15   0.05  -0.06    -0.32   0.21  -0.00
  15   1     0.00   0.17   0.00    -0.08  -0.00   0.02     0.00   0.24   0.00
  16   1    -0.00  -0.23  -0.00     0.01   0.00  -0.00     0.00   0.49   0.00
  17   8    -0.00  -0.01   0.00    -0.11   0.00   0.06    -0.00   0.01   0.00
                     28                     29                     30
                        a                      a                      a 
 Frequencies --  1339.7503              1351.2885              1444.8632
 Red. masses --     4.8109                 5.3207                 2.0846
 Frc consts  --     0.0000                 0.0000                 0.0000
 IR Inten    --    20.2935                 0.3139                 3.9142
 Raman Activ --     0.0000                 0.0000                 0.0000
 Depolar     --     0.0000                 0.0000                 0.0000
 Atom AN      X      Y      Z        X      Y      Z        X      Y      Z
   1   6    -0.15   0.00  -0.07    -0.00  -0.45  -0.00    -0.00  -0.04   0.00
   2   6     0.33   0.19   0.03     0.16   0.23   0.07     0.00  -0.00   0.01
   3   6    -0.01  -0.09   0.03     0.02  -0.11   0.03     0.06   0.16   0.13
   4   1    -0.36  -0.18  -0.05    -0.27  -0.19  -0.03    -0.03   0.04  -0.00
   5   1    -0.32  -0.17  -0.07    -0.09   0.01  -0.07     0.01   0.03  -0.04
   6   6     0.04   0.00   0.01     0.00   0.07   0.00     0.00  -0.02   0.00
   7   1    -0.13   0.04  -0.06    -0.12   0.05  -0.03    -0.02  -0.15  -0.46
   8   1     0.04  -0.00   0.01     0.00   0.04   0.00    -0.23  -0.39   0.00
   9   6    -0.01   0.09   0.03    -0.02  -0.11  -0.03    -0.06   0.16  -0.13
  10   6     0.33  -0.19   0.03    -0.16   0.23  -0.07    -0.00  -0.00  -0.01
  11   1    -0.13  -0.04  -0.06     0.12   0.05   0.03     0.02  -0.15   0.46
  12   1     0.04   0.00   0.01    -0.00   0.04  -0.00     0.23  -0.39  -0.00
  13   1    -0.36   0.18  -0.05     0.27  -0.19   0.03     0.03   0.04   0.00
  14   1    -0.32   0.17  -0.07     0.09   0.01   0.07    -0.01   0.03   0.04
  15   1     0.02  -0.00  -0.01     0.00   0.54   0.00     0.00   0.03   0.00
  16   1    -0.09  -0.00   0.08     0.00   0.18   0.00     0.00   0.02  -0.00
  17   8    -0.05   0.00   0.01    -0.00  -0.01   0.00     0.00   0.00   0.00
                     31                     32                     33
                        a                      a                      a 
 Frequencies --  1453.3404              1479.8872              1482.4300
 Red. masses --     1.9562                 1.8959                 1.9614
 Frc consts  --     0.0000                 0.0000                 0.0000
 IR Inten    --     5.5665                 0.7083                 0.7230
 Raman Activ --     0.0000                 0.0000                 0.0000
 Depolar     --     0.0000                 0.0000                 0.0000
 Atom AN      X      Y      Z        X      Y      Z        X      Y      Z
   1   6    -0.05  -0.00   0.02    -0.23   0.00   0.12     0.00   0.01  -0.00
   2   6    -0.00   0.00  -0.01     0.02  -0.05   0.06     0.07  -0.15   0.12
   3   6    -0.04  -0.16  -0.11     0.02   0.01   0.02    -0.00  -0.03  -0.01
   4   1     0.01  -0.02  -0.00    -0.10   0.18  -0.00    -0.24   0.41  -0.02
   5   1    -0.01  -0.01   0.02    -0.02   0.06  -0.20    -0.03   0.12  -0.46
   6   6     0.01  -0.00  -0.03     0.01   0.00   0.00     0.00   0.03  -0.00
   7   1     0.00   0.16   0.45    -0.01  -0.02  -0.06     0.01   0.00   0.04
   8   1     0.21   0.41  -0.00    -0.03  -0.06   0.00     0.03   0.04   0.00
   9   6    -0.04   0.16  -0.11     0.02  -0.01   0.02     0.00  -0.03   0.01
  10   6    -0.00  -0.00  -0.01     0.02   0.05   0.06    -0.07  -0.15  -0.12
  11   1     0.00  -0.16   0.45    -0.01   0.02  -0.06    -0.01   0.00  -0.04
  12   1     0.21  -0.41  -0.00    -0.03   0.06   0.00    -0.03   0.04  -0.00
  13   1     0.01   0.02  -0.00    -0.10  -0.18  -0.00     0.24   0.41   0.02
  14   1    -0.01   0.01   0.02    -0.02  -0.06  -0.20     0.03   0.12   0.46
  15   1     0.11  -0.00   0.02     0.59  -0.00   0.11    -0.00  -0.02  -0.00
  16   1     0.05   0.00  -0.11     0.27   0.00  -0.54    -0.00  -0.02   0.00
  17   8    -0.04   0.00   0.01    -0.00  -0.00   0.00    -0.00  -0.00  -0.00
                     34                     35                     36
                        a                      a                      a 
 Frequencies --  1495.1157              1717.3723              2960.7877
 Red. masses --     2.0135                13.2850                 1.8048
 Frc consts  --     0.0000                 0.0000                 0.0000
 IR Inten    --     0.1760               598.0454                 4.2528
 Raman Activ --     0.0000                 0.0000                 0.0000
 Depolar     --     0.0000                 0.0000                 0.0000
 Atom AN      X      Y      Z        X      Y      Z        X      Y      Z
   1   6    -0.13   0.00   0.04     0.01  -0.00   0.00    -0.00   0.00  -0.00
   2   6    -0.04   0.15  -0.11    -0.02  -0.00  -0.00    -0.03   0.03   0.07
   3   6     0.01   0.02   0.01    -0.04   0.03   0.02     0.03   0.01  -0.17
   4   1     0.20  -0.39   0.01     0.01  -0.00   0.00     0.03   0.01  -0.25
   5   1    -0.00  -0.12   0.41     0.01   0.01   0.01     0.07  -0.12  -0.03
   6   6    -0.01   0.00   0.00     0.73  -0.00  -0.30     0.00  -0.00  -0.00
   7   1    -0.01  -0.01  -0.05     0.06  -0.04  -0.02    -0.04  -0.06   0.00
   8   1    -0.03  -0.04  -0.00    -0.03   0.02  -0.00    -0.08   0.03   0.61
   9   6     0.01  -0.02   0.01    -0.04  -0.03   0.02    -0.03   0.01   0.17
  10   6    -0.04  -0.15  -0.11    -0.02   0.00  -0.00     0.03   0.03  -0.07
  11   1    -0.01   0.01  -0.05     0.06   0.04  -0.02     0.04  -0.06  -0.00
  12   1    -0.03   0.04  -0.00    -0.03  -0.02  -0.00     0.08   0.03  -0.61
  13   1     0.20   0.39   0.01     0.01   0.00   0.00    -0.03   0.01   0.25
  14   1    -0.00   0.12   0.41     0.01  -0.01   0.01    -0.07  -0.12   0.03
  15   1     0.28  -0.00   0.05    -0.00   0.00  -0.00    -0.00  -0.00   0.00
  16   1     0.11   0.00  -0.25     0.00  -0.00  -0.00     0.00   0.00   0.00
  17   8     0.01  -0.00  -0.00    -0.55   0.00   0.22    -0.00  -0.00   0.00
                     37                     38                     39
                        a                      a                      a 
 Frequencies --  2964.0890              2968.1290              2971.7251
 Red. masses --     1.8041                 1.8789                 1.9808
 Frc consts  --     0.0000                 0.0000                 0.0000
 IR Inten    --     2.7199                 8.4649                11.4947
 Raman Activ --     0.0000                 0.0000                 0.0000
 Depolar     --     0.0000                 0.0000                 0.0000
 Atom AN      X      Y      Z        X      Y      Z        X      Y      Z
   1   6     0.02  -0.00   0.08    -0.05   0.00  -0.20    -0.00  -0.00  -0.00
   2   6     0.04  -0.04  -0.11    -0.02   0.02   0.06     0.07  -0.08  -0.16
   3   6    -0.03  -0.01   0.13    -0.02  -0.01   0.11     0.02   0.00  -0.08
   4   1    -0.04  -0.01   0.37     0.03   0.01  -0.21    -0.06  -0.01   0.49
   5   1    -0.10   0.17   0.04     0.05  -0.08  -0.02    -0.18   0.30   0.08
   6   6    -0.01   0.00   0.01    -0.00  -0.00   0.01    -0.00   0.00   0.00
   7   1     0.03   0.05  -0.00     0.02   0.04  -0.00    -0.02  -0.03   0.00
   8   1     0.06  -0.02  -0.48     0.06  -0.02  -0.41    -0.04   0.01   0.28
   9   6    -0.03   0.01   0.13    -0.02   0.01   0.11    -0.02   0.00   0.08
  10   6     0.04   0.04  -0.11    -0.02  -0.02   0.06    -0.07  -0.08   0.16
  11   1     0.03  -0.05  -0.00     0.02  -0.04  -0.00     0.02  -0.03  -0.00
  12   1     0.06   0.02  -0.48     0.06   0.02  -0.41     0.04   0.01  -0.28
  13   1    -0.04   0.01   0.37     0.03  -0.01  -0.21     0.06  -0.01  -0.49
  14   1    -0.10  -0.17   0.04     0.05   0.08  -0.02     0.18   0.30  -0.08
  15   1     0.05   0.00  -0.28    -0.10  -0.00   0.61    -0.00   0.00   0.00
  16   1    -0.09   0.00  -0.04     0.28  -0.00   0.12     0.00   0.00   0.00
  17   8     0.00  -0.00  -0.00     0.00   0.00  -0.00     0.00  -0.00  -0.00
                     40                     41                     42
                        a                      a                      a 
 Frequencies --  2978.8219              2984.4138              2985.0951
 Red. masses --     1.9187                 1.5705                 1.5132
 Frc consts  --     0.0000                 0.0000                 0.0000
 IR Inten    --    81.6120               114.2009                33.6480
 Raman Activ --     0.0000                 0.0000                 0.0000
 Depolar     --     0.0000                 0.0000                 0.0000
 Atom AN      X      Y      Z        X      Y      Z        X      Y      Z
   1   6    -0.12   0.00  -0.14     0.09   0.00  -0.11    -0.00   0.01   0.00
   2   6     0.06  -0.10  -0.09    -0.01   0.04  -0.11    -0.06   0.11  -0.06
   3   6     0.02   0.00  -0.05    -0.01  -0.03  -0.03    -0.03  -0.05   0.00
   4   1    -0.01  -0.02   0.17    -0.06   0.00   0.44    -0.06   0.01   0.37
   5   1    -0.23   0.37   0.12     0.10  -0.15  -0.07     0.27  -0.43  -0.16
   6   6     0.00   0.00  -0.00     0.00  -0.00  -0.00    -0.00  -0.01   0.00
   7   1    -0.02  -0.03   0.01     0.06   0.09  -0.04     0.12   0.18  -0.07
   8   1    -0.03   0.01   0.19    -0.02   0.00   0.14    -0.01  -0.00   0.06
   9   6     0.02  -0.00  -0.05    -0.01   0.03  -0.03     0.03  -0.05  -0.00
  10   6     0.06   0.10  -0.09    -0.01  -0.04  -0.11     0.06   0.11   0.06
  11   1    -0.02   0.03   0.01     0.06  -0.09  -0.04    -0.12   0.18   0.07
  12   1    -0.03  -0.01   0.19    -0.02  -0.00   0.14     0.01  -0.00  -0.06
  13   1    -0.01   0.02   0.17    -0.06  -0.00   0.44     0.06   0.01  -0.37
  14   1    -0.23  -0.37   0.12     0.10   0.15  -0.07    -0.27  -0.43   0.16
  15   1    -0.06  -0.00   0.23    -0.07  -0.00   0.56     0.00   0.00  -0.00
  16   1     0.50  -0.00   0.26    -0.26   0.00  -0.16     0.00   0.00   0.00
  17   8    -0.00   0.00   0.00    -0.00   0.00   0.00     0.00   0.00  -0.00
                     43                     44                     45
                        a                      a                      a 
 Frequencies --  2991.3386              2996.0391              2996.4359
 Red. masses --     1.5696                 1.6740                 1.6760
 Frc consts  --     0.0000                 0.0000                 0.0000
 IR Inten    --   104.8219               103.7088                15.2541
 Raman Activ --     0.0000                 0.0000                 0.0000
 Depolar     --     0.0000                 0.0000                 0.0000
 Atom AN      X      Y      Z        X      Y      Z        X      Y      Z
   1   6    -0.16   0.00   0.00     0.00  -0.00   0.00    -0.05   0.00  -0.02
   2   6    -0.05   0.07  -0.02     0.02  -0.04   0.02    -0.02   0.05  -0.03
   3   6    -0.04  -0.06   0.01    -0.09  -0.14   0.04     0.08   0.13  -0.04
   4   1    -0.03   0.01   0.17     0.02  -0.00  -0.13    -0.03   0.01   0.17
   5   1     0.18  -0.29  -0.10    -0.10   0.15   0.06     0.11  -0.18  -0.07
   6   6    -0.00   0.00   0.00    -0.00  -0.01   0.00     0.01  -0.00  -0.00
   7   1     0.15   0.22  -0.09     0.34   0.50  -0.20    -0.32  -0.48   0.19
   8   1    -0.01  -0.01   0.04    -0.02  -0.01   0.08     0.02   0.02  -0.05
   9   6    -0.04   0.06   0.01     0.09  -0.14  -0.04     0.08  -0.13  -0.04
  10   6    -0.05  -0.07  -0.02    -0.02  -0.04  -0.02    -0.02  -0.05  -0.03
  11   1     0.15  -0.22  -0.09    -0.34   0.50   0.20    -0.32   0.48   0.19
  12   1    -0.01   0.01   0.04     0.02  -0.01  -0.08     0.02  -0.02  -0.05
  13   1    -0.03  -0.01   0.17    -0.02  -0.00   0.13    -0.03  -0.01   0.17
  14   1     0.18   0.29  -0.10     0.10   0.15  -0.06     0.11   0.18  -0.07
  15   1     0.03   0.00  -0.31     0.00  -0.00   0.00    -0.00  -0.00  -0.03
  16   1     0.54  -0.00   0.30    -0.00  -0.00  -0.00     0.18  -0.00   0.10
  17   8    -0.00  -0.00   0.00     0.00   0.00  -0.00    -0.00   0.00   0.00
