
                                 *****************
                                 * O   R   C   A *
                                 *****************

                                            #,                                       
                                            ###                                      
                                            ####                                     
                                            #####                                    
                                            ######                                   
                                           ########,                                 
                                     ,,################,,,,,                         
                               ,,#################################,,                 
                          ,,##########################################,,             
                       ,#########################################, ''#####,          
                    ,#############################################,,   '####,        
                  ,##################################################,,,,####,       
                ,###########''''           ''''###############################       
              ,#####''   ,,,,##########,,,,          '''####'''          '####       
            ,##' ,,,,###########################,,,                        '##       
           ' ,,###''''                  '''############,,,                           
         ,,##''                                '''############,,,,        ,,,,,,###''
      ,#''                                            '''#######################'''  
     '                                                          ''''####''''         
             ,#######,   #######,   ,#######,      ##                                
            ,#'     '#,  ##    ##  ,#'     '#,    #''#        ######   ,####,        
            ##       ##  ##   ,#'  ##            #'  '#       #        #'  '#        
            ##       ##  #######   ##           ,######,      #####,   #    #        
            '#,     ,#'  ##    ##  '#,     ,#' ,#      #,         ##   #,  ,#        
             '#######'   ##     ##  '#######'  #'      '#     #####' # '####'        



                  #######################################################
                  #                        -***-                        #
                  #          Department of theory and spectroscopy      #
                  #    Directorship and core code : Frank Neese         #
                  #        Max Planck Institute fuer Kohlenforschung    #
                  #                Kaiser Wilhelm Platz 1               #
                  #                 D-45470 Muelheim/Ruhr               #
                  #                      Germany                        #
                  #                                                     #
                  #                  All rights reserved                #
                  #                        -***-                        #
                  #######################################################


                         Program Version 5.0.2 -  RELEASE  -


 With contributions from (in alphabetic order):
   Daniel Aravena         : Magnetic Suceptibility
   Michael Atanasov       : Ab Initio Ligand Field Theory (pilot matlab implementation)
   Alexander A. Auer      : GIAO ZORA, VPT2 properties, NMR spectrum
   Ute Becker             : Parallelization
   Giovanni Bistoni       : ED, misc. LED, open-shell LED, HFLD
   Martin Brehm           : Molecular dynamics
   Dmytro Bykov           : SCF Hessian
   Vijay G. Chilkuri      : MRCI spin determinant printing, contributions to CSF-ICE
   Dipayan Datta          : RHF DLPNO-CCSD density
   Achintya Kumar Dutta   : EOM-CC, STEOM-CC
   Dmitry Ganyushin       : Spin-Orbit,Spin-Spin,Magnetic field MRCI
   Miquel Garcia          : C-PCM and meta-GGA Hessian, CC/C-PCM, Gaussian charge scheme
   Yang Guo               : DLPNO-NEVPT2, F12-NEVPT2, CIM, IAO-localization
   Andreas Hansen         : Spin unrestricted coupled pair/coupled cluster methods
   Benjamin Helmich-Paris : MC-RPA, TRAH-SCF, COSX integrals
   Lee Huntington         : MR-EOM, pCC
   Robert Izsak           : Overlap fitted RIJCOSX, COSX-SCS-MP3, EOM
   Marcus Kettner         : VPT2
   Christian Kollmar      : KDIIS, OOCD, Brueckner-CCSD(T), CCSD density, CASPT2, CASPT2-K
   Simone Kossmann        : Meta GGA functionals, TD-DFT gradient, OOMP2, MP2 Hessian
   Martin Krupicka        : Initial AUTO-CI
   Lucas Lang             : DCDCAS
   Marvin Lechner         : AUTO-CI (C++ implementation), FIC-MRCC
   Dagmar Lenk            : GEPOL surface, SMD
   Dimitrios Liakos       : Extrapolation schemes; Compound Job, initial MDCI parallelization
   Dimitrios Manganas     : Further ROCIS development; embedding schemes
   Dimitrios Pantazis     : SARC Basis sets
   Anastasios Papadopoulos: AUTO-CI, single reference methods and gradients
   Taras Petrenko         : DFT Hessian,TD-DFT gradient, ASA, ECA, R-Raman, ABS, FL, XAS/XES, NRVS
   Peter Pinski           : DLPNO-MP2, DLPNO-MP2 Gradient
   Christoph Reimann      : Effective Core Potentials
   Marius Retegan         : Local ZFS, SOC
   Christoph Riplinger    : Optimizer, TS searches, QM/MM, DLPNO-CCSD(T), (RO)-DLPNO pert. Triples
   Tobias Risthaus        : Range-separated hybrids, TD-DFT gradient, RPA, STAB
   Michael Roemelt        : Original ROCIS implementation
   Masaaki Saitow         : Open-shell DLPNO-CCSD energy and density
   Barbara Sandhoefer     : DKH picture change effects
   Avijit Sen             : IP-ROCIS
   Kantharuban Sivalingam : CASSCF convergence, NEVPT2, FIC-MRCI
   Bernardo de Souza      : ESD, SOC TD-DFT
   Georgi Stoychev        : AutoAux, RI-MP2 NMR, DLPNO-MP2 response
   Willem Van den Heuvel  : Paramagnetic NMR
   Boris Wezisla          : Elementary symmetry handling
   Frank Wennmohs         : Technical directorship


 We gratefully acknowledge several colleagues who have allowed us to
 interface, adapt or use parts of their codes:
   Stefan Grimme, W. Hujo, H. Kruse, P. Pracht,  : VdW corrections, initial TS optimization,
                  C. Bannwarth, S. Ehlert          DFT functionals, gCP, sTDA/sTD-DF
   Ed Valeev, F. Pavosevic, A. Kumar             : LibInt (2-el integral package), F12 methods
   Garnet Chan, S. Sharma, J. Yang, R. Olivares  : DMRG
   Ulf Ekstrom                                   : XCFun DFT Library
   Mihaly Kallay                                 : mrcc  (arbitrary order and MRCC methods)
   Jiri Pittner, Ondrej Demel                    : Mk-CCSD
   Frank Weinhold                                : gennbo (NPA and NBO analysis)
   Christopher J. Cramer and Donald G. Truhlar   : smd solvation model
   Lars Goerigk                                  : TD-DFT with DH, B97 family of functionals
   V. Asgeirsson, H. Jonsson                     : NEB implementation
   FAccTs GmbH                                   : IRC, NEB, NEB-TS, DLPNO-Multilevel, CI-OPT
                                                   MM, QMMM, 2- and 3-layer-ONIOM, Crystal-QMMM,
                                                   LR-CPCM, SF, NACMEs, symmetry and pop. for TD-DFT,
                                                   nearIR, NL-DFT gradient (VV10), updates on ESD,
                                                   ML-optimized integration grids
   S Lehtola, MJT Oliveira, MAL Marques          : LibXC Library
   Liviu Ungur et al                             : ANISO software


 Your calculation uses the libint2 library for the computation of 2-el integrals
 For citations please refer to: http://libint.valeyev.net

 Your ORCA version has been built with support for libXC version: 5.1.0
 For citations please refer to: https://tddft.org/programs/libxc/

 This ORCA versions uses:
   CBLAS   interface :  Fast vector & matrix operations
   LAPACKE interface :  Fast linear algebra routines
   SCALAPACK package :  Parallel linear algebra routines
   Shared memory     :  Shared parallel matrices
   BLAS/LAPACK       :  OpenBLAS 0.3.15  USE64BITINT DYNAMIC_ARCH NO_AFFINITY Zen SINGLE_THREADED
        Core in use  :  Zen
   Copyright (c) 2011-2014, The OpenBLAS Project


Your calculation utilizes the atom-pairwise dispersion correction
based on tight binding partial charges (D4)
Cite in your paper:
E.Caldeweyher, C.Bannwarth, S.Grimme, J.Chem.Phys., (2017), 147, 034112.
E.Caldeweyher, S.Ehlert, A.Hansen, H.Neugebauer, S.Grimme, J.Chem.Phys., (2018), in progress.
   

================================================================================

----- Orbital basis set information -----
Your calculation utilizes the basis: pcSseg-1
   F. Jensen, J. Chem. Theory Comput. 11, 132 (2015).

----- AuxJ basis set information -----
Your calculation utilizes the auxiliary basis: def2/J
   F. Weigend, Phys. Chem. Chem. Phys. 8, 1057 (2006).

================================================================================
                                        WARNINGS
                       Please study these warnings very carefully!
================================================================================



WARNING: Found flag for RIJCOSX approximation but no HF exchange needed!
  ===> : RIJCOSX  will be disabled and Split-RI-J is turned on

INFO   : the flag for use of the SHARK integral package has been found!

================================================================================
                                       INPUT FILE
================================================================================
NAME = inpS
|  1> ! revTPSS
|  2> ! D4
|  3> ! pcSseg-1
|  4> ! def2/J RIJCOSX
|  5> ! DEFGRID2
|  6> ! scfconv7
|  7> ! smallprint printgap noloewdin
|  8> ! NOSOSCF
|  9> %MaxCore 4000
| 10> %output
| 11>        print[P_BondOrder_M] 1
| 12>        print[P_Mayer] 1
| 13>        print[P_basis] 2
| 14> end
| 15> %pal
| 16>     nprocs 4
| 17> end
| 18> ! CPCM(chloroform)
| 19> *xyz 0 1
| 20> C   -5.1667061200   0.2713088500   0.2231504000
| 21> C   -6.5554524800  -0.2298155700  -0.0973814800
| 22> C   -7.1246106400   0.4362625600  -1.3560023100
| 23> H   -7.2343569600   0.0157146000   0.7369184000
| 24> H   -6.5555169800  -1.3186447700  -0.2184497400
| 25> C   -5.0433980700   1.7444079500   0.2454066700
| 26> C   -5.6586322800   2.4434938800  -0.9457375000
| 27> C   -7.0879034300   1.9537629700  -1.2152741700
| 28> H   -5.0438521700   2.2260771900  -1.8324263200
| 29> H   -5.6441664900   3.5283424000  -0.7968464300
| 30> H   -7.4835123100   2.4191074800  -2.1257702100
| 31> H   -7.7420114200   2.2458060100  -0.3798165600
| 32> O   -8.4461054800  -0.0407257700  -1.6417444300
| 33> H   -6.5221975300   0.1357115100  -2.2246838700
| 34> C   -4.1445047200  -0.5937597700   0.4247283700
| 35> C   -4.4780162400   2.4195888600   1.2527950200
| 36> H   -4.0644749600   1.9065304500   2.1165139300
| 37> H   -4.4272686300   3.5058039500   1.2387730800
| 38> C   -2.7589068600  -0.2487347800   0.6418968000
| 39> H   -4.3945186900  -1.6527336000   0.3753654400
| 40> C   -1.7543949100  -1.1039943600   0.9302782800
| 41> H   -2.5109824500   0.8064376700   0.5509231000
| 42> C   -1.8982539800  -2.5888155500   1.1510653100
| 43> C   -0.9110371700  -3.3998207500   0.2901620500
| 44> H   -2.9196226300  -2.9367652200   0.9733097300
| 45> H   -1.6749566200  -2.7922856200   2.2107840000
| 46> C    0.5336455300  -2.8967946500   0.4141960400
| 47> H   -1.2294172200  -3.3569449000  -0.7590365100
| 48> H   -0.9590141700  -4.4548261300   0.5867333600
| 49> C    0.6405085500  -1.3939913400   0.1183559500
| 50> H    1.1737087500  -3.4820037400  -0.2543261700
| 51> H    0.8919633800  -3.0753070000   1.4392779200
| 52> C   -0.3336284700  -0.6574130700   1.0909188100
| 53> H   -0.0176775800  -0.9830052200   2.0997961200
| 54> C    0.0478123600   0.8121199300   0.9516085300
| 55> H   -9.0125934900   0.2093106300  -0.8995504000
| 56> C    1.5864082100   0.7692484700   0.7899535100
| 57> H   -0.2711635800   1.4071357200   1.8140675500
| 58> H   -0.4222450200   1.2518467100   0.0646423300
| 59> C    1.9823094100  -0.7166715600   0.5197516100
| 60> H    2.0908154400   1.1486351000   1.6827285700
| 61> H    1.9152516600   1.4033289300  -0.0423154900
| 62> H    2.2799258400  -1.1828311900   1.4722533500
| 63> C    3.1666591700  -0.8244739600  -0.4512469200
| 64> C    0.2783462200  -1.0934845300  -1.3428504200
| 65> H   -0.7819755100  -1.2840461900  -1.5348531300
| 66> H    0.8619616800  -1.7196546400  -2.0261579900
| 67> H    0.4729294000  -0.0480413300  -1.6029598800
| 68> H    2.8722589600  -0.3237758100  -1.3871428000
| 69> C    3.5620117500  -2.2694815300  -0.8079185200
| 70> C    4.4109429300  -0.1183517100   0.0415944500
| 71> C    4.7360094500   0.1733729300   1.3006624700
| 72> H    5.1381264000   0.1165852900  -0.7410683900
| 73> H    4.0431737500  -0.0708807200   2.1074994400
| 74> C    6.0275330100   0.8161727200   1.7228817700
| 75> C    6.7988226000  -0.1135375200   2.6710600100
| 76> C    5.8161184900   2.2248309300   2.3410417700
| 77> H    6.6404080600   0.9627943100   0.8207387300
| 78> H    6.8166847500   2.5805065000   2.6320859200
| 79> C    4.9378135000   2.2167320100   3.5949526800
| 80> C    5.2515845300   3.1985856400   1.3054888300
| 81> H    7.0754211800  -1.0399890300   2.1568811000
| 82> H    6.1955371200  -0.3882571900   3.5433337200
| 83> H    7.7160031700   0.3680920300   3.0303695200
| 84> H    4.8937492600   3.2206247000   4.0315753000
| 85> H    5.3180044300   1.5362237200   4.3634623900
| 86> H    3.9108751300   1.9187936700   3.3527963600
| 87> H    4.2459087900   2.8912653100   0.9942094300
| 88> H    5.8822006900   3.2377472600   0.4096035300
| 89> H    5.1834151500   4.2111021800   1.7189519600
| 90> H    4.4955248300  -2.2775197500  -1.3817640700
| 91> H    2.7981436100  -2.7680947000  -1.4102935900
| 92> H    3.7240355300  -2.8556980800   0.1042409500
| 93> *
| 94> %eprnmr
| 95>  Nuclei = all H { shift }
| 96>  origin giao
| 97>  giao_2el giao_2el_same_as_scf
| 98>  giao_1el giao_1el_analytic
| 99> end
|100> 
|101>                          ****END OF INPUT****
================================================================================

                       ****************************
                       * Single Point Calculation *
                       ****************************

---------------------------------
CARTESIAN COORDINATES (ANGSTROEM)
---------------------------------
  C     -5.166706    0.271309    0.223150
  C     -6.555452   -0.229816   -0.097381
  C     -7.124611    0.436263   -1.356002
  H     -7.234357    0.015715    0.736918
  H     -6.555517   -1.318645   -0.218450
  C     -5.043398    1.744408    0.245407
  C     -5.658632    2.443494   -0.945738
  C     -7.087903    1.953763   -1.215274
  H     -5.043852    2.226077   -1.832426
  H     -5.644166    3.528342   -0.796846
  H     -7.483512    2.419107   -2.125770
  H     -7.742011    2.245806   -0.379817
  O     -8.446105   -0.040726   -1.641744
  H     -6.522198    0.135712   -2.224684
  C     -4.144505   -0.593760    0.424728
  C     -4.478016    2.419589    1.252795
  H     -4.064475    1.906530    2.116514
  H     -4.427269    3.505804    1.238773
  C     -2.758907   -0.248735    0.641897
  H     -4.394519   -1.652734    0.375365
  C     -1.754395   -1.103994    0.930278
  H     -2.510982    0.806438    0.550923
  C     -1.898254   -2.588816    1.151065
  C     -0.911037   -3.399821    0.290162
  H     -2.919623   -2.936765    0.973310
  H     -1.674957   -2.792286    2.210784
  C      0.533646   -2.896795    0.414196
  H     -1.229417   -3.356945   -0.759037
  H     -0.959014   -4.454826    0.586733
  C      0.640509   -1.393991    0.118356
  H      1.173709   -3.482004   -0.254326
  H      0.891963   -3.075307    1.439278
  C     -0.333628   -0.657413    1.090919
  H     -0.017678   -0.983005    2.099796
  C      0.047812    0.812120    0.951609
  H     -9.012593    0.209311   -0.899550
  C      1.586408    0.769248    0.789954
  H     -0.271164    1.407136    1.814068
  H     -0.422245    1.251847    0.064642
  C      1.982309   -0.716672    0.519752
  H      2.090815    1.148635    1.682729
  H      1.915252    1.403329   -0.042315
  H      2.279926   -1.182831    1.472253
  C      3.166659   -0.824474   -0.451247
  C      0.278346   -1.093485   -1.342850
  H     -0.781976   -1.284046   -1.534853
  H      0.861962   -1.719655   -2.026158
  H      0.472929   -0.048041   -1.602960
  H      2.872259   -0.323776   -1.387143
  C      3.562012   -2.269482   -0.807919
  C      4.410943   -0.118352    0.041594
  C      4.736009    0.173373    1.300662
  H      5.138126    0.116585   -0.741068
  H      4.043174   -0.070881    2.107499
  C      6.027533    0.816173    1.722882
  C      6.798823   -0.113538    2.671060
  C      5.816118    2.224831    2.341042
  H      6.640408    0.962794    0.820739
  H      6.816685    2.580506    2.632086
  C      4.937813    2.216732    3.594953
  C      5.251585    3.198586    1.305489
  H      7.075421   -1.039989    2.156881
  H      6.195537   -0.388257    3.543334
  H      7.716003    0.368092    3.030370
  H      4.893749    3.220625    4.031575
  H      5.318004    1.536224    4.363462
  H      3.910875    1.918794    3.352796
  H      4.245909    2.891265    0.994209
  H      5.882201    3.237747    0.409604
  H      5.183415    4.211102    1.718952
  H      4.495525   -2.277520   -1.381764
  H      2.798144   -2.768095   -1.410294
  H      3.724036   -2.855698    0.104241

----------------------------
CARTESIAN COORDINATES (A.U.)
----------------------------
  NO LB      ZA    FRAG     MASS         X           Y           Z
   0 C     6.0000    0    12.011   -9.763660    0.512699    0.421693
   1 C     6.0000    0    12.011  -12.388010   -0.434288   -0.184024
   2 C     6.0000    0    12.011  -13.463563    0.824417   -2.562473
   3 H     1.0000    0     1.008  -13.670953    0.029696    1.392574
   4 H     1.0000    0     1.008  -12.388132   -2.491877   -0.412810
   5 C     6.0000    0    12.011   -9.530641    3.296453    0.463751
   6 C     6.0000    0    12.011  -10.693265    4.617534   -1.787185
   7 C     6.0000    0    12.011  -13.394196    3.692077   -2.296535
   8 H     1.0000    0     1.008   -9.531499    4.206676   -3.462784
   9 H     1.0000    0     1.008  -10.665929    6.667601   -1.505822
  10 H     1.0000    0     1.008  -14.141789    4.571451   -4.017124
  11 H     1.0000    0     1.008  -14.630281    4.243958   -0.717749
  12 O     8.0000    0    15.999  -15.960826   -0.076961   -3.102447
  13 H     1.0000    0     1.008  -12.325167    0.256458   -4.204043
  14 C     6.0000    0    12.011   -7.831979   -1.122043    0.802620
  15 C     6.0000    0    12.011   -8.462224    4.572360    2.367439
  16 H     1.0000    0     1.008   -7.680745    3.602820    3.999632
  17 H     1.0000    0     1.008   -8.366325    6.625009    2.340942
  18 C     6.0000    0    12.011   -5.213578   -0.470041    1.213009
  19 H     1.0000    0     1.008   -8.304437   -3.123214    0.709338
  20 C     6.0000    0    12.011   -3.315326   -2.086247    1.757971
  21 H     1.0000    0     1.008   -4.745069    1.523946    1.041094
  22 C     6.0000    0    12.011   -3.587180   -4.892152    2.175198
  23 C     6.0000    0    12.011   -1.721611   -6.424730    0.548327
  24 H     1.0000    0     1.008   -5.517287   -5.549682    1.839289
  25 H     1.0000    0     1.008   -3.165209   -5.276655    4.177776
  26 C     6.0000    0    12.011    1.008444   -5.474149    0.782717
  27 H     1.0000    0     1.008   -2.323262   -6.343707   -1.434371
  28 H     1.0000    0     1.008   -1.812274   -8.418401    1.108765
  29 C     6.0000    0    12.011    1.210386   -2.634262    0.223660
  30 H     1.0000    0     1.008    2.217988   -6.580033   -0.480607
  31 H     1.0000    0     1.008    1.685567   -5.811488    2.719841
  32 C     6.0000    0    12.011   -0.630466   -1.242331    2.061538
  33 H     1.0000    0     1.008   -0.033406   -1.857611    3.968040
  34 C     6.0000    0    12.011    0.090352    1.534684    1.798280
  35 H     1.0000    0     1.008  -17.031333    0.395540   -1.699904
  36 C     6.0000    0    12.011    2.997877    1.453669    1.492796
  37 H     1.0000    0     1.008   -0.512425    2.659101    3.428091
  38 H     1.0000    0     1.008   -0.797927    2.365647    0.122156
  39 C     6.0000    0    12.011    3.746022   -1.354313    0.982188
  40 H     1.0000    0     1.008    3.951069    2.170606    3.179896
  41 H     1.0000    0     1.008    3.619301    2.651907   -0.079965
  42 H     1.0000    0     1.008    4.308435   -2.235227    2.782156
  43 C     6.0000    0    12.011    5.984119   -1.558030   -0.852733
  44 C     6.0000    0    12.011    0.525998   -2.066386   -2.537620
  45 H     1.0000    0     1.008   -1.477720   -2.426496   -2.900452
  46 H     1.0000    0     1.008    1.628872   -3.249676   -3.828884
  47 H     1.0000    0     1.008    0.893707   -0.090785   -3.029155
  48 H     1.0000    0     1.008    5.427783   -0.611848   -2.621320
  49 C     6.0000    0    12.011    6.731227   -4.288699   -1.526745
  50 C     6.0000    0    12.011    8.335474   -0.223652    0.078602
  51 C     6.0000    0    12.011    8.949761    0.327627    2.457896
  52 H     1.0000    0     1.008    9.709652    0.220314   -1.400416
  53 H     1.0000    0     1.008    7.640491   -0.133945    3.982597
  54 C     6.0000    0    12.011   11.390387    1.542343    3.255775
  55 C     6.0000    0    12.011   12.847913   -0.214555    5.047572
  56 C     6.0000    0    12.011   10.990871    4.204321    4.423928
  57 H     1.0000    0     1.008   12.548553    1.819418    1.550971
  58 H     1.0000    0     1.008   12.881667    4.876451    4.973922
  59 C     6.0000    0    12.011    9.331115    4.189016    6.793476
  60 C     6.0000    0    12.011    9.924057    6.044451    2.467016
  61 H     1.0000    0     1.008   13.370608   -1.965294    4.075915
  62 H     1.0000    0     1.008   11.707868   -0.733700    6.695930
  63 H     1.0000    0     1.008   14.581133    0.695593    5.726568
  64 H     1.0000    0     1.008    9.247846    6.086099    7.618573
  65 H     1.0000    0     1.008   10.049572    2.903042    8.245749
  66 H     1.0000    0     1.008    7.390483    3.625995    6.335867
  67 H     1.0000    0     1.008    8.023605    5.463700    1.878784
  68 H     1.0000    0     1.008   11.115748    6.118456    0.774038
  69 H     1.0000    0     1.008    9.795235    7.957830    3.248348
  70 H     1.0000    0     1.008    8.495311   -4.303889   -2.611156
  71 H     1.0000    0     1.008    5.287725   -5.230941   -2.665069
  72 H     1.0000    0     1.008    7.037407   -5.396487    0.196987

--------------------------------
INTERNAL COORDINATES (ANGSTROEM)
--------------------------------
 C      0   0   0     0.000000000000     0.00000000     0.00000000
 C      1   0   0     1.510788808150     0.00000000     0.00000000
 C      2   1   0     1.533534310040   111.79078857     0.00000000
 H      2   1   3     1.103291732550   109.35283226   241.45694895
 H      2   1   3     1.095539389758   110.68106783   122.91575715
 C      1   2   3     1.478418470924   114.22779690    50.21899310
 C      6   1   2     1.511971793521   114.51335479   312.26854567
 C      3   2   1     1.524453778573   110.34420344   305.12798318
 H      7   6   1     1.100655106859   108.42384688   289.87648077
 H      7   6   1     1.095113748043   110.21524802   172.67026945
 H      8   3   2     1.096382660287   109.70329596   179.19596341
 H      8   3   2     1.100516159764   108.65852082   296.64816442
 O      3   2   1     1.433706747646   111.17169819   180.46043313
 H      3   2   1     1.099017807608   109.05665028    65.30630921
 C      1   2   3     1.354205707217   120.90064991   232.12662164
 C      6   1   2     1.338042287313   123.32341999   130.02789184
 H     16   6   1     1.086395728005   121.40644776     0.64670010
 H     16   6   1     1.087490301780   120.93212488   181.34541738
 C     15   1   2     1.444328840794   126.43593882   175.26223345
 H     15   1   2     1.089205791702   116.17164469   357.97924306
 C     19  15   1     1.350435886994   126.47095200   175.30822985
 H     19  15   1     1.087718541905   115.96496747   354.61299139
 C     21  19  15     1.508023975575   125.72406867   356.72198170
 C     23  21  19     1.540610556712   112.04751835   128.80345483
 H     23  21  19     1.093553811331   112.24619340     4.59714328
 H     23  21  19     1.101937149888   107.65437574   247.50659796
 C     24  23  21     1.534772879496   112.67392151    50.38030020
 H     24  23  21     1.097279277603   109.13660565   288.22382160
 H     24  23  21     1.096946984258   109.09799541   172.27305824
 C     27  24  23     1.535369288621   111.76153677   306.18122202
 H     27  24  23     1.095021712058   109.00866692   182.61248054
 H     27  24  23     1.100477715102   109.18397744    66.09377953
 C     21  19  15     1.497937750872   122.65707395   177.73474320
 H     33  21  19     1.106195570262   106.31756375   123.16466740
 C     33  21  19     1.524608703567   120.98821832     0.81511045
 H     13   3   2     0.966581007969   107.52402854    62.61031375
 C     35  33  21     1.547658714708   103.38942001   195.34456400
 H     35  33  21     1.095273939171   112.26051850    73.53577182
 H     35  33  21     1.095911776323   110.69482135   313.88624676
 C     30  27  24     1.555734587950   115.87765076   166.81851594
 H     37  35  33     1.093347235080   111.32997587   251.26612055
 H     37  35  33     1.096753268845   111.18161675   132.93990901
 H     40  30  27     1.101426304730   105.77822505   321.83641029
 C     40  30  27     1.535299272689   118.13725570    82.83218600
 C     30  27  24     1.535118872223   111.01354637   295.10087760
 H     45  30  27     1.094285592530   111.19345171    67.45397962
 H     45  30  27     1.095264920934   110.86775026   307.41862248
 H     45  30  27     1.094747016231   111.78741496   187.31174485
 H     44  40  30     1.101485914237   107.41396166    62.15739643
 C     44  40  30     1.539988691555   114.23028452   303.20676817
 C     44  40  30     1.513189784306   113.30177947   179.51945966
 C     51  44  40     1.332675424473   127.62065555    23.68364972
 H     51  44  40     1.093870336981   114.44576989   199.82328490
 H     52  51  44     1.091176909988   119.65019577   357.53453325
 C     52  51  44     1.503161273234   124.64987805   176.66675401
 C     55  52  51     1.535672731025   110.24725402   240.79839818
 C     55  52  51     1.552783255148   112.50590679   115.22191460
 H     55  52  51     1.100443447973   107.77179539   358.31319128
 H     57  55  52     1.101065233760   105.93521612   178.59889589
 C     57  55  52     1.530940174592   113.53895059    60.42723181
 C     57  55  52     1.529466154834   110.99488979   295.56506540
 H     56  55  52     1.095079506852   110.43445900    63.12133396
 H     56  55  52     1.095575507494   111.52029777   303.65267714
 H     56  55  52     1.096490102735   110.88660044   183.19079002
 H     60  57  55     1.095619232479   110.15920709   175.29200353
 H     60  57  55     1.094643252561   112.27506700    55.28444032
 H     60  57  55     1.096361871617   110.97176630   294.12280132
 H     61  57  55     1.096687897316   110.62442400    65.05164199
 H     61  57  55     1.096275897979   111.32922546   305.22063201
 H     61  57  55     1.095804986306   110.84043828   184.82138172
 H     50  44  40     1.095814764806   110.29594198   188.21441168
 H     50  44  40     1.093144708427   112.10019285    68.26229353
 H     50  44  40     1.096328622034   110.30214748   307.19741389

---------------------------
INTERNAL COORDINATES (A.U.)
---------------------------
 C      0   0   0     0.000000000000     0.00000000     0.00000000
 C      1   0   0     2.854977093596     0.00000000     0.00000000
 C      2   1   0     2.897959862947   111.79078857     0.00000000
 H      2   1   3     2.084919220338   109.35283226   241.45694895
 H      2   1   3     2.070269415567   110.68106783   122.91575715
 C      1   2   3     2.793806021377   114.22779690    50.21899310
 C      6   1   2     2.857212611969   114.51335479   312.26854567
 C      3   2   1     2.880800145323   110.34420344   305.12798318
 H      7   6   1     2.079936719866   108.42384688   289.87648077
 H      7   6   1     2.069465069293   110.21524802   172.67026945
 H      8   3   2     2.071862965922   109.70329596   179.19596341
 H      8   3   2     2.079674147908   108.65852082   296.64816442
 O      3   2   1     2.709313109405   111.17169819   180.46043313
 H      3   2   1     2.076842672682   109.05665028    65.30630921
 C      1   2   3     2.559077915634   120.90064991   232.12662164
 C      6   1   2     2.528533478627   123.32341999   130.02789184
 H     16   6   1     2.052990398991   121.40644776     0.64670010
 H     16   6   1     2.055058843660   120.93212488   181.34541738
 C     15   1   2     2.729385956425   126.43593882   175.26223345
 H     15   1   2     2.058300649799   116.17164469   357.97924306
 C     19  15   1     2.551953987838   126.47095200   175.30822985
 H     19  15   1     2.055490154989   115.96496747   354.61299139
 C     21  19  15     2.849752317225   125.72406867   356.72198170
 C     23  21  19     2.911332031214   112.04751835   128.80345483
 H     23  21  19     2.066517216122   112.24619340     4.59714328
 H     23  21  19     2.082359430083   107.65437574   247.50659796
 C     24  23  21     2.900300420017   112.67392151    50.38030020
 H     24  23  21     2.073557327097   109.13660565   288.22382160
 H     24  23  21     2.072929383679   109.09799541   172.27305824
 C     27  24  23     2.901427469928   111.76153677   306.18122202
 H     27  24  23     2.069291146487   109.00866692   182.61248054
 H     27  24  23     2.079601498026   109.18397744    66.09377953
 C     21  19  15     2.830692114810   122.65707395   177.73474320
 H     33  21  19     2.090406678351   106.31756375   123.16466740
 C     33  21  19     2.881092911135   120.98821832     0.81511045
 H     13   3   2     1.826573391311   107.52402854    62.61031375
 C     35  33  21     2.924651119574   103.38942001   195.34456400
 H     35  33  21     2.069767786655   112.26051850    73.53577182
 H     35  33  21     2.070973124190   110.69482135   313.88624676
 C     30  27  24     2.939912308294   115.87765076   166.81851594
 H     37  35  33     2.066126843581   111.32997587   251.26612055
 H     37  35  33     2.072563314600   111.18161675   132.93990901
 H     40  30  27     2.081394072636   105.77822505   321.83641029
 C     40  30  27     2.901295158991   118.13725570    82.83218600
 C     30  27  24     2.900954251516   111.01354637   295.10087760
 H     45  30  27     2.067900082178   111.19345171    67.45397962
 H     45  30  27     2.069750744655   110.86775026   307.41862248
 H     45  30  27     2.068772046604   111.78741496   187.31174485
 H     44  40  30     2.081506718280   107.41396166    62.15739643
 C     44  40  30     2.910156876374   114.23028452   303.20676817
 C     44  40  30     2.859514280986   113.30177947   179.51945966
 C     51  44  40     2.518391577662   127.62065555    23.68364972
 H     51  44  40     2.067115362914   114.44576989   199.82328490
 H     52  51  44     2.062025523536   119.65019577   357.53453325
 C     52  51  44     2.840563141529   124.64987805   176.66675401
 C     55  52  51     2.902000892968   110.24725402   240.79839818
 C     55  52  51     2.934335097568   112.50590679   115.22191460
 H     55  52  51     2.079536742537   107.77179539   358.31319128
 H     57  55  52     2.080711747388   105.93521612   178.59889589
 C     57  55  52     2.893057657397   113.53895059    60.42723181
 C     57  55  52     2.890272163738   110.99488979   295.56506540
 H     56  55  52     2.069400362821   110.43445900    63.12133396
 H     56  55  52     2.070337668196   111.52029777   303.65267714
 H     56  55  52     2.072066002724   110.88660044   183.19079002
 H     60  57  55     2.070420296442   110.15920709   175.29200353
 H     60  57  55     2.068575961685   112.27506700    55.28444032
 H     60  57  55     2.071823681030   110.97176630   294.12280132
 H     61  57  55     2.072439780314   110.62442400    65.05164199
 H     61  57  55     2.071661214399   111.32922546   305.22063201
 H     61  57  55     2.070771320303   110.84043828   184.82138172
 H     50  44  40     2.070789798991   110.29594198   188.21441168
 H     50  44  40     2.065744123672   112.10019285    68.26229353
 H     50  44  40     2.071760848423   110.30214748   307.19741389

---------------------
BASIS SET INFORMATION
---------------------
There are 3 groups of distinct atoms

 Group   1 Type C   : 8s5p1d contracted to 3s3p1d pattern {521/311/1}
 Group   2 Type H   : 4s2p contracted to 2s1p pattern {31/2}
 Group   3 Type O   : 8s5p1d contracted to 3s3p1d pattern {521/311/1}

Atom   0C    basis set group =>   1
Atom   1C    basis set group =>   1
Atom   2C    basis set group =>   1
Atom   3H    basis set group =>   2
Atom   4H    basis set group =>   2
Atom   5C    basis set group =>   1
Atom   6C    basis set group =>   1
Atom   7C    basis set group =>   1
Atom   8H    basis set group =>   2
Atom   9H    basis set group =>   2
Atom  10H    basis set group =>   2
Atom  11H    basis set group =>   2
Atom  12O    basis set group =>   3
Atom  13H    basis set group =>   2
Atom  14C    basis set group =>   1
Atom  15C    basis set group =>   1
Atom  16H    basis set group =>   2
Atom  17H    basis set group =>   2
Atom  18C    basis set group =>   1
Atom  19H    basis set group =>   2
Atom  20C    basis set group =>   1
Atom  21H    basis set group =>   2
Atom  22C    basis set group =>   1
Atom  23C    basis set group =>   1
Atom  24H    basis set group =>   2
Atom  25H    basis set group =>   2
Atom  26C    basis set group =>   1
Atom  27H    basis set group =>   2
Atom  28H    basis set group =>   2
Atom  29C    basis set group =>   1
Atom  30H    basis set group =>   2
Atom  31H    basis set group =>   2
Atom  32C    basis set group =>   1
Atom  33H    basis set group =>   2
Atom  34C    basis set group =>   1
Atom  35H    basis set group =>   2
Atom  36C    basis set group =>   1
Atom  37H    basis set group =>   2
Atom  38H    basis set group =>   2
Atom  39C    basis set group =>   1
Atom  40H    basis set group =>   2
Atom  41H    basis set group =>   2
Atom  42H    basis set group =>   2
Atom  43C    basis set group =>   1
Atom  44C    basis set group =>   1
Atom  45H    basis set group =>   2
Atom  46H    basis set group =>   2
Atom  47H    basis set group =>   2
Atom  48H    basis set group =>   2
Atom  49C    basis set group =>   1
Atom  50C    basis set group =>   1
Atom  51C    basis set group =>   1
Atom  52H    basis set group =>   2
Atom  53H    basis set group =>   2
Atom  54C    basis set group =>   1
Atom  55C    basis set group =>   1
Atom  56C    basis set group =>   1
Atom  57H    basis set group =>   2
Atom  58H    basis set group =>   2
Atom  59C    basis set group =>   1
Atom  60C    basis set group =>   1
Atom  61H    basis set group =>   2
Atom  62H    basis set group =>   2
Atom  63H    basis set group =>   2
Atom  64H    basis set group =>   2
Atom  65H    basis set group =>   2
Atom  66H    basis set group =>   2
Atom  67H    basis set group =>   2
Atom  68H    basis set group =>   2
Atom  69H    basis set group =>   2
Atom  70H    basis set group =>   2
Atom  71H    basis set group =>   2
Atom  72H    basis set group =>   2

-------------------------
BASIS SET IN INPUT FORMAT
-------------------------

 # Basis set for element : H 
 NewGTO H 
 S 3 
   1      12.2518000000      0.0372173893
   2       1.8687100000      0.2538082070
   3       0.4182080000      0.7973867639
 S 1 
   1       0.1061000000      1.0000000000
 P 2 
   1       9.0000000000      0.0402678705
   2       1.0000000000      0.9880231245
  end;

 # Basis set for element : C 
 NewGTO C 
 S 5 
   1    1243.2000000000      0.0056300977
   2     187.1450000000      0.0419506039
   3      42.5126000000      0.1846643605
   4      11.7393000000      0.4665574214
   5       3.5054800000      0.4482347783
 S 2 
   1       5.3908900000     -0.1481148174
   2       0.4933410000      1.0519817143
 S 1 
   1       0.1497410000      1.0000000000
 P 3 
   1      59.6736000000      0.0113906672
   2       9.1805600000      0.1672414929
   3       1.9365800000      0.9041087436
 P 1 
   1       0.5262960000      1.0000000000
 P 1 
   1       0.1363190000      1.0000000000
 D 1 
   1       0.8000000000      1.0000000000
  end;

 # Basis set for element : O 
 NewGTO O 
 S 5 
   1    2288.6400000000      0.0054511382
   2     344.4160000000      0.0407189228
   3      78.2538000000      0.1813694209
   4      21.7195000000      0.4655368202
   5       6.5590700000      0.4512113212
 S 2 
   1      10.4656000000     -0.1502112012
   2       0.9643510000      1.0528679834
 S 1 
   1       0.2851270000      1.0000000000
 P 3 
   1     110.8840000000      0.0113058003
   2      17.0590000000      0.1699226452
   3       3.6899900000      0.9008060328
 P 1 
   1       0.9929960000      1.0000000000
 P 1 
   1       0.2449240000      1.0000000000
 D 1 
   1       1.0000000000      1.0000000000
  end;

---------------------------------
AUXILIARY/J BASIS SET INFORMATION
---------------------------------
There are 3 groups of distinct atoms

 Group   1 Type C   : 12s5p4d2f1g contracted to 6s4p3d1f1g pattern {711111/2111/211/2/1}
 Group   2 Type H   : 5s2p1d contracted to 3s1p1d pattern {311/2/1}
 Group   3 Type O   : 12s5p4d2f1g contracted to 6s4p3d1f1g pattern {711111/2111/211/2/1}

Atom   0C    basis set group =>   1
Atom   1C    basis set group =>   1
Atom   2C    basis set group =>   1
Atom   3H    basis set group =>   2
Atom   4H    basis set group =>   2
Atom   5C    basis set group =>   1
Atom   6C    basis set group =>   1
Atom   7C    basis set group =>   1
Atom   8H    basis set group =>   2
Atom   9H    basis set group =>   2
Atom  10H    basis set group =>   2
Atom  11H    basis set group =>   2
Atom  12O    basis set group =>   3
Atom  13H    basis set group =>   2
Atom  14C    basis set group =>   1
Atom  15C    basis set group =>   1
Atom  16H    basis set group =>   2
Atom  17H    basis set group =>   2
Atom  18C    basis set group =>   1
Atom  19H    basis set group =>   2
Atom  20C    basis set group =>   1
Atom  21H    basis set group =>   2
Atom  22C    basis set group =>   1
Atom  23C    basis set group =>   1
Atom  24H    basis set group =>   2
Atom  25H    basis set group =>   2
Atom  26C    basis set group =>   1
Atom  27H    basis set group =>   2
Atom  28H    basis set group =>   2
Atom  29C    basis set group =>   1
Atom  30H    basis set group =>   2
Atom  31H    basis set group =>   2
Atom  32C    basis set group =>   1
Atom  33H    basis set group =>   2
Atom  34C    basis set group =>   1
Atom  35H    basis set group =>   2
Atom  36C    basis set group =>   1
Atom  37H    basis set group =>   2
Atom  38H    basis set group =>   2
Atom  39C    basis set group =>   1
Atom  40H    basis set group =>   2
Atom  41H    basis set group =>   2
Atom  42H    basis set group =>   2
Atom  43C    basis set group =>   1
Atom  44C    basis set group =>   1
Atom  45H    basis set group =>   2
Atom  46H    basis set group =>   2
Atom  47H    basis set group =>   2
Atom  48H    basis set group =>   2
Atom  49C    basis set group =>   1
Atom  50C    basis set group =>   1
Atom  51C    basis set group =>   1
Atom  52H    basis set group =>   2
Atom  53H    basis set group =>   2
Atom  54C    basis set group =>   1
Atom  55C    basis set group =>   1
Atom  56C    basis set group =>   1
Atom  57H    basis set group =>   2
Atom  58H    basis set group =>   2
Atom  59C    basis set group =>   1
Atom  60C    basis set group =>   1
Atom  61H    basis set group =>   2
Atom  62H    basis set group =>   2
Atom  63H    basis set group =>   2
Atom  64H    basis set group =>   2
Atom  65H    basis set group =>   2
Atom  66H    basis set group =>   2
Atom  67H    basis set group =>   2
Atom  68H    basis set group =>   2
Atom  69H    basis set group =>   2
Atom  70H    basis set group =>   2
Atom  71H    basis set group =>   2
Atom  72H    basis set group =>   2

-------------------------------------
AUXILIARY/J BASIS SET IN INPUT FORMAT
-------------------------------------

 # Auxiliary/J basis set for element : H 
 NewAuxJGTO H 
 S 3 
   1      15.6752927000      0.1007184237
   2       3.6063578000      0.3404257499
   3       1.2080016000      0.6491996172
 S 1 
   1       0.4726794000      1.0000000000
 S 1 
   1       0.2018100000      1.0000000000
 P 2 
   1       2.0281365000      0.5596620919
   2       0.5358730000      0.5596620919
 D 1 
   1       2.2165124000      1.0000000000
  end;

 # Auxiliary/J basis set for element : C 
 NewAuxJGTO C 
 S 7 
   1    1861.0916331000      0.0134602335
   2     642.9939764000      0.0299160374
   3     235.1105725000      0.1008649584
   4      90.7028894000      0.2370970548
   5      36.7794552000      0.3924037254
   6      15.6046273000      0.3195862154
   7       6.8907294000      0.0530104441
 S 1 
   1       3.1478850000     -1.0000000000
 S 1 
   1       1.4777287000      1.0000000000
 S 1 
   1       0.7076466000      1.0000000000
 S 1 
   1       0.3430122000      1.0000000000
 S 1 
   1       0.1669453000      1.0000000000
 P 2 
   1      13.5472892000     -0.6769313712
   2       5.4669419000     -0.3779500978
 P 1 
   1       2.1751721000      1.0000000000
 P 1 
   1       0.8582194000      1.0000000000
 P 1 
   1       0.3376720000      1.0000000000
 D 2 
   1       5.9287253000     -0.3533329857
   2       1.9809209000     -0.7456525731
 D 1 
   1       0.8055417000     -1.0000000000
 D 1 
   1       0.3531244000     -1.0000000000
 F 2 
   1       1.6755626000      0.6311076882
   2       0.5997536000      0.4968166032
 G 1 
   1       1.0024600000     -1.0000000000
  end;

 # Auxiliary/J basis set for element : O 
 NewAuxJGTO O 
 S 7 
   1    2876.8216605000      0.0168151159
   2    1004.7443032000      0.0340137548
   3     369.7579954000      0.1194951309
   4     142.9442404000      0.2664627624
   5      57.8366425000      0.4202764046
   6      24.3864983000      0.2765077335
   7      10.6622662000      0.0057008815
 S 1 
   1       4.8070437000     -1.0000000000
 S 1 
   1       2.2210770000      1.0000000000
 S 1 
   1       1.0447795000      1.0000000000
 S 1 
   1       0.4968425000      1.0000000000
 S 1 
   1       0.2371384000      1.0000000000
 P 2 
   1      64.2613382000     -0.2731534179
   2      16.3006076000     -0.8168011598
 P 1 
   1       4.3550542000      1.0000000000
 P 1 
   1       1.2019554000      1.0000000000
 P 1 
   1       0.3354196000      1.0000000000
 D 2 
   1       9.2146611000     -0.4661230638
   2       2.8435251000     -0.6600908911
 D 1 
   1       0.9955759000     -1.0000000000
 D 1 
   1       0.3649441000     -1.0000000000
 F 2 
   1       2.6420115000      0.5931563945
   2       0.7345613000      0.5931563945
 G 1 
   1       1.3931000000     -1.0000000000
  end;



           ************************************************************
           *        Program running with 4 parallel MPI-processes     *
           *              working on a common directory               *
           ************************************************************
------------------------------------------------------------------------------
                           ORCA GTO INTEGRAL CALCULATION
                           -- RI-GTO INTEGRALS CHOSEN --
------------------------------------------------------------------------------
------------------------------------------------------------------------------
                   ___                                                        
                  /   \      - P O W E R E D   B Y -                         
                 /     \                                                     
                 |  |  |   _    _      __       _____    __    __             
                 |  |  |  | |  | |    /  \     |  _  \  |  |  /  |          
                  \  \/   | |  | |   /    \    | | | |  |  | /  /          
                 / \  \   | |__| |  /  /\  \   | |_| |  |  |/  /          
                |  |  |   |  __  | /  /__\  \  |    /   |      \           
                |  |  |   | |  | | |   __   |  |    \   |  |\   \          
                \     /   | |  | | |  |  |  |  | |\  \  |  | \   \       
                 \___/    |_|  |_| |__|  |__|  |_| \__\ |__|  \__/        
                                                                              
                      - O R C A' S   B I G   F R I E N D -                    
                                      &                                       
                       - I N T E G R A L  F E E D E R -                       
                                                                              
 v1 FN, 2020, v2 2021                                                         
------------------------------------------------------------------------------


Reading SHARK input file inpS.SHARKINP.tmp ... ok
----------------------
SHARK INTEGRAL PACKAGE
----------------------

Number of atoms                             ...     73
Number of basis functions                   ...    713
Number of shells                            ...    335
Maximum angular momentum                    ...      2
Integral batch strategy                     ... SHARK/LIBINT Hybrid
RI-J (if used) integral strategy            ... SPLIT-RIJ (Revised 2003 algorithm where possible)
Printlevel                                  ...      1
Contraction scheme used                     ... SEGMENTED contraction
Coulomb Range Separation                    ... NOT USED
Exchange Range Separation                   ... NOT USED
Finite Nucleus Model                        ... NOT USED
Auxiliary Coulomb fitting basis             ... AVAILABLE
   # of basis functions in Aux-J            ...   1905
   # of shells in Aux-J                     ...    655
   Maximum angular momentum in Aux-J        ...      4
Auxiliary J/K fitting basis                 ... NOT available
Auxiliary Correlation fitting basis         ... NOT available
Auxiliary 'external' fitting basis          ... NOT available
Integral threshold                          ...     3.000000e-11
Primitive cut-off                           ...     1.000000e-12
Primitive pair pre-selection threshold      ...     1.000000e-12

Calculating pre-screening integrals         ... done (  0.0 sec) Dimension = 335
Organizing shell pair data                  ... done (  0.2 sec)
Shell pair information
Total number of shell pairs                 ...     56280
Shell pairs after pre-screening             ...     32146
Total number of primitive shell pairs       ...    225367
Primitive shell pairs kept                  ...     75498
          la=0 lb=0:   9849 shell pairs
          la=1 lb=0:  13221 shell pairs
          la=1 lb=1:   4305 shell pairs
          la=2 lb=0:   2805 shell pairs
          la=2 lb=1:   1768 shell pairs
          la=2 lb=2:    198 shell pairs

Calculating one electron integrals          ... done (  0.1 sec)
Calculating RI/J V-Matrix + Cholesky decomp.... done (  0.1 sec)
Calculating Nuclear repulsion               ... done (  0.0 sec) ENN=   2796.163202587098 Eh

SHARK setup successfully completed in   0.7 seconds

Maximum memory used throughout the entire GTOINT-calculation: 61.6 MB


           ************************************************************
           *        Program running with 4 parallel MPI-processes     *
           *              working on a common directory               *
           ************************************************************
-------------------------------------------------------------------------------
                                 ORCA SCF
-------------------------------------------------------------------------------

------------
SCF SETTINGS
------------
Hamiltonian:
 Density Functional     Method          .... DFT(GTOs)
 Exchange Functional    Exchange        .... revTPSS
 Correlation Functional Correlation     .... revTPSS
 LDA part of GGA corr.  LDAOpt          .... PW91-LDA
 Gradients option       PostSCFGGA      .... off
   Density functional embedding theory  .... OFF
 RI-approximation to the Coulomb term is turned on
   Number of AuxJ basis functions       .... 1905


General Settings:
 Integral files         IntName         .... inpS
 Hartree-Fock type      HFTyp           .... RHF
 Total Charge           Charge          ....    0
 Multiplicity           Mult            ....    1
 Number of Electrons    NEL             ....  220
 Basis Dimension        Dim             ....  713
 Nuclear Repulsion      ENuc            ....   2796.1632025871 Eh

Convergence Acceleration:
 DIIS                   CNVDIIS         .... on
   Start iteration      DIISMaxIt       ....    12
   Startup error        DIISStart       ....  0.200000
   # of expansion vecs  DIISMaxEq       ....     5
   Bias factor          DIISBfac        ....   1.050
   Max. coefficient     DIISMaxC        ....  10.000
 Trust-Rad. Augm. Hess. CNVTRAH         .... auto
   Auto Start mean grad. ratio tolernc. ....  1.125000
   Auto Start start iteration           ....    20
   Auto Start num. interpolation iter.  ....    10
   Max. Number of Micro iterations      ....    16
   Max. Number of Macro iterations      .... Maxiter - #DIIS iter
   Number of Davidson start vectors     ....     2
   Converg. threshold I  (grad. norm)   ....   1.000e-04
   Converg. threshold II (energy diff.) ....   1.000e-07
   Grad. Scal. Fac. for Micro threshold ....   0.100
   Minimum threshold for Micro iter.    ....   0.010
   NR start threshold (gradient norm)   ....   0.001
   Initial trust radius                 ....   0.400
   Minimum AH scaling param. (alpha)    ....   1.000
   Maximum AH scaling param. (alpha)    .... 1000.000
   Orbital update algorithm             .... Taylor
   White noise on init. David. guess    .... on
   Maximum white noise                  ....   0.010
   Quad. conv. algorithm                .... NR
 SOSCF                  CNVSOSCF        .... off
 Level Shifting         CNVShift        .... on
   Level shift para.    LevelShift      ....    0.2500
   Turn off err/grad.   ShiftErr        ....    0.0010
 Zerner damping         CNVZerner       .... off
 Static damping         CNVDamp         .... on
   Fraction old density DampFac         ....    0.7000
   Max. Damping (<1)    DampMax         ....    0.9800
   Min. Damping (>=0)   DampMin         ....    0.0000
   Turn off err/grad.   DampErr         ....    0.1000
 Fernandez-Rico         CNVRico         .... off

SCF Procedure:
 Maximum # iterations   MaxIter         ....   125
 SCF integral mode      SCFMode         .... Direct
   Integral package                     .... SHARK and LIBINT hybrid scheme
 Reset frequency        DirectResetFreq ....    20
 Integral Threshold     Thresh          ....  3.000e-11 Eh
 Primitive CutOff       TCut            ....  1.000e-12 Eh

Convergence Tolerance:
 Convergence Check Mode ConvCheckMode   .... Total+1el-Energy
 Convergence forced     ConvForced      .... 0
 Energy Change          TolE            ....  1.000e-07 Eh
 1-El. energy change                    ....  1.000e-04 Eh
 DIIS Error             TolErr          ....  1.000e-07


Diagonalization of the overlap matrix:
Smallest eigenvalue                        ... 4.970e-04
Time for diagonalization                   ...    0.079 sec
Threshold for overlap eigenvalues          ... 1.000e-08
Number of eigenvalues below threshold      ... 0
Time for construction of square roots      ...    0.089 sec
Total time needed                          ...    0.171 sec

Time for model grid setup =    0.856 sec

------------------------------
INITIAL GUESS: MODEL POTENTIAL
------------------------------
Loading Hartree-Fock densities                     ... done
Calculating cut-offs                               ... done
Initializing the effective Hamiltonian             ... done
Setting up the integral package (SHARK)            ... done
Starting the Coulomb interaction                   ... done (   0.7 sec)
Reading the grid                                   ... done
Mapping shells                                     ... done
Starting the XC term evaluation                    ... done (   0.4 sec)
  promolecular density results
     # of electrons  =    219.982905334
     EX              =   -164.430949022
     EC              =     -7.326004310
     EX+EC           =   -171.756953331
Transforming the Hamiltonian                       ... done (   0.1 sec)
Diagonalizing the Hamiltonian                      ... done (   0.1 sec)
Back transforming the eigenvectors                 ... done (   0.0 sec)
Now organizing SCF variables                       ... done
                      ------------------
                      INITIAL GUESS DONE (   2.0 sec)
                      ------------------
-------------------
DFT GRID GENERATION
-------------------

General Integration Accuracy     IntAcc      ... 4.388
Radial Grid Type                 RadialGrid  ... OptM3 with GC (2021)
Angular Grid (max. ang.)         AngularGrid ... 4 (Lebedev-302)
Angular grid pruning method      GridPruning ... 4 (adaptive)
Weight generation scheme         WeightScheme... Becke
Basis function cutoff            BFCut       ... 1.0000e-11
Integration weight cutoff        WCut        ... 1.0000e-14
Angular grids for H and He will be reduced by one unit
Partially contracted basis set               ... off
Rotationally invariant grid construction     ... off

Total number of grid points                  ...   309758
Total number of batches                      ...     4877
Average number of points per batch           ...       63
Average number of grid points per atom       ...     4243
Time for grid setup =    2.953 sec


--------------------
CPCM SOLVATION MODEL
--------------------
CPCM parameters:
  Epsilon                                         ...       4.9000
  Refrac                                          ...       1.4500
  Rsolv                                           ...       1.3000
  Surface type                                    ... GAUSSIAN VDW
  Epsilon function type                           ...         CPCM
Radii:
 Radius for C  used is    3.8550 Bohr (=   2.0400 Ang.)
 Radius for H  used is    2.4944 Bohr (=   1.3200 Ang.)
 Radius for O  used is    3.4469 Bohr (=   1.8240 Ang.)
Calculating surface                               ...        done! (  0.0s)
GEPOL surface points                              ...         3654
GEPOL Volume                                      ...    3617.2089
GEPOL Surface-area                                ...    1794.7127
Calculating surface distance matrix               ...        done! (  0.1s)
Performing Cholesky decomposition & store         ...        done! (  0.5s)
Overall time for CPCM initialization              ...                 0.6s
--------------
SCF ITERATIONS
--------------
ITER       Energy         Delta-E        Max-DP      RMS-DP      [F,P]     Damp
               ***  Starting incremental Fock matrix formation  ***

  HOMO= 109 E= -1.878 eV LUMO=  7.825 eV gap=   9.702 eV
  0  -1167.5240162554   0.000000000000 0.05223821  0.00083310  0.2614269 0.7000

  HOMO= 109 E= -3.349 eV LUMO=  6.714 eV gap=  10.063 eV
  1  -1167.8969760602  -0.372959804760 0.02897149  0.00061525  0.1017292 0.7000
                               ***Turning on DIIS***

  HOMO= 109 E= -4.322 eV LUMO=  5.824 eV gap=  10.146 eV
  2  -1168.0433573309  -0.146381270716 0.05199167  0.00101315  0.0298783 0.0000

  HOMO= 109 E= -4.950 eV LUMO=  5.232 eV gap=  10.182 eV
  3  -1168.2402972084  -0.196939877505 0.02321854  0.00047649  0.0536017 0.0000

  HOMO= 109 E= -4.988 eV LUMO=  5.195 eV gap=  10.182 eV
  4  -1168.3074348301  -0.067137621724 0.00760196  0.00015231  0.0101646 0.0000

  HOMO= 109 E= -4.938 eV LUMO=  5.251 eV gap=  10.189 eV
  5  -1168.3105149958  -0.003080165665 0.00305265  0.00005673  0.0091572 0.0000

  HOMO= 109 E= -4.918 eV LUMO=  5.268 eV gap=  10.187 eV
  6  -1168.3107884278  -0.000273432063 0.00119581  0.00001925  0.0027164 0.0000

  HOMO= 109 E= -4.920 eV LUMO= -1.537 eV gap=   3.384 eV
  7  -1168.3108081587  -0.000019730839 0.00070742  0.00001172  0.0005673 0.0000

  HOMO= 109 E= -4.919 eV LUMO= -1.535 eV gap=   3.384 eV
  8  -1168.3108111524  -0.000002993753 0.00025446  0.00000287  0.0004110 0.0000

  HOMO= 109 E= -4.917 eV LUMO= -1.533 eV gap=   3.384 eV
  9  -1168.3108117738  -0.000000621417 0.00015111  0.00000158  0.0002449 0.0000

  HOMO= 109 E= -4.917 eV LUMO= -1.533 eV gap=   3.384 eV
 10  -1168.3108120306  -0.000000256759 0.00006948  0.00000072  0.0000973 0.0000

  HOMO= 109 E= -4.917 eV LUMO= -1.534 eV gap=   3.384 eV
 11  -1168.3108120772  -0.000000046577 0.00002894  0.00000029  0.0000394 0.0000

  HOMO= 109 E= -4.917 eV LUMO= -1.533 eV gap=   3.384 eV
 12  -1168.3108120673   0.000000009848 0.00001479  0.00000013  0.0000211 0.0000

  HOMO= 109 E= -4.917 eV LUMO= -1.533 eV gap=   3.384 eV
 13  -1168.3108121003  -0.000000033001 0.00000642  0.00000006  0.0000077 0.0000
                 **** Energy Check signals convergence ****

               *****************************************************
               *                     SUCCESS                       *
               *           SCF CONVERGED AFTER  14 CYCLES          *
               *****************************************************


----------------
TOTAL SCF ENERGY
----------------

Total Energy       :        -1168.31081210 Eh          -31791.35344 eV

Components:
Nuclear Repulsion  :         2796.16320259 Eh           76087.46895 eV
Electronic Energy  :        -3964.47401469 Eh         -107878.82239 eV
One Electron Energy:        -7138.71682338 Eh         -194254.36047 eV
Two Electron Energy:         3174.24280870 Eh           86375.53807 eV
CPCM Dielectric    :           -0.01038997 Eh              -0.28273 eV

Virial components:
Potential Energy   :        -2330.41226232 Eh          -63413.74155 eV
Kinetic Energy     :         1162.10145022 Eh           31622.38811 eV
Virial Ratio       :            2.00534322


DFT components:
N(Alpha)           :      110.000333160885 electrons
N(Beta)            :      110.000333160885 electrons
N(Total)           :      220.000666321770 electrons
E(X)               :     -169.583037317866 Eh       
E(C)               :       -7.442707439078 Eh       
E(XC)              :     -177.025744756944 Eh       
DFET-embed. en.    :        0.000000000000 Eh       
CPCM Solvation Model Properties:
Surface-charge          :           -0.04487266
Charge-correction       :           -0.00002050 Eh              -0.00056 eV
Free-energy (cav+disp)  :  This term is not implemented in the current solvation scheme

---------------
SCF CONVERGENCE
---------------

  Last Energy change         ...    1.6416e-10  Tolerance :   1.0000e-07
  Last MAX-Density change    ...    2.6177e-06  Tolerance :   1.0000e-05
  Last RMS-Density change    ...    2.5995e-08  Tolerance :   1.0000e-06
  Last DIIS Error            ...    3.4688e-06  Tolerance :   1.0000e-07

             **** THE GBW FILE WAS UPDATED (inpS.gbw) ****
             **** DENSITY inpS.scfp WAS UPDATED ****
             **** ENERGY FILE WAS UPDATED (inpS.en.tmp) ****
             **** THE GBW FILE WAS UPDATED (inpS.gbw) ****
             **** DENSITY inpS.scfp WAS UPDATED ****
----------------
ORBITAL ENERGIES
----------------

  NO   OCC          E(Eh)            E(eV) 
   0   2.0000     -18.905505      -514.4450 
   1   2.0000     -10.057023      -273.6655 
   2   2.0000     -10.015874      -272.5458 
   3   2.0000     -10.013405      -272.4786 
   4   2.0000     -10.013392      -272.4782 
   5   2.0000     -10.011384      -272.4236 
   6   2.0000     -10.011347      -272.4226 
   7   2.0000     -10.010224      -272.3921 
   8   2.0000     -10.008476      -272.3445 
   9   2.0000     -10.008240      -272.3380 
  10   2.0000     -10.007763      -272.3251 
  11   2.0000     -10.006829      -272.2996 
  12   2.0000     -10.006827      -272.2996 
  13   2.0000     -10.006577      -272.2928 
  14   2.0000     -10.005317      -272.2585 
  15   2.0000     -10.004779      -272.2439 
  16   2.0000     -10.004067      -272.2245 
  17   2.0000     -10.001020      -272.1416 
  18   2.0000     -10.000026      -272.1145 
  19   2.0000      -9.998681      -272.0780 
  20   2.0000      -9.998435      -272.0713 
  21   2.0000      -9.998426      -272.0710 
  22   2.0000      -9.998362      -272.0692 
  23   2.0000      -9.998247      -272.0661 
  24   2.0000      -9.997540      -272.0469 
  25   2.0000      -9.995703      -271.9969 
  26   2.0000      -9.995097      -271.9804 
  27   2.0000      -9.994658      -271.9685 
  28   2.0000      -9.993449      -271.9356 
  29   2.0000      -0.955780       -26.0081 
  30   2.0000      -0.806991       -21.9593 
  31   2.0000      -0.790960       -21.5231 
  32   2.0000      -0.769991       -20.9525 
  33   2.0000      -0.755940       -20.5702 
  34   2.0000      -0.733922       -19.9710 
  35   2.0000      -0.727328       -19.7916 
  36   2.0000      -0.708329       -19.2746 
  37   2.0000      -0.707940       -19.2640 
  38   2.0000      -0.692901       -18.8548 
  39   2.0000      -0.675387       -18.3782 
  40   2.0000      -0.657823       -17.9003 
  41   2.0000      -0.655102       -17.8262 
  42   2.0000      -0.634811       -17.2741 
  43   2.0000      -0.628181       -17.0937 
  44   2.0000      -0.623294       -16.9607 
  45   2.0000      -0.616045       -16.7634 
  46   2.0000      -0.589772       -16.0485 
  47   2.0000      -0.583233       -15.8706 
  48   2.0000      -0.559342       -15.2205 
  49   2.0000      -0.548907       -14.9365 
  50   2.0000      -0.547459       -14.8971 
  51   2.0000      -0.539066       -14.6687 
  52   2.0000      -0.526346       -14.3226 
  53   2.0000      -0.512019       -13.9328 
  54   2.0000      -0.496945       -13.5226 
  55   2.0000      -0.475173       -12.9301 
  56   2.0000      -0.472766       -12.8646 
  57   2.0000      -0.463899       -12.6233 
  58   2.0000      -0.451137       -12.2761 
  59   2.0000      -0.443352       -12.0642 
  60   2.0000      -0.433097       -11.7852 
  61   2.0000      -0.425167       -11.5694 
  62   2.0000      -0.417143       -11.3510 
  63   2.0000      -0.414727       -11.2853 
  64   2.0000      -0.413118       -11.2415 
  65   2.0000      -0.407286       -11.0828 
  66   2.0000      -0.400797       -10.9062 
  67   2.0000      -0.399713       -10.8767 
  68   2.0000      -0.395572       -10.7641 
  69   2.0000      -0.389110       -10.5882 
  70   2.0000      -0.386946       -10.5293 
  71   2.0000      -0.382877       -10.4186 
  72   2.0000      -0.377840       -10.2815 
  73   2.0000      -0.371776       -10.1165 
  74   2.0000      -0.370357       -10.0779 
  75   2.0000      -0.367265        -9.9938 
  76   2.0000      -0.359528        -9.7833 
  77   2.0000      -0.356739        -9.7074 
  78   2.0000      -0.352961        -9.6046 
  79   2.0000      -0.348199        -9.4750 
  80   2.0000      -0.345781        -9.4092 
  81   2.0000      -0.343773        -9.3545 
  82   2.0000      -0.341671        -9.2973 
  83   2.0000      -0.337133        -9.1739 
  84   2.0000      -0.334125        -9.0920 
  85   2.0000      -0.330454        -8.9921 
  86   2.0000      -0.323772        -8.8103 
  87   2.0000      -0.320624        -8.7246 
  88   2.0000      -0.319390        -8.6910 
  89   2.0000      -0.313372        -8.5273 
  90   2.0000      -0.309760        -8.4290 
  91   2.0000      -0.305781        -8.3207 
  92   2.0000      -0.304538        -8.2869 
  93   2.0000      -0.294221        -8.0062 
  94   2.0000      -0.289476        -7.8770 
  95   2.0000      -0.285662        -7.7733 
  96   2.0000      -0.283429        -7.7125 
  97   2.0000      -0.282677        -7.6920 
  98   2.0000      -0.280154        -7.6234 
  99   2.0000      -0.278579        -7.5805 
 100   2.0000      -0.275822        -7.5055 
 101   2.0000      -0.272369        -7.4115 
 102   2.0000      -0.269727        -7.3396 
 103   2.0000      -0.266451        -7.2505 
 104   2.0000      -0.260445        -7.0871 
 105   2.0000      -0.248341        -6.7577 
 106   2.0000      -0.233374        -6.3504 
 107   2.0000      -0.227212        -6.1828 
 108   2.0000      -0.212971        -5.7952 
 109   2.0000      -0.180706        -4.9173 
 110   0.0000      -0.056354        -1.5335 
 111   0.0000      -0.012961        -0.3527 
 112   0.0000      -0.007379        -0.2008 
 113   0.0000       0.031739         0.8637 
 114   0.0000       0.039755         1.0818 
 115   0.0000       0.042821         1.1652 
 116   0.0000       0.045826         1.2470 
 117   0.0000       0.048507         1.3199 
 118   0.0000       0.051694         1.4067 
 119   0.0000       0.057208         1.5567 
 120   0.0000       0.059629         1.6226 
 121   0.0000       0.068116         1.8535 
 122   0.0000       0.071823         1.9544 
 123   0.0000       0.073021         1.9870 
 124   0.0000       0.074804         2.0355 
 125   0.0000       0.079268         2.1570 
 126   0.0000       0.084669         2.3039 
 127   0.0000       0.087821         2.3897 
 128   0.0000       0.090286         2.4568 
 129   0.0000       0.092168         2.5080 
 130   0.0000       0.099470         2.7067 
 131   0.0000       0.101354         2.7580 
 132   0.0000       0.103501         2.8164 
 133   0.0000       0.105148         2.8612 
 134   0.0000       0.105983         2.8839 
 135   0.0000       0.113335         3.0840 
 136   0.0000       0.115398         3.1401 
 137   0.0000       0.116701         3.1756 
 138   0.0000       0.122676         3.3382 
 139   0.0000       0.125073         3.4034 
 140   0.0000       0.128095         3.4856 
 141   0.0000       0.129742         3.5304 
 142   0.0000       0.131497         3.5782 
 143   0.0000       0.135423         3.6850 
 144   0.0000       0.137925         3.7531 
 145   0.0000       0.138995         3.7822 
 146   0.0000       0.141544         3.8516 
 147   0.0000       0.145858         3.9690 
 148   0.0000       0.147498         4.0136 
 149   0.0000       0.148860         4.0507 
 150   0.0000       0.156906         4.2696 
 151   0.0000       0.160156         4.3581 
 152   0.0000       0.163342         4.4448 
 153   0.0000       0.166590         4.5331 
 154   0.0000       0.170080         4.6281 
 155   0.0000       0.171868         4.6768 
 156   0.0000       0.175557         4.7772 
 157   0.0000       0.176483         4.8024 
 158   0.0000       0.181851         4.9484 
 159   0.0000       0.185895         5.0585 
 160   0.0000       0.189720         5.1625 
 161   0.0000       0.192829         5.2471 
 162   0.0000       0.195853         5.3294 
 163   0.0000       0.200910         5.4670 
 164   0.0000       0.201982         5.4962 
 165   0.0000       0.205699         5.5973 
 166   0.0000       0.207126         5.6362 
 167   0.0000       0.213847         5.8191 
 168   0.0000       0.215719         5.8700 
 169   0.0000       0.219279         5.9669 
 170   0.0000       0.226500         6.1634 
 171   0.0000       0.227987         6.2038 
 172   0.0000       0.229857         6.2547 
 173   0.0000       0.233418         6.3516 
 174   0.0000       0.244431         6.6513 
 175   0.0000       0.249328         6.7846 
 176   0.0000       0.256339         6.9753 
 177   0.0000       0.261209         7.1079 
 178   0.0000       0.263013         7.1569 
 179   0.0000       0.272334         7.4106 
 180   0.0000       0.274546         7.4708 
 181   0.0000       0.287902         7.8342 
 182   0.0000       0.289436         7.8760 
 183   0.0000       0.294641         8.0176 
 184   0.0000       0.297971         8.1082 
 185   0.0000       0.332435         9.0460 
 186   0.0000       0.337457         9.1827 
 187   0.0000       0.340616         9.2686 
 188   0.0000       0.348150         9.4737 
 189   0.0000       0.351726         9.5710 
 190   0.0000       0.354339         9.6421 
 191   0.0000       0.360510         9.8100 
 192   0.0000       0.362817         9.8728 
 193   0.0000       0.370336        10.0774 
 194   0.0000       0.372266        10.1299 
 195   0.0000       0.374570        10.1926 
 196   0.0000       0.379726        10.3329 
 197   0.0000       0.387187        10.5359 
 198   0.0000       0.390636        10.6297 
 199   0.0000       0.397809        10.8249 
 200   0.0000       0.400346        10.8940 
 201   0.0000       0.406935        11.0733 
 202   0.0000       0.411596        11.2001 
 203   0.0000       0.416978        11.3466 
 204   0.0000       0.422303        11.4914 
 205   0.0000       0.430583        11.7168 
 206   0.0000       0.436228        11.8704 
 207   0.0000       0.438373        11.9287 
 208   0.0000       0.448293        12.1987 
 209   0.0000       0.454942        12.3796 
 210   0.0000       0.460901        12.5417 
 211   0.0000       0.463463        12.6115 
 212   0.0000       0.473173        12.8757 
 213   0.0000       0.478633        13.0243 
 214   0.0000       0.482310        13.1243 
 215   0.0000       0.483071        13.1450 
 216   0.0000       0.488856        13.3024 
 217   0.0000       0.492417        13.3993 
 218   0.0000       0.493585        13.4311 
 219   0.0000       0.504062        13.7162 
 220   0.0000       0.507244        13.8028 
 221   0.0000       0.510626        13.8948 
 222   0.0000       0.520767        14.1708 
 223   0.0000       0.528013        14.3680 
 224   0.0000       0.531120        14.4525 
 225   0.0000       0.537859        14.6359 
 226   0.0000       0.539576        14.6826 
 227   0.0000       0.543189        14.7809 
 228   0.0000       0.544729        14.8228 
 229   0.0000       0.549159        14.9434 
 230   0.0000       0.552897        15.0451 
 231   0.0000       0.555564        15.1177 
 232   0.0000       0.557149        15.1608 
 233   0.0000       0.565406        15.3855 
 234   0.0000       0.566729        15.4215 
 235   0.0000       0.568808        15.4781 
 236   0.0000       0.574637        15.6367 
 237   0.0000       0.576342        15.6831 
 238   0.0000       0.577547        15.7159 
 239   0.0000       0.578661        15.7462 
 240   0.0000       0.582634        15.8543 
 241   0.0000       0.585752        15.9391 
 242   0.0000       0.586046        15.9471 
 243   0.0000       0.588986        16.0271 
 244   0.0000       0.591177        16.0867 
 245   0.0000       0.593572        16.1519 
 246   0.0000       0.598668        16.2906 
 247   0.0000       0.600079        16.3290 
 248   0.0000       0.601897        16.3784 
 249   0.0000       0.604371        16.4458 
 250   0.0000       0.607978        16.5439 
 251   0.0000       0.609585        16.5877 
 252   0.0000       0.612288        16.6612 
 253   0.0000       0.615372        16.7451 
 254   0.0000       0.617892        16.8137 
 255   0.0000       0.621130        16.9018 
 256   0.0000       0.624073        16.9819 
 257   0.0000       0.625742        17.0273 
 258   0.0000       0.628826        17.1112 
 259   0.0000       0.629902        17.1405 
 260   0.0000       0.634257        17.2590 
 261   0.0000       0.635595        17.2954 
 262   0.0000       0.638856        17.3841 
 263   0.0000       0.642700        17.4888 
 264   0.0000       0.643918        17.5219 
 265   0.0000       0.647367        17.6158 
 266   0.0000       0.650840        17.7103 
 267   0.0000       0.653476        17.7820 
 268   0.0000       0.657078        17.8800 
 269   0.0000       0.658102        17.9079 
 270   0.0000       0.661585        18.0026 
 271   0.0000       0.664792        18.0899 
 272   0.0000       0.667447        18.1622 
 273   0.0000       0.668818        18.1995 
 274   0.0000       0.675157        18.3720 
 275   0.0000       0.676100        18.3976 
 276   0.0000       0.681146        18.5349 
 277   0.0000       0.685555        18.6549 
 278   0.0000       0.690996        18.8030 
 279   0.0000       0.693687        18.8762 
 280   0.0000       0.695496        18.9254 
 281   0.0000       0.701777        19.0963 
 282   0.0000       0.705861        19.2075 
 283   0.0000       0.708302        19.2739 
 284   0.0000       0.716408        19.4944 
 285   0.0000       0.718641        19.5552 
 286   0.0000       0.722090        19.6491 
 287   0.0000       0.724704        19.7202 
 288   0.0000       0.736743        20.0478 
 289   0.0000       0.737474        20.0677 
 290   0.0000       0.744483        20.2584 
 291   0.0000       0.747091        20.3294 
 292   0.0000       0.755596        20.5608 
 293   0.0000       0.756842        20.5947 
 294   0.0000       0.762938        20.7606 
 295   0.0000       0.771172        20.9847 
 296   0.0000       0.773639        21.0518 
 297   0.0000       0.778003        21.1706 
 298   0.0000       0.787258        21.4224 
 299   0.0000       0.796209        21.6660 
 300   0.0000       0.810111        22.0442 
 301   0.0000       0.818423        22.2704 
 302   0.0000       0.833425        22.6787 
 303   0.0000       0.836351        22.7583 
 304   0.0000       0.844556        22.9815 
 305   0.0000       0.856083        23.2952 
 306   0.0000       0.857428        23.3318 
 307   0.0000       0.873314        23.7641 
 308   0.0000       0.888128        24.1672 
 309   0.0000       0.906291        24.6614 
 310   0.0000       0.916942        24.9513 
 311   0.0000       0.936710        25.4892 
 312   0.0000       0.938673        25.5426 
 313   0.0000       0.952356        25.9149 
 314   0.0000       0.969697        26.3868 
 315   0.0000       0.979474        26.6528 
 316   0.0000       0.995798        27.0970 
 317   0.0000       1.020944        27.7813 
 318   0.0000       1.031800        28.0767 
 319   0.0000       1.039123        28.2760 
 320   0.0000       1.049083        28.5470 
 321   0.0000       1.064396        28.9637 
 322   0.0000       1.074200        29.2305 
 323   0.0000       1.075924        29.2774 
 324   0.0000       1.118919        30.4473 
 325   0.0000       1.127044        30.6684 
 326   0.0000       1.134531        30.8722 
 327   0.0000       1.145400        31.1679 
 328   0.0000       1.166896        31.7529 
 329   0.0000       1.188693        32.3460 
 330   0.0000       1.197729        32.5919 
 331   0.0000       1.203350        32.7448 
 332   0.0000       1.226433        33.3729 
 333   0.0000       1.246223        33.9115 
 334   0.0000       1.260660        34.3043 
 335   0.0000       1.268464        34.5167 
 336   0.0000       1.273925        34.6653 
 337   0.0000       1.283888        34.9364 
 338   0.0000       1.286734        35.0138 
 339   0.0000       1.305750        35.5313 
 340   0.0000       1.321383        35.9567 
 341   0.0000       1.337759        36.4023 
 342   0.0000       1.352072        36.7917 
 343   0.0000       1.360182        37.0124 
 344   0.0000       1.367882        37.2220 
 345   0.0000       1.375760        37.4363 
 346   0.0000       1.386854        37.7382 
 347   0.0000       1.399610        38.0853 
 348   0.0000       1.412429        38.4341 
 349   0.0000       1.413504        38.4634 
 350   0.0000       1.431948        38.9653 
 351   0.0000       1.436003        39.0756 
 352   0.0000       1.442082        39.2410 
 353   0.0000       1.450755        39.4771 
 354   0.0000       1.457239        39.6535 
 355   0.0000       1.466147        39.8959 
 356   0.0000       1.470287        40.0085 
 357   0.0000       1.497419        40.7468 
 358   0.0000       1.507214        41.0134 
 359   0.0000       1.514123        41.2014 
 360   0.0000       1.516048        41.2538 
 361   0.0000       1.521550        41.4035 
 362   0.0000       1.530610        41.6500 
 363   0.0000       1.545940        42.0672 
 364   0.0000       1.550024        42.1783 
 365   0.0000       1.561784        42.4983 
 366   0.0000       1.568493        42.6809 
 367   0.0000       1.576916        42.9101 
 368   0.0000       1.595702        43.4213 
 369   0.0000       1.602537        43.6073 
 370   0.0000       1.610419        43.8217 
 371   0.0000       1.621325        44.1185 
 372   0.0000       1.628252        44.3070 
 373   0.0000       1.635220        44.4966 
 374   0.0000       1.642833        44.7038 
 375   0.0000       1.653353        44.9900 
 376   0.0000       1.656659        45.0800 
 377   0.0000       1.669684        45.4344 
 378   0.0000       1.677508        45.6473 
 379   0.0000       1.683817        45.8190 
 380   0.0000       1.689511        45.9739 
 381   0.0000       1.698943        46.2306 
 382   0.0000       1.699956        46.2582 
 383   0.0000       1.702813        46.3359 
 384   0.0000       1.718497        46.7627 
 385   0.0000       1.724663        46.9305 
 386   0.0000       1.727485        47.0073 
 387   0.0000       1.730915        47.1006 
 388   0.0000       1.736183        47.2439 
 389   0.0000       1.738950        47.3192 
 390   0.0000       1.742421        47.4137 
 391   0.0000       1.751315        47.6557 
 392   0.0000       1.754217        47.7347 
 393   0.0000       1.764849        48.0240 
 394   0.0000       1.770187        48.1692 
 395   0.0000       1.772154        48.2228 
 396   0.0000       1.780210        48.4420 
 397   0.0000       1.782705        48.5099 
 398   0.0000       1.787005        48.6269 
 399   0.0000       1.789423        48.6927 
 400   0.0000       1.798863        48.9495 
 401   0.0000       1.801515        49.0217 
 402   0.0000       1.804807        49.1113 
 403   0.0000       1.810770        49.2736 
 404   0.0000       1.819608        49.5140 
 405   0.0000       1.825677        49.6792 
 406   0.0000       1.835355        49.9425 
 407   0.0000       1.837071        49.9892 
 408   0.0000       1.846848        50.2553 
 409   0.0000       1.857048        50.5328 
 410   0.0000       1.858546        50.5736 
 411   0.0000       1.868452        50.8432 
 412   0.0000       1.874092        50.9966 
 413   0.0000       1.880484        51.1706 
 414   0.0000       1.892310        51.4924 
 415   0.0000       1.897835        51.6427 
 416   0.0000       1.902125        51.7594 
 417   0.0000       1.904260        51.8176 
 418   0.0000       1.906648        51.8825 
 419   0.0000       1.915505        52.1235 
 420   0.0000       1.922607        52.3168 
 421   0.0000       1.936066        52.6830 
 422   0.0000       1.940137        52.7938 
 423   0.0000       1.945813        52.9483 
 424   0.0000       1.950227        53.0684 
 425   0.0000       1.952517        53.1307 
 426   0.0000       1.960658        53.3522 
 427   0.0000       1.968947        53.5778 
 428   0.0000       1.970586        53.6224 
 429   0.0000       1.972327        53.6697 
 430   0.0000       1.981089        53.9082 
 431   0.0000       1.985302        54.0228 
 432   0.0000       1.988984        54.1230 
 433   0.0000       1.994830        54.2821 
 434   0.0000       1.996817        54.3362 
 435   0.0000       2.001576        54.4657 
 436   0.0000       2.009459        54.6802 
 437   0.0000       2.012462        54.7619 
 438   0.0000       2.014027        54.8045 
 439   0.0000       2.020213        54.9728 
 440   0.0000       2.026338        55.1395 
 441   0.0000       2.028828        55.2072 
 442   0.0000       2.038256        55.4638 
 443   0.0000       2.044377        55.6303 
[...]

 --------------
 Nucleus  47H :
 --------------

Diamagnetic contribution to the shielding tensor (ppm) : 
            31.070          2.951        -0.221
             0.654         49.224        -5.421
             1.808         -4.299        40.249

Paramagnetic contribution to the shielding tensor (ppm): 
            -2.573         -2.631         1.029
            -0.279        -16.554         1.952
            -1.557          0.845        -7.577

Total shielding tensor (ppm): 
            28.498          0.320         0.809
             0.375         32.670        -3.470
             0.251         -3.454        32.671


 Diagonalized sT*s matrix:
 
 sDSO            31.638           39.349           49.557  iso=      40.181
 sPSO            -3.501           -9.781          -13.422  iso=      -8.901
        ---------------  ---------------  ---------------
 Total           28.136           29.568           36.134  iso=      31.280

 --------------
 Nucleus  48H :
 --------------

Diamagnetic contribution to the shielding tensor (ppm) : 
            35.370         -0.229        -0.855
            -4.025         40.609        -7.056
             1.744         -2.550        40.839

Paramagnetic contribution to the shielding tensor (ppm): 
            -4.142          1.198         1.215
             4.391        -13.282         4.446
            -1.849          0.641        -9.889

Total shielding tensor (ppm): 
            31.229          0.968         0.360
             0.366         27.326        -2.609
            -0.106         -1.909        30.950


 Diagonalized sT*s matrix:
 
 sDSO            37.401           35.783           43.635  iso=      38.939
 sPSO           -11.243           -4.509          -11.562  iso=      -9.104
        ---------------  ---------------  ---------------
 Total           26.158           31.274           32.073  iso=      29.835

 --------------
 Nucleus  52H :
 --------------

Diamagnetic contribution to the shielding tensor (ppm) : 
            40.207          2.291        -6.378
             5.075         29.203        -6.601
            -3.351         -3.912        41.088

Paramagnetic contribution to the shielding tensor (ppm): 
           -13.437         -0.467         8.249
            -2.696         -3.860         8.756
             4.500          5.489       -14.798

Total shielding tensor (ppm): 
            26.770          1.824         1.871
             2.379         25.342         2.155
             1.149          1.577        26.290


 Diagonalized sT*s matrix:
 
 sDSO            31.935           45.230           33.333  iso=      36.833
 sPSO            -8.357          -20.227           -3.512  iso=     -10.699
        ---------------  ---------------  ---------------
 Total           23.579           25.003           29.821  iso=      26.134

 --------------
 Nucleus  53H :
 --------------

Diamagnetic contribution to the shielding tensor (ppm) : 
            43.772          4.206        -5.553
             4.985         40.956        -3.018
            -5.870          0.159        41.516

Paramagnetic contribution to the shielding tensor (ppm): 
           -14.911         -1.882        11.462
            -2.500        -15.485         7.179
            10.269          2.500       -16.608

Total shielding tensor (ppm): 
            28.860          2.324         5.909
             2.484         25.471         4.161
             4.399          2.659        24.908


 Diagonalized sT*s matrix:
 
 sDSO            48.221           38.080           39.943  iso=      42.081
 sPSO           -27.466          -13.783           -5.754  iso=     -15.668
        ---------------  ---------------  ---------------
 Total           20.754           24.297           34.188  iso=      26.413

 --------------
 Nucleus  57H :
 --------------

Diamagnetic contribution to the shielding tensor (ppm) : 
            39.524          2.999        -5.537
             5.284         18.070        -3.028
            -5.468         -3.334        42.767

Paramagnetic contribution to the shielding tensor (ppm): 
            -8.933         -3.428         2.716
            -5.572          9.947         3.416
             3.645          3.610       -11.521

Total shielding tensor (ppm): 
            30.591         -0.429        -2.821
            -0.288         28.017         0.389
            -1.823          0.275        31.246


 Diagonalized sT*s matrix:
 
 sDSO            19.543           35.160           45.658  iso=      33.454
 sPSO             8.425           -6.581          -12.351  iso=      -3.502
        ---------------  ---------------  ---------------
 Total           27.968           28.578           33.308  iso=      29.951

 --------------
 Nucleus  58H :
 --------------

Diamagnetic contribution to the shielding tensor (ppm) : 
            39.331          9.318         3.931
            16.486         16.730         7.080
             1.560          1.781        29.833

Paramagnetic contribution to the shielding tensor (ppm): 
            -4.964         -6.345        -1.933
           -12.938         12.903        -6.076
             0.585         -1.173        -2.692

Total shielding tensor (ppm): 
            34.367          2.973         1.998
             3.548         29.633         1.005
             2.144          0.608        27.141


 Diagonalized sT*s matrix:
 
 sDSO            29.136           10.445           46.313  iso=      28.631
 sPSO            -2.549           17.560           -9.763  iso=       1.749
        ---------------  ---------------  ---------------
 Total           26.587           28.005           36.549  iso=      30.381

 --------------
 Nucleus  61H :
 --------------

Diamagnetic contribution to the shielding tensor (ppm) : 
            32.570         -6.255         2.884
           -17.586         23.761       -10.775
            -2.929          0.640        24.623

Paramagnetic contribution to the shielding tensor (ppm): 
            -2.414          2.278        -1.819
            13.049         10.501        12.757
             3.703          0.658         3.314

Total shielding tensor (ppm): 
            30.157         -3.977         1.065
            -4.538         34.262         1.982
             0.774          1.298        27.937


 Diagonalized sT*s matrix:
 
 sDSO            23.906           21.334           35.714  iso=      26.985
 sPSO             2.106            7.983            1.313  iso=       3.801
        ---------------  ---------------  ---------------
 Total           26.012           29.317           37.027  iso=      30.785

 --------------
 Nucleus  62H :
 --------------

Diamagnetic contribution to the shielding tensor (ppm) : 
            32.568          3.866        -2.472
            -2.813         17.611       -11.125
            -3.836        -13.692        38.770

Paramagnetic contribution to the shielding tensor (ppm): 
            -3.500         -4.524         2.273
             2.083         12.220         7.489
             2.676         11.141        -6.056

Total shielding tensor (ppm): 
            29.068         -0.658        -0.199
            -0.729         29.830        -3.636
            -1.160         -2.551        32.715


 Diagonalized sT*s matrix:
 
 sDSO            16.066           28.634           44.248  iso=      29.650
 sPSO            11.270            0.950           -9.556  iso=       0.888
        ---------------  ---------------  ---------------
 Total           27.336           29.585           34.692  iso=      30.538

 --------------
 Nucleus  63H :
 --------------

Diamagnetic contribution to the shielding tensor (ppm) : 
            39.910          4.023         9.043
             4.135          5.481        -2.570
             4.830         -0.949        27.101

Paramagnetic contribution to the shielding tensor (ppm): 
            -3.580         -3.408        -4.587
            -4.331         22.426         2.248
            -0.073          1.689         1.055

Total shielding tensor (ppm): 
            36.330          0.615         4.456
            -0.196         27.906        -0.322
             4.757          0.740        28.156


 Diagonalized sT*s matrix:
 
 sDSO            24.348            5.033           43.110  iso=      24.164
 sPSO             1.731           22.872           -4.703  iso=       6.634
        ---------------  ---------------  ---------------
 Total           26.079           27.905           38.408  iso=      30.797

 --------------
 Nucleus  64H :
 --------------

Diamagnetic contribution to the shielding tensor (ppm) : 
            22.606         -0.580        -2.349
             6.365         33.587        13.570
             4.683          9.483        32.633

Paramagnetic contribution to the shielding tensor (ppm): 
             4.709         -0.070         1.334
            -6.517         -0.025        -8.597
            -5.691         -4.232        -0.424

Total shielding tensor (ppm): 
            27.315         -0.650        -1.015
            -0.151         33.561         4.972
            -1.008          5.250        32.209


 Diagonalized sT*s matrix:
 
 sDSO            21.973           22.922           43.931  iso=      29.609
 sPSO             4.952            5.112           -5.803  iso=       1.420
        ---------------  ---------------  ---------------
 Total           26.925           28.034           38.128  iso=      31.029

 --------------
 Nucleus  65H :
 --------------

Diamagnetic contribution to the shielding tensor (ppm) : 
            26.005          0.781         1.744
             8.651         24.453         0.791
             3.803         -8.338        40.395

Paramagnetic contribution to the shielding tensor (ppm): 
             1.112         -2.206        -1.495
           -10.741          4.704        -2.490
            -2.608          5.432        -5.010

Total shielding tensor (ppm): 
            27.117         -1.425         0.249
            -2.090         29.156        -1.699
             1.194         -2.906        35.385


 Diagonalized sT*s matrix:
 
 sDSO            29.913           20.034           40.905  iso=      30.284
 sPSO            -3.843            9.240           -4.591  iso=       0.269
        ---------------  ---------------  ---------------
 Total           26.071           29.275           36.314  iso=      30.553

 --------------
 Nucleus  66H :
 --------------

Diamagnetic contribution to the shielding tensor (ppm) : 
            40.221          2.433        -4.018
            14.600         29.587         7.203
            -0.356          5.314        38.229

Paramagnetic contribution to the shielding tensor (ppm): 
            -4.029          0.340         4.086
           -11.956         -1.533        -4.685
            -0.072         -3.346        -9.075

Total shielding tensor (ppm): 
            36.192          2.773         0.067
             2.644         28.054         2.518
            -0.428          1.968        29.154


 Diagonalized sT*s matrix:
 
 sDSO            23.614           40.305           44.118  iso=      36.012
 sPSO             2.175           -9.736           -7.076  iso=      -4.879
        ---------------  ---------------  ---------------
 Total           25.789           30.569           37.042  iso=      31.133

 --------------
 Nucleus  67H :
 --------------

Diamagnetic contribution to the shielding tensor (ppm) : 
            37.177          1.935         4.667
            16.241         40.950         3.869
             6.386         -5.788        30.797

Paramagnetic contribution to the shielding tensor (ppm): 
            -3.391         -0.252        -0.896
           -14.761         -9.854        -4.053
            -2.504          5.807        -3.000

Total shielding tensor (ppm): 
            33.786          1.683         3.771
             1.481         31.097        -0.184
             3.882          0.020        27.798


 Diagonalized sT*s matrix:
 
 sDSO            26.454           38.010           44.461  iso=      36.308
 sPSO            -0.636           -7.190           -8.417  iso=      -5.415
        ---------------  ---------------  ---------------
 Total           25.817           30.819           36.044  iso=      30.893

 --------------
 Nucleus  68H :
 --------------

Diamagnetic contribution to the shielding tensor (ppm) : 
            29.212          3.071        -6.516
            14.263         28.520         2.008
            -6.798         -4.912        37.548

Paramagnetic contribution to the shielding tensor (ppm): 
            -0.293         -1.575         3.612
           -12.119          1.523        -5.645
             2.990          2.049        -3.765

Total shielding tensor (ppm): 
            28.919          1.496        -2.904
             2.144         30.042        -3.636
            -3.808         -2.863        33.783


 Diagonalized sT*s matrix:
 
 sDSO            23.937           28.378           42.964  iso=      31.760
 sPSO             3.252           -0.206           -5.582  iso=      -0.845
        ---------------  ---------------  ---------------
 Total           27.190           28.173           37.382  iso=      30.915

 --------------
 Nucleus  69H :
 --------------

Diamagnetic contribution to the shielding tensor (ppm) : 
            25.048         -0.535        -0.528
            11.073         42.951         9.390
            -3.460          1.772        24.600

Paramagnetic contribution to the shielding tensor (ppm): 
             1.743         -0.225         0.424
           -11.194         -5.119        -8.618
             3.917         -1.672         3.218

Total shielding tensor (ppm): 
            26.791         -0.760        -0.104
            -0.121         37.831         0.773
             0.456          0.100        27.818


 Diagonalized sT*s matrix:
 
 sDSO            26.141           23.386           43.072  iso=      30.866
 sPSO             0.598            4.449           -5.205  iso=      -0.053
        ---------------  ---------------  ---------------
 Total           26.738           27.835           37.867  iso=      30.813

 --------------
 Nucleus  70H :
 --------------

Diamagnetic contribution to the shielding tensor (ppm) : 
            35.472         -7.189        -8.205
           -14.443         28.362        -1.642
            -9.401          3.967        29.680

Paramagnetic contribution to the shielding tensor (ppm): 
            -1.783          5.500         3.517
            12.295          0.729         5.126
             4.937         -1.412        -0.220

Total shielding tensor (ppm): 
            33.689         -1.689        -4.688
            -2.148         29.091         3.483
            -4.464          2.555        29.460


 Diagonalized sT*s matrix:
 
 sDSO            28.100           19.032           46.383  iso=      31.172
 sPSO            -2.475            9.738           -8.538  iso=      -0.425
        ---------------  ---------------  ---------------
 Total           25.625           28.770           37.844  iso=      30.747

 --------------
 Nucleus  71H :
 --------------

Diamagnetic contribution to the shielding tensor (ppm) : 
            32.196          2.367         4.256
            -6.963         41.308         6.664
             0.799          7.483        33.818

Paramagnetic contribution to the shielding tensor (ppm): 
            -0.110         -1.812        -4.194
             8.769        -10.815        -1.149
             0.119         -2.635        -5.503

Total shielding tensor (ppm): 
            32.086          0.555         0.061
             1.806         30.493         5.515
             0.917          4.848        28.315


 Diagonalized sT*s matrix:
 
 sDSO            30.232           33.838           43.252  iso=      35.774
 sPSO            -6.139           -2.220           -8.068  iso=      -5.476
        ---------------  ---------------  ---------------
 Total           24.093           31.618           35.184  iso=      30.298

 --------------
 Nucleus  72H :
 --------------

Diamagnetic contribution to the shielding tensor (ppm) : 
            28.923         -6.596         1.061
           -14.042         41.446        -8.087
            -0.572         -7.078        32.878

Paramagnetic contribution to the shielding tensor (ppm): 
             1.893          3.997        -0.157
            11.920         -8.007         5.539
             0.684          5.002        -3.414

Total shielding tensor (ppm): 
            30.815         -2.599         0.904
            -2.122         33.439        -2.548
             0.112         -2.076        29.464


 Diagonalized sT*s matrix:
 
 sDSO            25.614           27.680           49.953  iso=      34.415
 sPSO             2.626            2.141          -14.297  iso=      -3.176
        ---------------  ---------------  ---------------
 Total           28.240           29.821           35.656  iso=      31.239



--------------------------------
CHEMICAL SHIELDING SUMMARY (ppm)
--------------------------------


  Nucleus  Element    Isotropic     Anisotropy
  -------  -------  ------------   ------------
      3       H           29.638          5.421 
      4       H           29.129          5.296 
      8       H           29.569          6.406 
      9       H           29.430          7.739 
     10       H           29.631          8.815 
     11       H           30.532          6.218 
     13       H           28.185          2.722 
     16       H           26.855          5.080 
     17       H           26.519          5.002 
     19       H           25.446         10.750 
     21       H           25.702         15.099 
     24       H           28.884          9.986 
     25       H           29.971          9.373 
     27       H           30.220          7.331 
     28       H           30.153         11.840 
     30       H           29.735          8.009 
     31       H           30.400          6.801 
     33       H           29.766          3.837 
     35       H           31.124         14.843 
     37       H           30.358         10.461 
     38       H           30.300          9.376 
     40       H           29.576         12.017 
     41       H           30.671          7.754 
     42       H           30.172          6.740 
     45       H           31.047          8.251 
     46       H           31.297          9.588 
     47       H           31.280          7.282 
     48       H           29.835          3.357 
     52       H           26.134          5.530 
     53       H           26.413         11.662 
     57       H           29.951          5.035 
     58       H           30.381          9.253 
     61       H           30.785          9.363 
     62       H           30.538          6.232 
     63       H           30.797         11.416 
     64       H           31.029         10.649 
     65       H           30.553          8.641 
     66       H           31.133          8.863 
     67       H           30.893          7.725 
     68       H           30.915          9.701 
     69       H           30.813         10.580 
     70       H           30.747         10.647 
     71       H           30.298          7.329 
     72       H           31.239          6.625 



Maximum memory used throughout the entire EPRNMR-calculation: 141.4 MB

Timings for individual modules:

Sum of individual times         ...      143.683 sec (=   2.395 min)
GTO integral calculation        ...        0.838 sec (=   0.014 min)   0.6 %
SCF iterations                  ...       96.933 sec (=   1.616 min)  67.5 %
EPR/NMR calculation             ...       45.912 sec (=   0.765 min)  32.0 %
                             ****ORCA TERMINATED NORMALLY****
TOTAL RUN TIME: 0 days 0 hours 2 minutes 24 seconds 185 msec
