
                                 *****************
                                 * O   R   C   A *
                                 *****************

                                            #,                                       
                                            ###                                      
                                            ####                                     
                                            #####                                    
                                            ######                                   
                                           ########,                                 
                                     ,,################,,,,,                         
                               ,,#################################,,                 
                          ,,##########################################,,             
                       ,#########################################, ''#####,          
                    ,#############################################,,   '####,        
                  ,##################################################,,,,####,       
                ,###########''''           ''''###############################       
              ,#####''   ,,,,##########,,,,          '''####'''          '####       
            ,##' ,,,,###########################,,,                        '##       
           ' ,,###''''                  '''############,,,                           
         ,,##''                                '''############,,,,        ,,,,,,###''
      ,#''                                            '''#######################'''  
     '                                                          ''''####''''         
             ,#######,   #######,   ,#######,      ##                                
            ,#'     '#,  ##    ##  ,#'     '#,    #''#        ,####,   ,####,        
            ##       ##  ##   ,#'  ##            #'  '#       #'       #'  '#        
            ##       ##  #######   ##           ,######,      #####,   #    #        
            '#,     ,#'  ##    ##  '#,     ,#' ,#      #,     #,   #   #,  ,#        
             '#######'   ##     ##  '#######'  #'      '#     '####' # '####'        



                #########################################################
                #                        -***-                          #
                #          Department of theory and spectroscopy        #
                #                                                       #
                #                      Frank Neese                      #
                #                                                       #
                #     Directorship, Architecture, Infrastructure        #
                #                    SHARK, DRIVERS                     #
                #        Core code/Algorithms in most modules           #
                #                                                       #
                #        Max Planck Institute fuer Kohlenforschung      #
                #                Kaiser Wilhelm Platz 1                 #
                #                 D-45470 Muelheim/Ruhr                 #
                #                      Germany                          #
                #                                                       #
                #                  All rights reserved                  #
                #                        -***-                          #
                #########################################################


                         Program Version 6.0.0  -   RELEASE  -


 With contributions from (in alphabetic order):
   Daniel Aravena         : Magnetic Suceptibility
   Michael Atanasov       : Ab Initio Ligand Field Theory (pilot matlab implementation)
   Alexander A. Auer      : GIAO ZORA, VPT2 properties, NMR spectrum
   Ute Becker             : All parallelization in ORCA, NUMFREQ, NUMCALC
   Giovanni Bistoni       : ED, misc. LED, open-shell LED, HFLD
   Martin Brehm           : Molecular dynamics
   Dmytro Bykov           : pre 5.0 version of the SCF Hessian
   Marcos Casanova-Páez   : Triplet and SCS-CIS(D). UHF-(DLPNO)-IP/EA/STEOM-CCSD. UHF-CVS-IP/STEOM-CCSD
   Vijay G. Chilkuri      : MRCI spin determinant printing, contributions to CSF-ICE
   Pauline Colinet        : FMM embedding
   Dipayan Datta          : RHF DLPNO-CCSD density
   Achintya Kumar Dutta   : EOM-CC, STEOM-CC
   Nicolas Foglia         : Exact transition moments, OPA infrastructure, MCD improvements
   Dmitry Ganyushin       : Spin-Orbit,Spin-Spin,Magnetic field MRCI
   Miquel Garcia          : C-PCM and meta-GGA Hessian, CCSD/C-PCM, Gaussian charge scheme
   Tiago L. C. Gouveia    : GS-ROHF, GS-ROCIS
   Yang Guo               : DLPNO-NEVPT2, F12-NEVPT2, CIM, IAO-localization
   Andreas Hansen         : Spin unrestricted coupled pair/coupled cluster methods
   Ingolf Harden          : AUTO-CI MPn and infrastructure 
   Benjamin Helmich-Paris : MC-RPA, TRAH-(SCF,CASSCF), AVAS, COSX integrals, SCF dyn. polar.
   Lee Huntington         : MR-EOM, pCC
   Robert Izsak           : Overlap fitted RIJCOSX, COSX-SCS-MP3, EOM
   Riya Kayal             : Wick's Theorem for AUTO-CI, AUTO-CI UHF-CCSDT
   Emily Kempfer          : AUTO-CI, RHF CISDT and CCSDT
   Christian Kollmar      : KDIIS, OOCD, Brueckner-CCSD(T), CCSD density, CASPT2, CASPT2-K, improved NEVPT2
   Axel Koslowski         : Symmetry handling
   Simone Kossmann        : Meta GGA functionals, TD-DFT gradient, OOMP2, (MP2 Hessian; deprecated post 5.0)
   Lucas Lang             : DCDCAS
   Marvin Lechner         : AUTO-CI (C++ implementation), FIC-MRCC
   Spencer Leger          : CASSCF response
   Dagmar Lenk            : GEPOL surface, SMD, ORCA-2-JSON
   Dimitrios Liakos       : Extrapolation schemes; Compound Job, initial MDCI parallelization
   Dimitrios Manganas     : Further ROCIS development; embedding schemes. LFT, Crystal Embedding
   Dimitrios Pantazis     : SARC Basis sets
   Anastasios Papadopoulos: AUTO-CI, single reference methods and gradients
   Taras Petrenko         : pre 6.0 DFT Hessian and TD-DFT gradient, (ASA, deprecated), ECA, 1-Electron XAS/XES, NRVS
   Peter Pinski           : DLPNO-MP2, DLPNO-MP2 Gradient
   Christoph Reimann      : Effective Core Potentials
   Marius Retegan         : Local ZFS, SOC
   Christoph Riplinger    : Optimizer, TS searches, QM/MM, DLPNO-CCSD(T), (RO)-DLPNO pert. Triples
   Michael Roemelt        : Original ROCIS implementation
   Masaaki Saitow         : Open-shell DLPNO-CCSD energy and density
   Barbara Sandhoefer     : DKH picture change effects
   Kantharuban Sivalingam : CASSCF convergence/infrastructure, NEVPT2 and variants, FIC-MRCI
   Bernardo de Souza      : ESD, SOC TD-DFT
   Georgi Stoychev        : AutoAux, RI-MP2 NMR, DLPNO-MP2 response, X2C
   Van Anh Tran           : RI-MP2 g-tensors
   Willem Van den Heuvel  : Paramagnetic NMR
   Zikuan Wang            : NOTCH, Electric field optimization 
   Frank Wennmohs         : Technical directorship and infrastructure
   Hang Xu                : AUTO-CI-Response properties 


 We gratefully acknowledge several colleagues who have allowed us to
 interface, adapt or use parts of their codes:
   Stefan Grimme, W. Hujo, H. Kruse, P. Pracht,  : VdW corrections, initial TS optimization,
                  C. Bannwarth, S. Ehlert,         DFT functionals, gCP, sTDA/sTD-DF
                  L. Wittmann, M. Mueller
   Ed Valeev, F. Pavosevic, A. Kumar             : LibInt (2-el integral package), F12 methods
   Garnet Chan, S. Sharma, J. Yang, R. Olivares  : DMRG
   Ulf Ekstrom                                   : XCFun DFT Library
   Mihaly Kallay                                 : mrcc  (arbitrary order and MRCC methods)
   Frank Weinhold                                : gennbo (NPA and NBO analysis)
   Simon Mueller                                 : openCOSMO-RS
   Christopher J. Cramer and Donald G. Truhlar   : smd solvation model
   Lars Goerigk                                  : TD-DFT with DH, B97 family of functionals
   V. Asgeirsson, H. Jonsson                     : NEB implementation
   FAccTs GmbH                                   : IRC, NEB, NEB-TS, DLPNO-Multilevel, CI-OPT
                                                   MM, QMMM, 2- and 3-layer-ONIOM, Crystal-QMMM,
                                                   LR-CPCM, SF, NACMEs, symmetry and pop. for TD-DFT,
                                                   nearIR, NL-DFT gradient (VV10), updates on ESD,
                                                   ML-optimized integration grids, MBIS, APM,
                                                   GOAT, DOCKER, SOLVATOR, interface openCOSMO-RS
   S Lehtola, MJT Oliveira, MAL Marques          : LibXC Library
   Liviu Ungur et al                             : ANISO software


 Your calculation uses the libint2 library for the computation of 2-el integrals
 For citations please refer to: http://libint.valeyev.net

 Your ORCA version has been built with support for libXC version: 6.2.2
 For citations please refer to: https://libxc.gitlab.io

 This ORCA versions uses:
   CBLAS   interface :  Fast vector & matrix operations
   LAPACKE interface :  Fast linear algebra routines
   SCALAPACK package :  Parallel linear algebra routines
   Shared memory     :  Shared parallel matrices
   BLAS/LAPACK       :  OpenBLAS 0.3.27  USE64BITINT DYNAMIC_ARCH NO_AFFINITY Zen SINGLE_THREADED
        Core in use  :  Zen
   Copyright (c) 2011-2014, The OpenBLAS Project


NOTE: MaxCore=8000 MB was set to SCF,MP2,MDCI,CIPSI,MRCI and CIS
      => If you want to overwrite this, your respective input block should be placed after the MaxCore statement
Your calculation utilizes the atom-pairwise dispersion correction
based on EEQ partial charges (D4)


================================================================================

----- Orbital basis set information -----
Your calculation utilizes the basis: pcJ-0
   F. Jensen, Theor. Chem. Acc. 126, 371 (2010).

----- AuxJ basis set information -----
Your calculation utilizes the auxiliary basis: def2/J
   F. Weigend, Phys. Chem. Chem. Phys. 8, 1057 (2006).

================================================================================
                                        WARNINGS
                       Please study these warnings very carefully!
================================================================================

WARNING: Old DensityContainer found on disk!
         Will remove this file - 
         If you want to keep old densities, please start your calculation with a different basename. 


================================================================================
                                       INPUT FILE
================================================================================
NAME = inpJ
|  1> ! pbe0
|  2> ! D4
|  3> ! pcJ-0
|  4> ! def2/J RIJCOSX
|  5> ! DEFGRID2
|  6> ! scfconv7
|  7> ! smallprint printgap noloewdin
|  8> ! NOSOSCF
|  9> %MaxCore 8000
| 10> %output
| 11>        print[P_BondOrder_M] 1
| 12>        print[P_Mayer] 1
| 13>        print[P_basis] 2
| 14> end
| 15> %pal
| 16>     nprocs 4
| 17> end
| 18> ! CPCM(chloroform)
| 19> *xyz 0 1
| 20> C   -5.0323440900   0.2823565300   0.3395864400
| 21> C   -6.4371360000  -0.1660747500   0.0118432300
| 22> C   -7.0008549800   0.5752523100  -1.2064825600
| 23> H   -7.1007232100   0.0562327000   0.8648022800
| 24> H   -6.4675480500  -1.2473059700  -0.1620135400
| 25> C   -4.8708571000   1.7487746100   0.4354579900
| 26> C   -5.4795437600   2.5218984700  -0.7125743900
| 27> C   -6.9233705700   2.0825770900  -0.9916659000
| 28> H   -4.8787411700   2.3334922000  -1.6153201300
| 29> H   -5.4356803900   3.5971813400  -0.5098627700
| 30> H   -7.3144630000   2.6023394600  -1.8742253000
| 31> H   -7.5624309900   2.3497395700  -0.1364971700
| 32> O   -8.3366608500   0.1465978200  -1.5017606800
| 33> H   -6.4140760000   0.3027336100  -2.0949035400
| 34> C   -4.0303544800  -0.6178309000   0.4789591900
| 35> C   -4.2779936100   2.3577105100   1.4688606500
| 36> H   -3.8689623000   1.7910449700   2.3006282800
| 37> H   -4.1993651100   3.4415589900   1.5090188900
| 38> C   -2.6335024900  -0.3209569600   0.6954446300
| 39> H   -4.3086385000  -1.6657374100   0.3753596500
| 40> C   -1.6466380800  -1.2178753500   0.9083206100
| 41> H   -2.3612335200   0.7317340800   0.6708491600
| 42> C   -1.8230226200  -2.7110178500   1.0222122700
| 43> C   -0.8791755000  -3.4744453100   0.0738529600
| 44> H   -2.8568026100  -3.0216764500   0.8475713700
| 45> H   -1.5766641600  -3.0002371700   2.0565520100
| 46> C    0.5815726400  -3.0194384200   0.1993391500
| 47> H   -1.2219401100  -3.3377726200  -0.9595062300
| 48> H   -0.9485732400  -4.5485768900   0.2852670000
| 49> C    0.7231024000  -1.5010960300   0.0240084500
| 50> H    1.1874910600  -3.5637633200  -0.5325064200
| 51> H    0.9611224000  -3.2911635300   1.1959339500
| 52> C   -0.2117942300  -0.8203073500   1.0736980000
| 53> H    0.1154197900  -1.2363165600   2.0447541000
| 54> C    0.2069958100   0.6465792200   1.0509619400
| 55> H   -8.8900776300   0.3742584900  -0.7426991900
| 56> C    1.7376692800   0.5831793300   0.8254014900
| 57> H   -0.0669859600   1.1681894300   1.9740992300
| 58> H   -0.2800630700   1.1760697100   0.2244310000
| 59> C    2.0857641300  -0.8892012900   0.4521659900
| 60> H    2.2956532100   0.8971582300   1.7131592100
| 61> H    2.0429983500   1.2569008100   0.0161528800
| 62> H    2.3889145000  -1.4213945900   1.3687116300
| 63> C    3.2752100800  -0.9584391900  -0.5273973000
| 64> C    0.3528101900  -1.0731494100  -1.4022174400
| 65> H   -0.7110267600  -1.2323697700  -1.6031715300
| 66> H    0.9255472700  -1.6466155200  -2.1394468200
| 67> H    0.5618619500  -0.0121486100  -1.5716432200
| 68> H    3.0053744300  -0.4047800100  -1.4389392200
| 69> C    3.6632864400  -2.3921283100  -0.9189366700
| 70> C    4.4674376100  -0.2757131200   0.0888690900
| 71> C    5.0842492800   0.7962934800  -0.4065303400
| 72> H    4.8413361500  -0.7232722000   1.0154868000
| 73> H    4.6959516700   1.2437776400  -1.3252928300
| 74> C    6.2764020200   1.4702735000   0.2145067700
| 75> C    5.9348803900   2.9313039900   0.5438333600
| 76> C    7.5423767900   1.3196331300  -0.6737255300
| 77> H    6.4966229300   0.9487624600   1.1580669500
| 78> H    7.6170418100   0.2466431400  -0.9066320400
| 79> C    8.8122669600   1.7164779900   0.0842894200
| 80> C    7.4532388200   2.0809393200  -1.9987469700
| 81> H    5.1056940400   2.9710261700   1.2579825100
| 82> H    5.6243240000   3.4760760200  -0.3545823600
| 83> H    6.7861133400   3.4599919300   0.9851887300
| 84> H    9.7025919800   1.4851197600  -0.5110882200
| 85> H    8.8913279300   1.1788728400   1.0360767800
| 86> H    8.8312085700   2.7911800300   0.2984557100
| 87> H    7.4414015000   3.1644019100  -1.8330598700
| 88> H    6.5568339700   1.8150178900  -2.5685865500
| 89> H    8.3242501200   1.8544992800  -2.6236705400
| 90> H    4.5902017000  -2.3871031300  -1.5024319500
| 91> H    2.8887521900  -2.8698747800  -1.5240977500
| 92> H    3.8271783800  -3.0082753600  -0.0263941800
| 93> *
| 94> %eprnmr
| 95>  Nuclei = all C { ssfc }
| 96>  SpinSpinRThresh 8.0
| 97> end
| 98> 
| 99>                          ****END OF INPUT****
================================================================================

                       ****************************
                       * Single Point Calculation *
                       ****************************

---------------------------------
CARTESIAN COORDINATES (ANGSTROEM)
---------------------------------
  C     -5.032344    0.282357    0.339586
  C     -6.437136   -0.166075    0.011843
  C     -7.000855    0.575252   -1.206483
  H     -7.100723    0.056233    0.864802
  H     -6.467548   -1.247306   -0.162014
  C     -4.870857    1.748775    0.435458
  C     -5.479544    2.521898   -0.712574
  C     -6.923371    2.082577   -0.991666
  H     -4.878741    2.333492   -1.615320
  H     -5.435680    3.597181   -0.509863
  H     -7.314463    2.602339   -1.874225
  H     -7.562431    2.349740   -0.136497
  O     -8.336661    0.146598   -1.501761
  H     -6.414076    0.302734   -2.094904
  C     -4.030354   -0.617831    0.478959
  C     -4.277994    2.357711    1.468861
  H     -3.868962    1.791045    2.300628
  H     -4.199365    3.441559    1.509019
  C     -2.633502   -0.320957    0.695445
  H     -4.308638   -1.665737    0.375360
  C     -1.646638   -1.217875    0.908321
  H     -2.361234    0.731734    0.670849
  C     -1.823023   -2.711018    1.022212
  C     -0.879175   -3.474445    0.073853
  H     -2.856803   -3.021676    0.847571
  H     -1.576664   -3.000237    2.056552
  C      0.581573   -3.019438    0.199339
  H     -1.221940   -3.337773   -0.959506
  H     -0.948573   -4.548577    0.285267
  C      0.723102   -1.501096    0.024008
  H      1.187491   -3.563763   -0.532506
  H      0.961122   -3.291164    1.195934
  C     -0.211794   -0.820307    1.073698
  H      0.115420   -1.236317    2.044754
  C      0.206996    0.646579    1.050962
  H     -8.890078    0.374258   -0.742699
  C      1.737669    0.583179    0.825401
  H     -0.066986    1.168189    1.974099
  H     -0.280063    1.176070    0.224431
  C      2.085764   -0.889201    0.452166
  H      2.295653    0.897158    1.713159
  H      2.042998    1.256901    0.016153
  H      2.388914   -1.421395    1.368712
  C      3.275210   -0.958439   -0.527397
  C      0.352810   -1.073149   -1.402217
  H     -0.711027   -1.232370   -1.603172
  H      0.925547   -1.646616   -2.139447
  H      0.561862   -0.012149   -1.571643
  H      3.005374   -0.404780   -1.438939
  C      3.663286   -2.392128   -0.918937
  C      4.467438   -0.275713    0.088869
  C      5.084249    0.796293   -0.406530
  H      4.841336   -0.723272    1.015487
  H      4.695952    1.243778   -1.325293
  C      6.276402    1.470274    0.214507
  C      5.934880    2.931304    0.543833
  C      7.542377    1.319633   -0.673726
  H      6.496623    0.948762    1.158067
  H      7.617042    0.246643   -0.906632
  C      8.812267    1.716478    0.084289
  C      7.453239    2.080939   -1.998747
  H      5.105694    2.971026    1.257983
  H      5.624324    3.476076   -0.354582
  H      6.786113    3.459992    0.985189
  H      9.702592    1.485120   -0.511088
  H      8.891328    1.178873    1.036077
  H      8.831209    2.791180    0.298456
  H      7.441401    3.164402   -1.833060
  H      6.556834    1.815018   -2.568587
  H      8.324250    1.854499   -2.623671
  H      4.590202   -2.387103   -1.502432
  H      2.888752   -2.869875   -1.524098
  H      3.827178   -3.008275   -0.026394

----------------------------
CARTESIAN COORDINATES (A.U.)
----------------------------
  NO LB      ZA    FRAG     MASS         X           Y           Z
   0 C     6.0000    0    12.011   -9.509752    0.533577    0.641725
   1 C     6.0000    0    12.011  -12.164424   -0.313836    0.022380
   2 C     6.0000    0    12.011  -13.229699    1.087069   -2.279922
   3 H     1.0000    0     1.008  -13.418422    0.106264    1.634239
   4 H     1.0000    0     1.008  -12.221895   -2.357067   -0.306161
   5 C     6.0000    0    12.011   -9.204586    3.304705    0.822896
   6 C     6.0000    0    12.011  -10.354837    4.765697   -1.346570
   7 C     6.0000    0    12.011  -13.083274    3.935500   -1.873977
   8 H     1.0000    0     1.008   -9.219485    4.409661   -3.052513
   9 H     1.0000    0     1.008  -10.271947    6.797688   -0.963501
  10 H     1.0000    0     1.008  -13.822332    4.917709   -3.541773
  11 H     1.0000    0     1.008  -14.290923    4.440364   -0.257942
  12 O     8.0000    0    15.999  -15.754006    0.277030   -2.837916
  13 H     1.0000    0     1.008  -12.120847    0.572084   -3.958794
  14 C     6.0000    0    12.011   -7.616266   -1.167531    0.905102
  15 C     6.0000    0    12.011   -8.084236    4.455427    2.775744
  16 H     1.0000    0     1.008   -7.311279    3.384584    4.347557
  17 H     1.0000    0     1.008   -7.935650    6.503604    2.851632
  18 C     6.0000    0    12.011   -4.976598   -0.606521    1.314200
  19 H     1.0000    0     1.008   -8.142147   -3.147788    0.709327
  20 C     6.0000    0    12.011   -3.111695   -2.301451    1.716477
  21 H     1.0000    0     1.008   -4.462085    1.382777    1.267721
  22 C     6.0000    0    12.011   -3.445013   -5.123081    1.931701
  23 C     6.0000    0    12.011   -1.661401   -6.565750    0.139562
  24 H     1.0000    0     1.008   -5.398575   -5.710141    1.601678
  25 H     1.0000    0     1.008   -2.979463   -5.669627    3.886320
  26 C     6.0000    0    12.011    1.099013   -5.705912    0.376696
  27 H     1.0000    0     1.008   -2.309132   -6.307476   -1.813204
  28 H     1.0000    0     1.008   -1.792544   -8.595565    0.539077
  29 C     6.0000    0    12.011    1.366466   -2.836660    0.045369
  30 H     1.0000    0     1.008    2.244033   -6.734537   -1.006291
  31 H     1.0000    0     1.008    1.816258   -6.219398    2.259988
  32 C     6.0000    0    12.011   -0.400233   -1.550156    2.028995
  33 H     1.0000    0     1.008    0.218112   -2.336300    3.864025
  34 C     6.0000    0    12.011    0.391165    1.221858    1.986030
  35 H     1.0000    0     1.008  -16.799812    0.707246   -1.403498
  36 C     6.0000    0    12.011    3.283719    1.102049    1.559783
  37 H     1.0000    0     1.008   -0.126585    2.207558    3.730507
  38 H     1.0000    0     1.008   -0.529243    2.222450    0.424113
  39 C     6.0000    0    12.011    3.941523   -1.680347    0.854470
  40 H     1.0000    0     1.008    4.338156    1.695383    3.237402
  41 H     1.0000    0     1.008    3.860707    2.375198    0.030525
  42 H     1.0000    0     1.008    4.514394   -2.686047    2.586490
  43 C     6.0000    0    12.011    6.189250   -1.811188   -0.996636
  44 C     6.0000    0    12.011    0.666715   -2.027958   -2.649807
  45 H     1.0000    0     1.008   -1.343646   -2.328841   -3.029555
  46 H     1.0000    0     1.008    1.749031   -3.111652   -4.042969
  47 H     1.0000    0     1.008    1.061765   -0.022958   -2.969975
  48 H     1.0000    0     1.008    5.679335   -0.764923   -2.719201
  49 C     6.0000    0    12.011    6.922608   -4.520467   -1.736539
  50 C     6.0000    0    12.011    8.442234   -0.521022    0.167938
  51 C     6.0000    0    12.011    9.607839    1.504777   -0.768231
  52 H     1.0000    0     1.008    9.148799   -1.366786    1.918992
  53 H     1.0000    0     1.008    8.874063    2.350399   -2.504440
  54 C     6.0000    0    12.011   11.860681    2.778414    0.405359
  55 C     6.0000    0    12.011   11.215299    5.539362    1.027696
  56 C     6.0000    0    12.011   14.253027    2.493745   -1.273157
  57 H     1.0000    0     1.008   12.276838    1.792901    2.188429
  58 H     1.0000    0     1.008   14.394123    0.466088   -1.713286
  59 C     6.0000    0    12.011   16.652771    3.243673    0.159284
  60 C     6.0000    0    12.011   14.084580    3.932405   -3.777084
  61 H     1.0000    0     1.008    9.648363    5.614426    2.377242
  62 H     1.0000    0     1.008   10.628432    6.568832   -0.670064
  63 H     1.0000    0     1.008   12.823896    6.538437    1.861737
  64 H     1.0000    0     1.008   18.335242    2.806470   -0.965817
  65 H     1.0000    0     1.008   16.802175    2.227747    1.957901
  66 H     1.0000    0     1.008   16.688566    5.274566    0.564000
  67 H     1.0000    0     1.008   14.062211    5.979853   -3.463981
  68 H     1.0000    0     1.008   12.390621    3.429887   -4.853925
  69 H     1.0000    0     1.008   15.730553    3.504496   -4.958019
  70 H     1.0000    0     1.008    8.674224   -4.510971   -2.839185
  71 H     1.0000    0     1.008    5.458951   -5.423277   -2.880127
  72 H     1.0000    0     1.008    7.232319   -5.684817   -0.049878

--------------------------------
INTERNAL COORDINATES (ANGSTROEM)
--------------------------------
 C      0   0   0     0.000000000000     0.00000000     0.00000000
 C      1   0   0     1.510611311683     0.00000000     0.00000000
 C      2   1   0     1.533513165538   111.75957703     0.00000000
 H      2   1   3     1.103316694598   109.37644225   241.45316044
 H      2   1   3     1.095541884349   110.68452824   122.88515919
 C      1   2   3     1.478394868562   114.21101752    50.40678859
 C      6   1   2     1.512017955744   114.45425459   312.14404478
 C      3   2   1     1.524525507694   110.32432004   305.04498062
 H      7   6   1     1.100640970441   108.38983396   289.89518438
 H      7   6   1     1.095102390933   110.20584535   172.69908496
 H      8   3   2     1.096365497724   109.70455601   179.13909299
 H      8   3   2     1.100494238013   108.66342251   296.59174045
 O      3   2   1     1.433635644881   111.19887052   180.35384392
 H      3   2   1     1.099030414012   109.03153451    65.19089488
 C      1   2   3     1.354158539877   120.87028325   232.53403301
 C      6   1   2     1.337987707634   123.36102978   129.95760416
 H     16   6   1     1.086394880833   121.38415603     0.63529524
 H     16   6   1     1.087438574288   120.94213358   181.32643282
 C     15   1   2     1.444366838428   126.46889498   175.28192785
 H     15   1   2     1.089166155449   116.15052496   357.96711156
 C     19  15   1     1.350437019970   126.43055718   176.04783812
 H     19  15   1     1.087609192158   115.95420539   355.30233090
 C     21  19  15     1.507832000415   125.74085382   357.12138622
 C     23  21  19     1.540472087861   111.87473908   127.85396546
 H     23  21  19     1.093484923276   112.32502088     3.72318748
 H     23  21  19     1.101906985012   107.73788273   246.54427379
 C     24  23  21     1.535110153162   112.69379546    50.68947716
 H     24  23  21     1.097268525757   109.06551489   288.59176584
 H     24  23  21     1.096936914220   109.13915853   172.63571578
 C     27  24  23     1.534970729558   111.81366354   306.27416565
 H     27  24  23     1.094999847847   108.93958578   182.75190926
 H     27  24  23     1.100497047296   109.20957388    66.25797808
 C     21  19  15     1.498061036684   122.75686103   177.67076885
 H     33  21  19     1.105930661044   106.28936271   124.11196053
 C     33  21  19     1.525666488874   121.09318086     1.87963391
 H     13   3   2     0.966578428609   107.53646149    62.64290321
 C     35  33  21     1.548501964615   103.54102233   196.33741255
 H     35  33  21     1.095137287128   112.13008634    74.29576549
 H     35  33  21     1.095782791599   110.72125897   314.71108243
 C     30  27  24     1.553892223517   116.03368177   166.34084552
 H     37  35  33     1.094551316843   111.96411601   249.47856869
 H     37  35  33     1.096362069021   110.95560418   130.90820322
 H     40  30  27     1.102354646019   106.26883768   320.97743776
 C     40  30  27     1.542439559232   118.91952202    81.73917293
 C     30  27  24     1.534397249627   111.08798188   294.31362146
 H     45  30  27     1.094295538468   111.39046588    66.68713673
 H     45  30  27     1.095626898566   110.69003925   306.55011936
 H     45  30  27     1.094591444736   111.60006198   186.66265840
 H     44  40  30     1.100117465331   108.32920675    61.43494690
 C     44  40  30     1.536024359266   113.49137487   300.62906942
 C     44  40  30     1.505757494881   109.28732028   178.59579516
 C     51  44  40     1.332319549484   125.39452310   241.62035353
 H     51  44  40     1.094865118994   115.55831299    62.11214885
 H     52  51  44     1.093225329204   118.51611534     1.27321795
 C     52  51  44     1.503716833332   125.03709678   180.12313359
 C     55  52  51     1.536132520113   109.79024345   239.73825108
 C     55  52  51     1.553815065609   111.49346742   113.30452863
 H     55  52  51     1.100353046674   107.48116348   357.14686442
 H     57  55  52     1.100512528894   105.71078535   309.50798088
 C     57  55  52     1.531239220760   111.56658565   192.91770488
 C     57  55  52     1.530756188649   113.52541676    67.46217853
 H     56  55  52     1.095051077830   110.03921374    60.83837833
 H     56  55  52     1.095615188825   111.10875109   301.79225662
 H     56  55  52     1.094944307120   111.88924209   180.85106007
 H     60  57  55     1.095755358663   110.49621961   172.86367338
 H     60  57  55     1.095978609709   111.26012799    52.85070049
 H     60  57  55     1.095997472233   111.41966501   292.18637563
 H     61  57  55     1.096122037540   111.18515614    66.90957920
 H     61  57  55     1.094976259547   112.17013658   305.79187612
 H     61  57  55     1.095657448651   110.15916315   185.85528870
 H     50  44  40     1.095291693312   110.20155536   187.63730271
 H     50  44  40     1.092870041115   111.72282269    67.73803794
 H     50  44  40     1.096872760021   110.77118813   307.13656073

---------------------------
INTERNAL COORDINATES (A.U.)
---------------------------
 C      0   0   0     0.000000000000     0.00000000     0.00000000
 C      1   0   0     2.854641673885     0.00000000     0.00000000
 C      2   1   0     2.897919905630   111.75957703     0.00000000
 H      2   1   3     2.084966391773   109.37644225   241.45316044
 H      2   1   3     2.070274129659   110.68452824   122.88515919
 C      1   2   3     2.793761419376   114.21101752    50.40678859
 C      6   1   2     2.857299845927   114.45425459   312.14404478
 C      3   2   1     2.880935693718   110.32432004   305.04498062
 H      7   6   1     2.079910005908   108.38983396   289.89518438
 H      7   6   1     2.069443607465   110.20584535   172.69908496
 H      8   3   2     2.071830533379   109.70455601   179.13909299
 H      8   3   2     2.079632721803   108.66342251   296.59174045
 O      3   2   1     2.709178744653   111.19887052   180.35384392
 H      3   2   1     2.076866495333   109.03153451    65.19089488
 C      1   2   3     2.558988782277   120.87028325   232.53403301
 C      6   1   2     2.528430337981   123.36102978   129.95760416
 H     16   6   1     2.052988798068   121.38415603     0.63529524
 H     16   6   1     2.054961092867   120.94213358   181.32643282
 C     15   1   2     2.729457761546   126.46889498   175.28192785
 H     15   1   2     2.058225748135   116.15052496   357.96711156
 C     19  15   1     2.551956128852   126.43055718   176.04783812
 H     19  15   1     2.055283513913   115.95420539   355.30233090
 C     21  19  15     2.849389536747   125.74085382   357.12138622
 C     23  21  19     2.911070363007   111.87473908   127.85396546
 H     23  21  19     2.066387036563   112.32502088     3.72318748
 H     23  21  19     2.082302426727   107.73788273   246.54427379
 C     24  23  21     2.900937774878   112.69379546    50.68947716
 H     24  23  21     2.073537009053   109.06551489   288.59176584
 H     24  23  21     2.072910354065   109.13915853   172.63571578
 C     27  24  23     2.900674302449   111.81366354   306.27416565
 H     27  24  23     2.069249829115   108.93958578   182.75190926
 H     27  24  23     2.079638030579   109.20957388    66.25797808
 C     21  19  15     2.830925091230   122.75686103   177.67076885
 H     33  21  19     2.089906072479   106.28936271   124.11196053
 C     33  21  19     2.883091835674   121.09318086     1.87963391
 H     13   3   2     1.826568517026   107.53646149    62.64290321
 C     35  33  21     2.926244630962   103.54102233   196.33741255
 H     35  33  21     2.069509551717   112.13008634    74.29576549
 H     35  33  21     2.070729378386   110.72125897   314.71108243
 C     30  27  24     2.936430744076   116.03368177   166.34084552
 H     37  35  33     2.068402228356   111.96411601   249.47856869
 H     37  35  33     2.071824054068   110.95560418   130.90820322
 H     40  30  27     2.083148383431   106.26883768   320.97743776
 C     40  30  27     2.914788345074   118.91952202    81.73917293
 C     30  27  24     2.899590582437   111.08798188   294.31362146
 H     45  30  27     2.067918877277   111.39046588    66.68713673
 H     45  30  27     2.070434783247   110.69003925   306.55011936
 H     45  30  27     2.068478059083   111.60006198   186.66265840
 H     44  40  30     2.078920724619   108.32920675    61.43494690
 C     44  40  30     2.902665374044   113.49137487   300.62906942
 C     44  40  30     2.845469289425   109.28732028   178.59579516
 C     51  44  40     2.517719071393   125.39452310   241.62035353
 H     51  44  40     2.068995228482   115.55831299    62.11214885
 H     52  51  44     2.065896474862   118.51611534     1.27321795
 C     52  51  44     2.841612997965   125.03709678   180.12313359
 C     55  52  51     2.902869768424   109.79024345   239.73825108
 C     55  52  51     2.936284936762   111.49346742   113.30452863
 H     55  52  51     2.079365908840   107.48116348   357.14686442
 H     57  55  52     2.079667286558   105.71078535   309.50798088
 C     57  55  52     2.893622772756   111.56658565   192.91770488
 C     57  55  52     2.892709974352   113.52541676    67.46217853
 H     56  55  52     2.069346639753   110.03921374    60.83837833
 H     56  55  52     2.070412655043   111.10875109   301.79225662
 H     56  55  52     2.069144872353   111.88924209   180.85106007
 H     60  57  55     2.070677537650   110.49621961   172.86367338
 H     60  57  55     2.071099420986   111.26012799    52.85070049
 H     60  57  55     2.071135065991   111.41966501   292.18637563
 H     61  57  55     2.071370460306   111.18515614    66.90957920
 H     61  57  55     2.069205253689   112.17013658   305.79187612
 H     61  57  55     2.070492514541   110.15916315   185.85528870
 H     50  44  40     2.069801337118   110.20155536   187.63730271
 H     50  44  40     2.065225077675   111.72282269    67.73803794
 H     50  44  40     2.072789120198   110.77118813   307.13656073

---------------------
BASIS SET INFORMATION
---------------------
There are 3 groups of distinct atoms

 Group   1 Type C   : 7s4p contracted to 4s3p pattern {4111/211}
 Group   2 Type H   : 5s contracted to 3s pattern {311}
 Group   3 Type O   : 7s4p contracted to 4s3p pattern {4111/211}

Atom   0C    basis set group =>   1
Atom   1C    basis set group =>   1
Atom   2C    basis set group =>   1
Atom   3H    basis set group =>   2
Atom   4H    basis set group =>   2
Atom   5C    basis set group =>   1
Atom   6C    basis set group =>   1
Atom   7C    basis set group =>   1
Atom   8H    basis set group =>   2
Atom   9H    basis set group =>   2
Atom  10H    basis set group =>   2
Atom  11H    basis set group =>   2
Atom  12O    basis set group =>   3
Atom  13H    basis set group =>   2
Atom  14C    basis set group =>   1
Atom  15C    basis set group =>   1
Atom  16H    basis set group =>   2
Atom  17H    basis set group =>   2
Atom  18C    basis set group =>   1
Atom  19H    basis set group =>   2
Atom  20C    basis set group =>   1
Atom  21H    basis set group =>   2
Atom  22C    basis set group =>   1
Atom  23C    basis set group =>   1
Atom  24H    basis set group =>   2
Atom  25H    basis set group =>   2
Atom  26C    basis set group =>   1
Atom  27H    basis set group =>   2
Atom  28H    basis set group =>   2
Atom  29C    basis set group =>   1
Atom  30H    basis set group =>   2
Atom  31H    basis set group =>   2
Atom  32C    basis set group =>   1
Atom  33H    basis set group =>   2
Atom  34C    basis set group =>   1
Atom  35H    basis set group =>   2
Atom  36C    basis set group =>   1
Atom  37H    basis set group =>   2
Atom  38H    basis set group =>   2
Atom  39C    basis set group =>   1
Atom  40H    basis set group =>   2
Atom  41H    basis set group =>   2
Atom  42H    basis set group =>   2
Atom  43C    basis set group =>   1
Atom  44C    basis set group =>   1
Atom  45H    basis set group =>   2
Atom  46H    basis set group =>   2
Atom  47H    basis set group =>   2
Atom  48H    basis set group =>   2
Atom  49C    basis set group =>   1
Atom  50C    basis set group =>   1
Atom  51C    basis set group =>   1
Atom  52H    basis set group =>   2
Atom  53H    basis set group =>   2
Atom  54C    basis set group =>   1
Atom  55C    basis set group =>   1
Atom  56C    basis set group =>   1
Atom  57H    basis set group =>   2
Atom  58H    basis set group =>   2
Atom  59C    basis set group =>   1
Atom  60C    basis set group =>   1
Atom  61H    basis set group =>   2
Atom  62H    basis set group =>   2
Atom  63H    basis set group =>   2
Atom  64H    basis set group =>   2
Atom  65H    basis set group =>   2
Atom  66H    basis set group =>   2
Atom  67H    basis set group =>   2
Atom  68H    basis set group =>   2
Atom  69H    basis set group =>   2
Atom  70H    basis set group =>   2
Atom  71H    basis set group =>   2
Atom  72H    basis set group =>   2

-------------------------
BASIS SET IN INPUT FORMAT
-------------------------

 # Basis set for element : H 
 NewGTO H 
 S 3 
   1    1357.7500000000      0.0012928364
   2      54.3100000000      0.0588280685
   3       4.3448000000      0.9761499708
 S 1 
   1       0.6604910000      1.0000000000
 S 1 
   1       0.1366870000      1.0000000000
  end;

 # Basis set for element : C 
 NewGTO C 
 S 4 
   1  139534.0000000000      0.0001655246
   2    5581.3600000000      0.0074486101
   3     446.5090000000      0.1285821065
   4      67.4620000000      0.9218029311
 S 1 
   1      15.0674000000      1.0000000000
 S 1 
   1       3.9387600000      1.0000000000
 S 1 
   1       0.2999150000      1.0000000000
 P 2 
   1      28.3900000000      0.0816325586
   2       4.3676900000      0.9660360576
 P 1 
   1       0.8698170000      1.0000000000
 P 1 
   1       0.1889340000      1.0000000000
  end;

 # Basis set for element : O 
 NewGTO O 
 S 4 
   1  253789.0000000000      0.0001641076
   2   10151.6000000000      0.0074010921
   3     812.1250000000      0.1277711901
   4     122.6930000000      0.9223372164
 S 1 
   1      27.5608000000      1.0000000000
 S 1 
   1       7.3172600000      1.0000000000
 S 1 
   1       0.5792400000      1.0000000000
 P 2 
   1      53.4157000000      0.0793786106
   2       8.2177900000      0.9670506337
 P 1 
   1       1.6754400000      1.0000000000
 P 1 
   1       0.3506720000      1.0000000000
  end;

---------------------------------
AUXILIARY/J BASIS SET INFORMATION
---------------------------------
There are 3 groups of distinct atoms

 Group   1 Type C   : 12s5p4d2f1g contracted to 6s4p3d1f1g pattern {711111/2111/211/2/1}
 Group   2 Type H   : 5s2p1d contracted to 3s1p1d pattern {311/2/1}
 Group   3 Type O   : 12s5p4d2f1g contracted to 6s4p3d1f1g pattern {711111/2111/211/2/1}

Atom   0C    basis set group =>   1
Atom   1C    basis set group =>   1
Atom   2C    basis set group =>   1
Atom   3H    basis set group =>   2
Atom   4H    basis set group =>   2
Atom   5C    basis set group =>   1
Atom   6C    basis set group =>   1
Atom   7C    basis set group =>   1
Atom   8H    basis set group =>   2
Atom   9H    basis set group =>   2
Atom  10H    basis set group =>   2
Atom  11H    basis set group =>   2
Atom  12O    basis set group =>   3
Atom  13H    basis set group =>   2
Atom  14C    basis set group =>   1
Atom  15C    basis set group =>   1
Atom  16H    basis set group =>   2
Atom  17H    basis set group =>   2
Atom  18C    basis set group =>   1
Atom  19H    basis set group =>   2
Atom  20C    basis set group =>   1
Atom  21H    basis set group =>   2
Atom  22C    basis set group =>   1
Atom  23C    basis set group =>   1
Atom  24H    basis set group =>   2
Atom  25H    basis set group =>   2
Atom  26C    basis set group =>   1
Atom  27H    basis set group =>   2
Atom  28H    basis set group =>   2
Atom  29C    basis set group =>   1
Atom  30H    basis set group =>   2
Atom  31H    basis set group =>   2
Atom  32C    basis set group =>   1
Atom  33H    basis set group =>   2
Atom  34C    basis set group =>   1
Atom  35H    basis set group =>   2
Atom  36C    basis set group =>   1
Atom  37H    basis set group =>   2
Atom  38H    basis set group =>   2
Atom  39C    basis set group =>   1
Atom  40H    basis set group =>   2
Atom  41H    basis set group =>   2
Atom  42H    basis set group =>   2
Atom  43C    basis set group =>   1
Atom  44C    basis set group =>   1
Atom  45H    basis set group =>   2
Atom  46H    basis set group =>   2
Atom  47H    basis set group =>   2
Atom  48H    basis set group =>   2
Atom  49C    basis set group =>   1
Atom  50C    basis set group =>   1
Atom  51C    basis set group =>   1
Atom  52H    basis set group =>   2
Atom  53H    basis set group =>   2
Atom  54C    basis set group =>   1
Atom  55C    basis set group =>   1
Atom  56C    basis set group =>   1
Atom  57H    basis set group =>   2
Atom  58H    basis set group =>   2
Atom  59C    basis set group =>   1
Atom  60C    basis set group =>   1
Atom  61H    basis set group =>   2
Atom  62H    basis set group =>   2
Atom  63H    basis set group =>   2
Atom  64H    basis set group =>   2
Atom  65H    basis set group =>   2
Atom  66H    basis set group =>   2
Atom  67H    basis set group =>   2
Atom  68H    basis set group =>   2
Atom  69H    basis set group =>   2
Atom  70H    basis set group =>   2
Atom  71H    basis set group =>   2
Atom  72H    basis set group =>   2

-------------------------------------
AUXILIARY/J BASIS SET IN INPUT FORMAT
-------------------------------------

 # Auxiliary/J basis set for element : H 
 NewAuxJGTO H 
 S 3 
   1      15.6752927000      0.1007184237
   2       3.6063578000      0.3404257499
   3       1.2080016000      0.6491996172
 S 1 
   1       0.4726794000      1.0000000000
 S 1 
   1       0.2018100000      1.0000000000
 P 2 
   1       2.0281365000      0.5596620919
   2       0.5358730000      0.5596620919
 D 1 
   1       2.2165124000      1.0000000000
  end;

 # Auxiliary/J basis set for element : C 
 NewAuxJGTO C 
 S 7 
   1    1861.0916331000      0.0134602335
   2     642.9939764000      0.0299160374
   3     235.1105725000      0.1008649584
   4      90.7028894000      0.2370970548
   5      36.7794552000      0.3924037254
   6      15.6046273000      0.3195862154
   7       6.8907294000      0.0530104441
 S 1 
   1       3.1478850000     -1.0000000000
 S 1 
   1       1.4777287000      1.0000000000
 S 1 
   1       0.7076466000      1.0000000000
 S 1 
   1       0.3430122000      1.0000000000
 S 1 
   1       0.1669453000      1.0000000000
 P 2 
   1      13.5472892000     -0.6769313712
   2       5.4669419000     -0.3779500978
 P 1 
   1       2.1751721000      1.0000000000
 P 1 
   1       0.8582194000      1.0000000000
 P 1 
   1       0.3376720000      1.0000000000
 D 2 
   1       5.9287253000     -0.3533329857
   2       1.9809209000     -0.7456525731
 D 1 
   1       0.8055417000     -1.0000000000
 D 1 
   1       0.3531244000     -1.0000000000
 F 2 
   1       1.6755626000      0.6311076882
   2       0.5997536000      0.4968166032
 G 1 
   1       1.0024600000     -1.0000000000
  end;

 # Auxiliary/J basis set for element : O 
 NewAuxJGTO O 
 S 7 
   1    2876.8216605000      0.0168151159
   2    1004.7443032000      0.0340137548
   3     369.7579954000      0.1194951309
   4     142.9442404000      0.2664627624
   5      57.8366425000      0.4202764046
   6      24.3864983000      0.2765077335
   7      10.6622662000      0.0057008815
 S 1 
   1       4.8070437000     -1.0000000000
 S 1 
   1       2.2210770000      1.0000000000
 S 1 
   1       1.0447795000      1.0000000000
 S 1 
   1       0.4968425000      1.0000000000
 S 1 
   1       0.2371384000      1.0000000000
 P 2 
   1      64.2613382000     -0.2731534179
   2      16.3006076000     -0.8168011598
 P 1 
   1       4.3550542000      1.0000000000
 P 1 
   1       1.2019554000      1.0000000000
 P 1 
   1       0.3354196000      1.0000000000
 D 2 
   1       9.2146611000     -0.4661230638
   2       2.8435251000     -0.6600908911
 D 1 
   1       0.9955759000     -1.0000000000
 D 1 
   1       0.3649441000     -1.0000000000
 F 2 
   1       2.6420115000      0.5931563945
   2       0.7345613000      0.5931563945
 G 1 
   1       1.3931000000     -1.0000000000
  end;


Checking for AutoStart:
The File: inpJ.gbw exists
Trying to determine its content:
     ... Fine, the file contains calculation information
     ... Fine, the calculation information was read
     ... Fine, the file contains a basis set
     ... Fine, the basis set was read
     ... Fine, the file contains a geometry
     ... Fine, the geometry was read
     ... Fine, the file contains a set of orbitals
     ... Fine, the orbitals can be read
     => possible old guess file was deleted
     => GBW file was renamed to GES file
     => GES file is set as startup file
     => Guess is set to MORead
     ... now leaving AutoStart



           ************************************************************
           *        Program running with 4 parallel MPI-processes     *
           *              working on a common directory               *
           ************************************************************
------------------------------------------------------------------------------
                             ORCA STARTUP CALCULATIONS
                           -- RI-GTO INTEGRALS CHOSEN --
------------------------------------------------------------------------------
------------------------------------------------------------------------------
                   ___                                                        
                  /   \      - P O W E R E D   B Y -                         
                 /     \                                                     
                 |  |  |   _    _      __       _____    __    __             
                 |  |  |  | |  | |    /  \     |  _  \  |  |  /  |          
                  \  \/   | |  | |   /    \    | | | |  |  | /  /          
                 / \  \   | |__| |  /  /\  \   | |_| |  |  |/  /          
                |  |  |   |  __  | /  /__\  \  |    /   |      \           
                |  |  |   | |  | | |   __   |  |    \   |  |\   \          
                \     /   | |  | | |  |  |  |  | |\  \  |  | \   \       
                 \___/    |_|  |_| |__|  |__|  |_| \__\ |__|  \__/        
                                                                              
                      - O R C A' S   B I G   F R I E N D -                    
                                      &                                       
                       - I N T E G R A L  F E E D E R -                       
                                                                              
 v1 FN, 2020, v2 2021, v3 2022-2024                                           
------------------------------------------------------------------------------


----------------------
SHARK INTEGRAL PACKAGE
----------------------

Number of atoms                             ...     73
Number of basis functions                   ...    509
Number of shells                            ...    335
Maximum angular momentum                    ...      1
Integral batch strategy                     ... SHARK/LIBINT Hybrid
RI-J (if used) integral strategy            ... SPLIT-RIJ (Revised 2003 algorithm where possible)
Printlevel                                  ...      1
Contraction scheme used                     ... SEGMENTED contraction
Prescreening option                         ... SCHWARTZ
   Thresh                                   ... 3.000e-11
   Tcut                                     ... 1.000e-12
   Tpresel                                  ... 1.000e-12 
Coulomb Range Separation                    ... NOT USED
Exchange Range Separation                   ... NOT USED
Multipole approximations                    ... NOT USED
Finite Nucleus Model                        ... NOT USED
CABS basis                                  ... NOT available
Auxiliary Coulomb fitting basis             ... AVAILABLE
   # of basis functions in Aux-J            ...   1905
   # of shells in Aux-J                     ...    655
   Maximum angular momentum in Aux-J        ...      4
Auxiliary J/K fitting basis                 ... NOT available
Auxiliary Correlation fitting basis         ... NOT available
Auxiliary 'external' fitting basis          ... NOT available

Checking pre-screening integrals            ... done (  0.0 sec) Dimension = 335
Check shell pair data                       ... done (  0.0 sec)
Shell pair information
Shell pair cut-off parameter TPreSel        ...   1.0e-12
Total number of shell pairs                 ...     56280
Shell pairs after pre-screening             ...     21365
Total number of primitive shell pairs       ...    145865
Primitive shell pairs kept                  ...     36742
          la=0 lb=0:  10740 shell pairs
          la=1 lb=0:   8792 shell pairs
          la=1 lb=1:   1833 shell pairs

Calculating one electron integrals          ... done (  0.0 sec)
Calculating RI/J V-Matrix + Cholesky decomp.... done (  0.2 sec)
Calculating Nuclear repulsion               ... done (  0.0 sec) ENN=   2746.188820068860 Eh

Diagonalization of the overlap matrix:
Smallest eigenvalue                        ... 7.550e-03
Time for diagonalization                   ...    0.026 sec
Threshold for overlap eigenvalues          ... 1.000e-07
Number of eigenvalues below threshold      ... 0
Time for construction of square roots      ...    0.012 sec
Total time needed                          ...    0.040 sec

-------------------
DFT GRID GENERATION
-------------------

General Integration Accuracy     IntAcc      ... 4.388
Radial Grid Type                 RadialGrid  ... OptM3 with GC (2021)
Angular Grid (max. ang.)         AngularGrid ... 4 (Lebedev-302)
Angular grid pruning method      GridPruning ... 4 (adaptive)
Weight generation scheme         WeightScheme... mBecke (2022)
Basis function cutoff            BFCut       ... 1.0000e-11
Integration weight cutoff        WCut        ... 1.0000e-14
Partially contracted basis set               ... off
Rotationally invariant grid construction     ... off
Angular grids for H and He will be reduced by one unit

Total number of grid points                  ...   310039
Total number of batches                      ...     4879
Average number of points per batch           ...       63
Average number of grid points per atom       ...     4247

--------------------
COSX GRID GENERATION
--------------------

GRIDX 1
-------
General Integration Accuracy     IntAcc      ... 3.816
Radial Grid Type                 RadialGrid  ... OptM3 with GC (2021)
Angular Grid (max. ang.)         AngularGrid ... 1 (Lebedev-50)
Angular grid pruning method      GridPruning ... 4 (adaptive)
Weight generation scheme         WeightScheme... mBecke (2022)
Basis function cutoff            BFCut       ... 1.0000e-11
Integration weight cutoff        WCut        ... 1.0000e-14
Partially contracted basis set               ... on
Rotationally invariant grid construction     ... off
Angular grids for H and He will be reduced by one unit

Total number of grid points                  ...    39449
Total number of batches                      ...      354
Average number of points per batch           ...      111
Average number of grid points per atom       ...      540
UseSFitting                                  ... on

GRIDX 2
-------
General Integration Accuracy     IntAcc      ... 4.020
Radial Grid Type                 RadialGrid  ... OptM3 with GC (2021)
Angular Grid (max. ang.)         AngularGrid ... 2 (Lebedev-110)
Angular grid pruning method      GridPruning ... 4 (adaptive)
Weight generation scheme         WeightScheme... mBecke (2022)
Basis function cutoff            BFCut       ... 1.0000e-11
Integration weight cutoff        WCut        ... 1.0000e-14
Partially contracted basis set               ... on
Rotationally invariant grid construction     ... off
Angular grids for H and He will be reduced by one unit

Total number of grid points                  ...    81535
Total number of batches                      ...      678
Average number of points per batch           ...      120
Average number of grid points per atom       ...     1117
UseSFitting                                  ... on

GRIDX 3
-------
General Integration Accuracy     IntAcc      ... 4.338
Radial Grid Type                 RadialGrid  ... OptM3 with GC (2021)
Angular Grid (max. ang.)         AngularGrid ... 3 (Lebedev-194)
Angular grid pruning method      GridPruning ... 4 (adaptive)
Weight generation scheme         WeightScheme... mBecke (2022)
Basis function cutoff            BFCut       ... 1.0000e-11
Integration weight cutoff        WCut        ... 1.0000e-14
Partially contracted basis set               ... on
Rotationally invariant grid construction     ... off
Angular grids for H and He will be reduced by one unit

Total number of grid points                  ...   176568
Total number of batches                      ...     1421
Average number of points per batch           ...      124
Average number of grid points per atom       ...     2419
UseSFitting                                  ... on
Initializing property integral containers    ... done (  0.0 sec)

SHARK setup successfully completed in   3.7 seconds

Maximum memory used throughout the entire STARTUP-calculation: 84.9 MB


           ************************************************************
           *        Program running with 4 parallel MPI-processes     *
           *              working on a common directory               *
           ************************************************************
-------------------------------------------------------------------------------
                                 ORCA GUESS
                   Start orbitals & Density for SCF / CASSCF
-------------------------------------------------------------------------------

------------
SCF SETTINGS
------------
Hamiltonian:
 Density Functional     Method          .... DFT(GTOs)
 Exchange Functional    Exchange        .... PBE
   PBE kappa parameter   XKappa         ....  0.804000
   PBE mue parameter    XMuePBE         ....  0.219520
 Correlation Functional Correlation     .... PBE
   PBE beta parameter  CBetaPBE         ....  0.066725
 LDA part of GGA corr.  LDAOpt          .... PW91-LDA
 Gradients option       PostSCFGGA      .... off
 Hybrid DFT is turned on
   Fraction HF Exchange ScalHFX         ....  0.250000
   Scaling of DF-GGA-X  ScalDFX         ....  0.750000
   Scaling of DF-GGA-C  ScalDFC         ....  1.000000
   Scaling of DF-LDA-C  ScalLDAC        ....  1.000000
   Perturbative correction              ....  0.000000
   NL short-range parameter             ....  6.900000
 RI-approximation to the Coulomb term is turned on
   Number of AuxJ basis functions       .... 1905
   RIJ-COSX (HFX calculated with COS-X)).... on


General Settings:
 Integral files         IntName         .... inpJ
 Hartree-Fock type      HFTyp           .... RHF
 Total Charge           Charge          ....    0
 Multiplicity           Mult            ....    1
 Number of Electrons    NEL             ....  220
 Basis Dimension        Dim             ....  509
 Nuclear Repulsion      ENuc            ....   2746.1888200689 Eh

Convergence Acceleration:
 AO-DIIS                CNVDIIS         .... on
   Start iteration      DIISMaxIt       ....    12
   Startup error        DIISStart       ....  0.200000
   # of expansion vecs  DIISMaxEq       ....     5
   Bias factor          DIISBfac        ....   1.050
   Max. coefficient     DIISMaxC        ....  10.000
 MO-DIIS                CNVKDIIS        .... off
 Trust-Rad. Augm. Hess. CNVTRAH         .... auto
   Auto Start mean grad. ratio tolernc. ....  1.125000
   Auto Start start iteration           ....     1
   Auto Start num. interpolation iter.  ....    10
   Max. Number of Micro iterations      ....    24
   Max. Number of Macro iterations      .... Maxiter - #DIIS iter
   Number of Davidson start vectors     ....     2
   Converg. threshold    (grad. norm)   ....   1.000e-04
   Grad. Scal. Fac. for Micro threshold ....   0.100
   Minimum threshold for Micro iter.    ....   1.000e-02
   NR start threshold (gradient norm)   ....   1.000e-04
   Initial trust radius                 ....   0.400
   Minimum AH scaling param. (alpha)    ....   1.000
   Maximum AH scaling param. (alpha)    .... 1000.000
   Quad. conv. algorithm                .... NR
   White noise on init. David. guess    .... on
   Maximum white noise                  ....   0.010
   Pseudo random numbers                .... off
   Inactive MOs                         .... canonical
   Orbital update algorithm             .... Taylor
   Preconditioner                       .... Diag
   Full preconditioner red. dimension   ....   250
 SOSCF                  CNVSOSCF        .... off
 Level Shifting         CNVShift        .... on
   Level shift para.    LevelShift      ....    0.2500
   Turn off err/grad.   ShiftErr        ....    0.0010
 Zerner damping         CNVZerner       .... off
 Static damping         CNVDamp         .... on
   Fraction old density DampFac         ....    0.7000
   Max. Damping (<1)    DampMax         ....    0.9800
   Min. Damping (>=0)   DampMin         ....    0.0000
   Turn off err/grad.   DampErr         ....    0.1000

SCF Procedure:
 Maximum # iterations   MaxIter         ....   125
 SCF integral mode      SCFMode         .... Direct
   Integral package                     .... SHARK and LIBINT hybrid scheme
 Reset frequency        DirectResetFreq ....    20
 Integral Threshold     Thresh          ....  3.000e-11 Eh
 Primitive CutOff       TCut            ....  1.000e-12 Eh

Convergence Tolerance:
 Convergence Check Mode ConvCheckMode   .... Total+1el-Energy
 Convergence forced     ConvForced      .... 0
 Energy Change          TolE            ....  1.000e-07 Eh
 1-El. energy change                    ....  1.000e-04 Eh
 DIIS Error             TolErr          ....  1.000e-07

---------------------
INITIAL GUESS: MOREAD
---------------------
Guess MOs are being read from file: inpJ.ges
Input Geometry matches current geometry (good)
Input basis set matches current basis set (good)
Occupation numbers will be reassigned to an Aufbau configuration
MOs were renormalized
MOs were reorthogonalized (Cholesky)
                      ------------------
                      INITIAL GUESS DONE (   0.1 sec)
                      ------------------
             **** ENERGY FILE WAS UPDATED (inpJ.en.tmp) ****
Finished Guess after   0.2 sec
Maximum memory used throughout the entire GUESS-calculation: 36.2 MB


           ************************************************************
           *        Program running with 4 parallel MPI-processes     *
           *              working on a common directory               *
           ************************************************************

-------------------------------------------------------------------------------------------
                                      ORCA LEAN-SCF
                              memory conserving SCF solver
-------------------------------------------------------------------------------------------

--------------------
CPCM SOLVATION MODEL
--------------------
CPCM parameters:
  Epsilon                                         ...       4.8030
  Refrac                                          ...       1.4459
  Rsolv                                           ...       1.3000
  Surface type                                    ... GAUSSIAN VDW
  Discretization scheme                           ... Constant charge density
    Threshold for H atoms                         ...       5.0000 (charges/Ang^2)
    Threshold for non-H atoms                     ...       5.0000 (charges/Ang^2)
  Epsilon function type                           ...         CPCM
Solvent:                                          ... CHLOROFORM
Radii:
  Scheme                                          ... Element-dependent radii
  Radius for C  used is    3.8550 Bohr (=   2.0400 Ang.)
  Radius for H  used is    2.4944 Bohr (=   1.3200 Ang.)
  Radius for O  used is    3.4469 Bohr (=   1.8240 Ang.)
Calculating surface                               ...        done! (  0.0s)
Cavity surface points                             ...         5452
Cavity Volume                                     ...    3617.5709
Cavity Surface-area                               ...    1816.5776
Calculating surface distance matrix               ...        done! (  0.3s)
Performing Cholesky decomposition & store         ...        done! (  0.9s)
Overall time for CPCM initialization              ...                 1.2s

----------------------------------------D-I-I-S--------------------------------------------
Iteration    Energy (Eh)           Delta-E    RMSDP     MaxDP     DIISErr   Damp  Time(sec)
-------------------------------------------------------------------------------------------
               ***  Starting incremental Fock matrix formation  ***
    1    -1165.5092092825275358     0.00e+00  4.52e-08  5.81e-06  8.25e-06  0.700   6.0

  HOMO= 109 E= -5.921 eV LUMO=  5.980 eV gap=  11.900 eV
    2    -1165.5092093197081340    -3.72e-08  3.04e-08  3.45e-06  3.86e-06  0.700   2.0
                 **** Energy Check signals convergence ****

  HOMO= 109 E= -5.921 eV LUMO=  5.980 eV gap=  11.900 eV

               *****************************************************
               *                     SUCCESS                       *
               *           SCF CONVERGED AFTER   2 CYCLES          *
               *****************************************************

Recomputing exchange energy using gridx3       ... done (    8.058 sec)
Old exchange energy                            :    -42.067273687 Eh
New exchange energy                            :    -42.067293985 Eh
Exchange energy change after final integration :     -0.000020298 Eh
Total energy after final integration           :  -1165.509229617 Eh
             **** ENERGY FILE WAS UPDATED (inpJ.en.tmp) ****

----------------
TOTAL SCF ENERGY
----------------

Total Energy       :      -1165.50922961748006 Eh          -31715.11850 eV

Components:
Nuclear Repulsion  :       2746.18882006886042 Eh           74727.59687 eV
Electronic Energy  :      -3911.68245168303929 Eh         -106442.29093 eV
One Electron Energy:      -7034.45367186302246 Eh         -191417.21587 eV
Two Electron Energy:       3122.77122017998317 Eh           84974.92494 eV
CPCM Dielectric    :         -0.01557770552923 Eh              -0.42389 eV

Virial components:
Potential Energy   :      -2322.41258018633926 Eh          -63196.05913 eV
Kinetic Energy     :       1156.90335056885942 Eh           31480.94063 eV
Virial Ratio       :          2.00743871909818

DFT components:
N(Alpha)           :      110.000127958398 electrons
N(Beta)            :      110.000127958398 electrons
N(Total)           :      220.000255916796 electrons
E(X)               :     -125.745097050381 Eh       
E(C)               :       -7.324555582766 Eh       
E(XC)              :     -133.069652633148 Eh       

CPCM Solvation Model Properties:
Surface-charge          :         -0.03365655671648
Corrected charge        :         -0.00000000000000
Outlying charge corr.   :          0.00003919575752 Eh               0.00107 eV
Free-energy (cav+disp)  :  This term is not implemented in the current solvation scheme

---------------
SCF CONVERGENCE
---------------

  Last Energy change         ...    3.7181e-08  Tolerance :   1.0000e-07
  Last MAX-Density change    ...    3.4488e-06  Tolerance :   1.0000e-05
  Last RMS-Density change    ...    3.0405e-08  Tolerance :   1.0000e-06
  Last DIIS Error            ...    3.8584e-06  Tolerance :   1.0000e-07


----------------
ORBITAL ENERGIES
----------------

  NO   OCC          E(Eh)            E(eV) 
   0   2.0000     -19.215139      -522.8705 
   1   2.0000     -10.301392      -280.3151 
   2   2.0000     -10.269538      -279.4483 
   3   2.0000     -10.266827      -279.3746 
   4   2.0000     -10.261854      -279.2392 
   5   2.0000     -10.256216      -279.0858 
   6   2.0000     -10.253477      -279.0113 
   7   2.0000     -10.250196      -278.9220 
   8   2.0000     -10.249648      -278.9071 
   9   2.0000     -10.249256      -278.8964 
  10   2.0000     -10.248668      -278.8804 
  11   2.0000     -10.246122      -278.8112 
  12   2.0000     -10.245316      -278.7892 
  13   2.0000     -10.245021      -278.7812 
  14   2.0000     -10.244886      -278.7775 
  15   2.0000     -10.243908      -278.7509 
  16   2.0000     -10.243689      -278.7450 
  17   2.0000     -10.243126      -278.7296 
  18   2.0000     -10.242068      -278.7008 
  19   2.0000     -10.241117      -278.6750 
  20   2.0000     -10.239265      -278.6246 
  21   2.0000     -10.233893      -278.4784 
  22   2.0000     -10.233731      -278.4740 
  23   2.0000     -10.232606      -278.4434 
  24   2.0000     -10.226069      -278.2655 
  25   2.0000     -10.225827      -278.2589 
  26   2.0000     -10.224882      -278.2332 
  27   2.0000     -10.224146      -278.2132 
  28   2.0000     -10.220316      -278.1089 
  29   2.0000      -1.045910       -28.4607 
  30   2.0000      -0.900714       -24.5097 
  31   2.0000      -0.883683       -24.0462 
  32   2.0000      -0.859597       -23.3908 
  33   2.0000      -0.845746       -23.0139 
  34   2.0000      -0.822643       -22.3852 
  35   2.0000      -0.813932       -22.1482 
  36   2.0000      -0.795213       -21.6388 
  37   2.0000      -0.794807       -21.6278 
  38   2.0000      -0.777827       -21.1658 
  39   2.0000      -0.757439       -20.6110 
  40   2.0000      -0.739977       -20.1358 
  41   2.0000      -0.733839       -19.9688 
  42   2.0000      -0.713695       -19.4206 
  43   2.0000      -0.703509       -19.1435 
  44   2.0000      -0.699160       -19.0251 
  45   2.0000      -0.693518       -18.8716 
  46   2.0000      -0.669023       -18.2050 
  47   2.0000      -0.662911       -18.0387 
  48   2.0000      -0.630169       -17.1478 
  49   2.0000      -0.621729       -16.9181 
  50   2.0000      -0.619416       -16.8552 
  51   2.0000      -0.605485       -16.4761 
  52   2.0000      -0.596707       -16.2372 
  53   2.0000      -0.577544       -15.7158 
  54   2.0000      -0.563737       -15.3401 
  55   2.0000      -0.551289       -15.0013 
  56   2.0000      -0.540430       -14.7058 
  57   2.0000      -0.529817       -14.4170 
  58   2.0000      -0.515058       -14.0154 
  59   2.0000      -0.509017       -13.8510 
  60   2.0000      -0.498532       -13.5658 
  61   2.0000      -0.491180       -13.3657 
  62   2.0000      -0.483664       -13.1612 
  63   2.0000      -0.479921       -13.0593 
  64   2.0000      -0.475849       -12.9485 
  65   2.0000      -0.470260       -12.7964 
  66   2.0000      -0.462420       -12.5831 
  67   2.0000      -0.457145       -12.4396 
  68   2.0000      -0.456886       -12.4325 
  69   2.0000      -0.455168       -12.3858 
  70   2.0000      -0.448950       -12.2166 
  71   2.0000      -0.439603       -11.9622 
  72   2.0000      -0.432947       -11.7811 
  73   2.0000      -0.430565       -11.7163 
  74   2.0000      -0.425499       -11.5784 
  75   2.0000      -0.417821       -11.3695 
  76   2.0000      -0.414096       -11.2681 
  77   2.0000      -0.413809       -11.2603 
  78   2.0000      -0.408346       -11.1116 
  79   2.0000      -0.403777       -10.9873 
  80   2.0000      -0.401839       -10.9346 
  81   2.0000      -0.399995       -10.8844 
  82   2.0000      -0.398079       -10.8323 
  83   2.0000      -0.392168       -10.6714 
  84   2.0000      -0.387022       -10.5314 
  85   2.0000      -0.383775       -10.4431 
  86   2.0000      -0.378016       -10.2863 
  87   2.0000      -0.375706       -10.2235 
  88   2.0000      -0.368801       -10.0356 
  89   2.0000      -0.367267        -9.9938 
  90   2.0000      -0.363088        -9.8801 
  91   2.0000      -0.359386        -9.7794 
  92   2.0000      -0.352317        -9.5870 
  93   2.0000      -0.344343        -9.3701 
  94   2.0000      -0.341113        -9.2822 
  95   2.0000      -0.339775        -9.2457 
  96   2.0000      -0.333361        -9.0712 
  97   2.0000      -0.331999        -9.0342 
  98   2.0000      -0.330036        -8.9807 
  99   2.0000      -0.328170        -8.9300 
 100   2.0000      -0.326604        -8.8873 
 101   2.0000      -0.325897        -8.8681 
 102   2.0000      -0.316526        -8.6131 
 103   2.0000      -0.316250        -8.6056 
 104   2.0000      -0.311584        -8.4786 
 105   2.0000      -0.299286        -8.1440 
 106   2.0000      -0.280060        -7.6208 
 107   2.0000      -0.274819        -7.4782 
 108   2.0000      -0.258190        -7.0257 
 109   2.0000      -0.217578        -5.9206 
 110   0.0000      -0.030247        -0.8231 
 111   0.0000       0.021140         0.5753 
 112   0.0000       0.026608         0.7241 
 113   0.0000       0.080463         2.1895 
 114   0.0000       0.089418         2.4332 
 115   0.0000       0.101595         2.7645 
 116   0.0000       0.105198         2.8626 
 117   0.0000       0.107900         2.9361 
 118   0.0000       0.110096         2.9959 
 119   0.0000       0.115877         3.1532 
 120   0.0000       0.118532         3.2254 
*Only the first 10 virtual orbitals were printed.

                    ********************************
                    * MULLIKEN POPULATION ANALYSIS *
                    ********************************

-----------------------
MULLIKEN ATOMIC CHARGES
-----------------------
   0 C :    0.107826
   1 C :   -0.499943
   2 C :   -0.054926
   3 H :    0.207239
   4 H :    0.222169
   5 C :    0.135546
   6 C :   -0.475785
   7 C :   -0.451704
   8 H :    0.214206
   9 H :    0.224069
  10 H :    0.229101
  11 H :    0.204651
  12 O :   -0.487368
  13 H :    0.233914
  14 C :   -0.283411
  15 C :   -0.516736
  16 H :    0.201389
  17 H :    0.196740
  18 C :   -0.260012
  19 H :    0.217760
  20 C :    0.150999
  21 H :    0.219227
  22 C :   -0.480074
  23 C :   -0.427185
  24 H :    0.211643
  25 H :    0.206530
  26 C :   -0.397110
  27 H :    0.208067
  28 H :    0.216811
  29 C :    0.002891
  30 H :    0.221415
  31 H :    0.194052
  32 C :   -0.229070
  33 H :    0.226862
  34 C :   -0.433514
  35 H :    0.343144
  36 C :   -0.416179
  37 H :    0.207120
  38 H :    0.198119
  39 C :   -0.186486
  40 H :    0.206784
  41 H :    0.206128
  42 H :    0.209951
  43 C :   -0.250696
  44 C :   -0.626617
  45 H :    0.208530
  46 H :    0.200168
  47 H :    0.205314
  48 H :    0.219626
  49 C :   -0.620231
  50 C :   -0.176249
  51 C :   -0.176520
  52 H :    0.207340
  53 H :    0.212503
  54 C :   -0.243159
  55 C :   -0.626981
  56 C :   -0.198373
  57 H :    0.223933
  58 H :    0.220930
  59 C :   -0.612289
  60 C :   -0.618618
  61 H :    0.203618
  62 H :    0.198825
  63 H :    0.207717
  64 H :    0.204465
  65 H :    0.200770
  66 H :    0.197755
  67 H :    0.197937
  68 H :    0.204636
  69 H :    0.203262
  70 H :    0.202810
  71 H :    0.211355
  72 H :    0.193389
Sum of atomic charges:    0.0000000

--------------------------------
MULLIKEN REDUCED ORBITAL CHARGES
--------------------------------
  0 C s       :     3.355881  s :     3.355881
      pz      :     1.010170  p :     2.536293
      px      :     0.793617
      py      :     0.732505

  1 C s       :     3.383636  s :     3.383636
      pz      :     1.022776  p :     3.116307
      px      :     0.946038
      py      :     1.147493

  2 C s       :     3.306285  s :     3.306285
      pz      :     1.063802  p :     2.748641
      px      :     0.793858
      py      :     0.890981

  3 H s       :     0.792761  s :     0.792761

  4 H s       :     0.777831  s :     0.777831

  5 C s       :     3.345337  s :     3.345337
      pz      :     0.826583  p :     2.519117
      px      :     0.939201
      py      :     0.753332

  6 C s       :     3.368342  s :     3.368342
      pz      :     1.032204  p :     3.107443
      px      :     0.945173
      py      :     1.130066

  7 C s       :     3.340459  s :     3.340459
      pz      :     1.191440  p :     3.111245
      px      :     0.989188
      py      :     0.930617

  8 H s       :     0.785794  s :     0.785794

  9 H s       :     0.775931  s :     0.775931

 10 H s       :     0.770899  s :     0.770899

 11 H s       :     0.795349  s :     0.795349

 12 O s       :     3.685515  s :     3.685515
      pz      :     1.647469  p :     4.801853
      px      :     1.286670
      py      :     1.867714

 13 H s       :     0.766086  s :     0.766086

 14 C s       :     3.392531  s :     3.392531
      pz      :     1.008148  p :     2.890879
      px      :     0.803098
      py      :     1.079633

 15 C s       :     3.386885  s :     3.386885
      pz      :     0.999873  p :     3.129850
      px      :     1.012968
      py      :     1.117010

 16 H s       :     0.798611  s :     0.798611

 17 H s       :     0.803260  s :     0.803260

 18 C s       :     3.396832  s :     3.396832
      pz      :     1.030439  p :     2.863180
      px      :     0.752320
      py      :     1.080421

 19 H s       :     0.782240  s :     0.782240

 20 C s       :     3.350458  s :     3.350458
      pz      :     0.956659  p :     2.498543
      px      :     0.751472
      py      :     0.790413

 21 H s       :     0.780773  s :     0.780773

 22 C s       :     3.372487  s :     3.372487
      pz      :     1.097787  p :     3.107587
      px      :     1.124473
      py      :     0.885327

 23 C s       :     3.327101  s :     3.327101
      pz      :     1.090223  p :     3.100084
      px      :     0.899012
      py      :     1.110849

 24 H s       :     0.788357  s :     0.788357

 25 H s       :     0.793470  s :     0.793470

 26 C s       :     3.349570  s :     3.349570
      pz      :     1.177077  p :     3.047540
      px      :     0.958695
      py      :     0.911768

 27 H s       :     0.791933  s :     0.791933

 28 H s       :     0.783189  s :     0.783189

 29 C s       :     3.317502  s :     3.317502
      pz      :     0.868163  p :     2.679607
      px      :     0.906261
      py      :     0.905183

 30 H s       :     0.778585  s :     0.778585

 31 H s       :     0.805948  s :     0.805948

 32 C s       :     3.362594  s :     3.362594
      pz      :     1.070993  p :     2.866476
      px      :     0.872410
      py      :     0.923073

 33 H s       :     0.773138  s :     0.773138

 34 C s       :     3.344496  s :     3.344496
      pz      :     1.187027  p :     3.089018
      px      :     0.936784
      py      :     0.965207

 35 H s       :     0.656856  s :     0.656856

 36 C s       :     3.336207  s :     3.336207
      pz      :     1.164918  p :     3.079972
      px      :     0.940188
      py      :     0.974866

 37 H s       :     0.792880  s :     0.792880

 38 H s       :     0.801881  s :     0.801881

 39 C s       :     3.337389  s :     3.337389
      pz      :     1.056383  p :     2.849096
      px      :     0.866081
      py      :     0.926632

 40 H s       :     0.793216  s :     0.793216

 41 H s       :     0.793872  s :     0.793872

 42 H s       :     0.790049  s :     0.790049

 43 C s       :     3.346327  s :     3.346327
      pz      :     1.070271  p :     2.904369
      px      :     0.883111
      py      :     0.950988

 44 C s       :     3.366094  s :     3.366094
      pz      :     0.960348  p :     3.260523
      px      :     1.155743
      py      :     1.144432

 45 H s       :     0.791470  s :     0.791470

 46 H s       :     0.799832  s :     0.799832

 47 H s       :     0.794686  s :     0.794686

 48 H s       :     0.780374  s :     0.780374

 49 C s       :     3.347484  s :     3.347484
      pz      :     1.145474  p :     3.272747
      px      :     1.156123
      py      :     0.971150

 50 C s       :     3.333250  s :     3.333250
      pz      :     1.052841  p :     2.842999
      px      :     0.904619
      py      :     0.885539

 51 C s       :     3.335232  s :     3.335232
      pz      :     1.050831  p :     2.841289
      px      :     0.904303
      py      :     0.886154

 52 H s       :     0.792660  s :     0.792660

 53 H s       :     0.787497  s :     0.787497

 54 C s       :     3.339869  s :     3.339869
      pz      :     1.083666  p :     2.903290
      px      :     0.888299
      py      :     0.931325

 55 C s       :     3.346371  s :     3.346371
      pz      :     1.150827  p :     3.280610
      px      :     1.160980
      py      :     0.968803

 56 C s       :     3.311730  s :     3.311730
      pz      :     0.886913  p :     2.886642
      px      :     0.880078
      py      :     1.119651

 57 H s       :     0.776067  s :     0.776067

 58 H s       :     0.779070  s :     0.779070

 59 C s       :     3.341408  s :     3.341408
      pz      :     1.110155  p :     3.270881
      px      :     1.015463
      py      :     1.145264

 60 C s       :     3.344086  s :     3.344086
      pz      :     1.002287  p :     3.274532
      px      :     1.166129
      py      :     1.106116

 61 H s       :     0.796382  s :     0.796382

 62 H s       :     0.801175  s :     0.801175

 63 H s       :     0.792283  s :     0.792283

 64 H s       :     0.795535  s :     0.795535

 65 H s       :     0.799230  s :     0.799230

 66 H s       :     0.802245  s :     0.802245

 67 H s       :     0.802063  s :     0.802063

 68 H s       :     0.795364  s :     0.795364

 69 H s       :     0.796738  s :     0.796738

 70 H s       :     0.797190  s :     0.797190

 71 H s       :     0.788645  s :     0.788645

 72 H s       :     0.806611  s :     0.806611


------------------------
MULLIKEN OVERLAP CHARGES
------------------------
B(  0-C ,  1-C ) :   0.4960 B(  0-C ,  2-C ) :  -0.1306 B(  0-C ,  3-H ) :  -0.0876 
B(  0-C ,  4-H ) :  -0.0673 B(  0-C ,  5-C ) :   0.4215 B(  0-C ,  6-C ) :  -0.1563 
B(  0-C , 14-C ) :   0.9462 B(  0-C , 15-C ) :  -0.2027 B(  0-C , 18-C ) :  -0.1836 
B(  0-C , 19-H ) :  -0.0751 B(  1-C ,  2-C ) :   0.5270 B(  1-C ,  3-H ) :   0.7958 
B(  1-C ,  4-H ) :   0.8137 B(  1-C ,  5-C ) :  -0.1483 B(  1-C ,  7-C ) :  -0.1691 
B(  1-C , 12-O ) :  -0.0832 B(  1-C , 13-H ) :  -0.0843 B(  1-C , 14-C ) :  -0.1079 
B(  2-C ,  3-H ) :  -0.0820 B(  2-C ,  4-H ) :  -0.0581 B(  2-C ,  6-C ) :  -0.1288 
B(  2-C ,  7-C ) :   0.5343 B(  2-C , 10-H ) :  -0.0697 B(  2-C , 11-H ) :  -0.0825 
B(  2-C , 12-O ) :   0.6904 B(  2-C , 13-H ) :   0.7985 B(  2-C , 35-H ) :  -0.1132 
B(  5-C ,  6-C ) :   0.5389 B(  5-C ,  7-C ) :  -0.1712 B(  5-C ,  8-H ) :  -0.0880 
B(  5-C ,  9-H ) :  -0.0737 B(  5-C , 14-C ) :  -0.1964 B(  5-C , 15-C ) :   1.0582 
B(  5-C , 16-H ) :  -0.0995 B(  5-C , 17-H ) :  -0.0943 B(  6-C ,  7-C ) :   0.5411 
B(  6-C ,  8-H ) :   0.8037 B(  6-C ,  9-H ) :   0.8190 B(  6-C , 11-H ) :  -0.0738 
B(  6-C , 15-C ) :  -0.1290 B(  7-C ,  8-H ) :  -0.0769 B(  7-C , 10-H ) :   0.8058 
B(  7-C , 11-H ) :   0.7945 B(  7-C , 12-O ) :  -0.0901 B(  7-C , 13-H ) :  -0.0842 
B( 12-O , 35-H ) :   0.6599 B( 14-C , 18-C ) :   0.6127 B( 14-C , 19-H ) :   0.8252 
B( 14-C , 20-C ) :  -0.1952 B( 14-C , 21-H ) :  -0.0733 B( 15-C , 16-H ) :   0.8143 
B( 15-C , 17-H ) :   0.8069 B( 18-C , 19-H ) :  -0.0610 B( 18-C , 20-C ) :   0.9216 
B( 18-C , 21-H ) :   0.8317 B( 18-C , 22-C ) :  -0.1497 B( 18-C , 32-C ) :  -0.1483 
B( 20-C , 21-H ) :  -0.0846 B( 20-C , 22-C ) :   0.5327 B( 20-C , 23-C ) :  -0.1705 
B( 20-C , 24-H ) :  -0.0667 B( 20-C , 25-H ) :  -0.0929 B( 20-C , 29-C ) :  -0.1246 
B( 20-C , 32-C ) :   0.5180 B( 20-C , 33-H ) :  -0.0918 B( 20-C , 34-C ) :  -0.0986 
[...]
        0.0000         1.7553        0.0000
        0.0000         0.0000        1.7553

 Diagonalized JT*J matrix:
 
 J[55,60](FC)             1.755            1.755            1.755  iso=      1.755
                ---------------  ---------------  ---------------  ---------------
 J[55,60](Total)          1.755            1.755            1.755  iso=      1.755



-----------------------------------------------------------
 NUCLEUS A = C   56 NUCLEUS B = C   59 
 ( 13C  gnA =  1.405  13C  gnB =  1.405) r(AB) =     1.5312
-----------------------------------------------------------

Fermi-contact contribution to J (Hz):
       26.3436         0.0000        0.0000
        0.0000        26.3436        0.0000
        0.0000         0.0000       26.3436

Total spin-spin coupling tensor J (Hz):
       26.3436         0.0000        0.0000
        0.0000        26.3436        0.0000
        0.0000         0.0000       26.3436

 Diagonalized JT*J matrix:
 
 J[56,59](FC)            26.344           26.344           26.344  iso=     26.344
                ---------------  ---------------  ---------------  ---------------
 J[56,59](Total)         26.344           26.344           26.344  iso=     26.344



-----------------------------------------------------------
 NUCLEUS A = C   56 NUCLEUS B = C   60 
 ( 13C  gnA =  1.405  13C  gnB =  1.405) r(AB) =     1.5308
-----------------------------------------------------------

Fermi-contact contribution to J (Hz):
       26.4123         0.0000        0.0000
        0.0000        26.4123        0.0000
        0.0000         0.0000       26.4123

Total spin-spin coupling tensor J (Hz):
       26.4123         0.0000        0.0000
        0.0000        26.4123        0.0000
        0.0000         0.0000       26.4123

 Diagonalized JT*J matrix:
 
 J[56,60](FC)            26.412           26.412           26.412  iso=     26.412
                ---------------  ---------------  ---------------  ---------------
 J[56,60](Total)         26.412           26.412           26.412  iso=     26.412



-----------------------------------------------------------
 NUCLEUS A = C   59 NUCLEUS B = C   60 
 ( 13C  gnA =  1.405  13C  gnB =  1.405) r(AB) =     2.5137
-----------------------------------------------------------

Fermi-contact contribution to J (Hz):
       -0.9053         0.0000        0.0000
        0.0000        -0.9053        0.0000
        0.0000         0.0000       -0.9053

Total spin-spin coupling tensor J (Hz):
       -0.9053         0.0000        0.0000
        0.0000        -0.9053        0.0000
        0.0000         0.0000       -0.9053

 Diagonalized JT*J matrix:
 
 J[59,60](FC)            -0.905           -0.905           -0.905  iso=     -0.905
                ---------------  ---------------  ---------------  ---------------
 J[59,60](Total)         -0.905           -0.905           -0.905  iso=     -0.905



-----------------------------------------------------------------------------
                SUMMARY OF ISOTROPIC COUPLING CONSTANTS J (Hz)                
-----------------------------------------------------------------------------
                  0 C        1 C        2 C        5 C        6 C        7 C  
      0 C        0.000     32.412     -2.380     42.216     -0.174      0.887
      1 C       32.412      0.000     25.330     -1.181      0.382     -0.384
      2 C       -2.380     25.330      0.000      2.026     -1.356     25.817
      5 C       42.216     -1.181      2.026      0.000     31.008     -2.890
      6 C       -0.174      0.382     -1.356     31.008      0.000     23.085
      7 C        0.887     -0.384     25.817     -2.890     23.085      0.000
     14 C       70.213     -0.379      3.573     -3.188      2.737     -0.706
     15 C       -3.283      2.729     -0.835     64.270     -0.890      2.837
     18 C       -2.639      4.230     -1.069      3.283     -1.015      0.207
     20 C        6.955     -1.154      1.255     -1.509      0.782     -0.146
     22 C       -0.945      0.334     -0.380      0.447     -0.236      0.047
     23 C        0.791     -0.269      0.290     -0.332      0.188      0.000
     26 C       -0.077      0.030      0.000      0.041      0.000      0.000
     29 C        1.130     -0.362      0.000     -0.489      0.258      0.000
     32 C       -1.152      0.556     -0.414      0.515     -0.276      0.058
     34 C        0.021     -0.015      0.016     -0.017      0.008     -0.002
     36 C       -0.013      0.000      0.000      0.015     -0.008      0.000
     39 C       -0.078      0.000      0.000      0.033      0.000      0.000
     43 C        0.000      0.000      0.000      0.000      0.000      0.000
     44 C        0.006     -0.002      0.003     -0.005      0.005     -0.001
     49 C        0.000      0.000      0.000      0.000      0.000      0.000
     50 C        0.000      0.000      0.000      0.000      0.000      0.000
     51 C        0.000      0.000      0.000      0.000      0.000      0.000
     54 C        0.000      0.000      0.000      0.000      0.000      0.000
     55 C        0.000      0.000      0.000      0.000      0.000      0.000
     56 C        0.000      0.000      0.000      0.000      0.000      0.000
     59 C        0.000      0.000      0.000      0.000      0.000      0.000
     60 C        0.000      0.000      0.000      0.000      0.000      0.000
                 14 C       15 C       18 C       20 C       22 C       23 C  
      0 C       70.213     -3.283     -2.639      6.955     -0.945      0.791
      1 C       -0.379      2.729      4.230     -1.154      0.334     -0.269
      2 C        3.573     -0.835     -1.069      1.255     -0.380      0.290
      5 C       -3.188     64.270      3.283     -1.509      0.447     -0.332
      6 C        2.737     -0.890     -1.015      0.782     -0.236      0.188
      7 C       -0.706      2.837      0.207     -0.146      0.047      0.000
     14 C        0.000      3.066     54.486     -2.781      3.867     -0.888
     15 C        3.066      0.000     -1.125      1.072     -0.276      0.236
     18 C       54.486     -1.125      0.000     70.014     -2.172      2.465
     20 C       -2.781      1.072     70.014      0.000     32.248     -2.861
     22 C        3.867     -0.276     -2.172     32.248      0.000     24.474
     23 C       -0.888      0.236      2.465     -2.861     24.474      0.000
     26 C        0.115     -0.021     -0.366      1.021     -1.920     25.406
     29 C       -1.158      0.343      2.403     -2.366      1.109     -2.189
     32 C        4.410     -0.338     -1.327     36.959     -0.221      1.520
     34 C        0.066      0.004      2.462     -1.341      1.613     -0.251
     36 C        0.011     -0.014     -0.150      3.415      0.071      0.180
     39 C        0.265     -0.023     -0.043      2.893     -0.335      2.530
     43 C        0.013      0.000      0.300      0.194      0.001     -0.111
     44 C        0.004      0.003     -0.076      0.700     -0.135      0.617
     49 C        0.000      0.000     -0.010     -0.050      0.136      0.042
     50 C        0.000      0.000      0.024      0.130     -0.006      0.115
     51 C        0.000      0.000      0.017      0.049      0.000     -0.003
     54 C        0.000      0.000      0.000      0.000      0.000      0.000
     55 C        0.000      0.000      0.000      0.000      0.000      0.000
     56 C        0.000      0.000      0.000      0.000      0.000      0.000
     59 C        0.000      0.000      0.000      0.000      0.000      0.000
     60 C        0.000      0.000      0.000      0.000      0.000      0.000
                 26 C       29 C       32 C       34 C       36 C       39 C  
      0 C       -0.077      1.130     -1.152      0.021     -0.013     -0.078
      1 C        0.030     -0.362      0.556     -0.015      0.000      0.000
      2 C        0.000      0.000     -0.414      0.016      0.000      0.000
      5 C        0.041     -0.489      0.515     -0.017      0.015      0.033
      6 C        0.000      0.258     -0.276      0.008     -0.008      0.000
      7 C        0.000      0.000      0.058     -0.002      0.000      0.000
     14 C        0.115     -1.158      4.410      0.066      0.011      0.265
     15 C       -0.021      0.343     -0.338      0.004     -0.014     -0.023
     18 C       -0.366      2.403     -1.327      2.462     -0.150     -0.043
     20 C        1.021     -2.366     36.959     -1.341      3.415      2.893
     22 C       -1.920      1.109     -0.221      1.613      0.071     -0.335
     23 C       25.406     -2.189      1.520     -0.251      0.180      2.530
     26 C        0.000     27.815     -0.930      2.300      3.032     -0.603
     29 C       27.815      0.000     23.337      0.787      0.777     28.334
     32 C       -0.930     23.337      0.000     27.898      1.183      3.364
     34 C        2.300      0.787     27.898      0.000     25.937      0.213
     36 C        3.032      0.777      1.183     25.937      0.000     27.022
     39 C       -0.603     28.334      3.364      0.213     27.022      0.000
     43 C       -0.022     -0.618      2.718      1.819      0.365     28.806
     44 C       -0.566     27.246     -0.964      0.797      0.291     -1.176
     49 C        0.349      0.072     -0.032      0.045      3.214     -1.248
     50 C       -0.119      3.536     -0.085     -0.041      0.646     -1.946
     51 C       -0.022      0.225      0.123      0.066     -0.014      3.236
     54 C       -0.001      0.091     -0.015     -0.004     -0.028     -0.537
     55 C        0.000      0.116      0.033     -0.005     -0.027      0.890
     56 C        0.000      0.009      0.000      0.007      0.055      0.711
     59 C        0.000      0.000      0.000      0.000      0.001      0.024
     60 C        0.000      0.000      0.000     -0.000     -0.002     -0.021
                 43 C       44 C       49 C       50 C       51 C       54 C  
      0 C        0.000      0.006      0.000      0.000      0.000      0.000
      1 C        0.000     -0.002      0.000      0.000      0.000      0.000
      2 C        0.000      0.003      0.000      0.000      0.000      0.000
      5 C        0.000     -0.005      0.000      0.000      0.000      0.000
      6 C        0.000      0.005      0.000      0.000      0.000      0.000
      7 C        0.000     -0.001      0.000      0.000      0.000      0.000
     14 C        0.013      0.004      0.000      0.000      0.000      0.000
     15 C        0.000      0.003      0.000      0.000      0.000      0.000
     18 C        0.300     -0.076     -0.010      0.024      0.017      0.000
     20 C        0.194      0.700     -0.050      0.130      0.049      0.000
     22 C        0.001     -0.135      0.136     -0.006      0.000      0.000
     23 C       -0.111      0.617      0.042      0.115     -0.003      0.000
     26 C       -0.022     -0.566      0.349     -0.119     -0.022     -0.001
     29 C       -0.618     27.246      0.072      3.536      0.225      0.091
     32 C        2.718     -0.964     -0.032     -0.085      0.123     -0.015
     34 C        1.819      0.797      0.045     -0.041      0.066     -0.004
     36 C        0.365      0.291      3.214      0.646     -0.014     -0.028
     39 C       28.806     -1.176     -1.248     -1.946      3.236     -0.537
     43 C        0.000      1.441     25.897     35.954     -0.367      4.168
     44 C        1.441      0.000     -0.097     -0.165     -0.007      0.001
     49 C       25.897     -0.097      0.000     -2.968      3.549     -0.755
     50 C       35.954     -0.165     -2.968      0.000     68.995     -0.333
     51 C       -0.367     -0.007      3.549     68.995      0.000     36.336
     54 C        4.168      0.001     -0.755     -0.333     36.336      0.000
     55 C       -0.585     -0.003      0.852      3.569     -2.287     26.077
     56 C       -0.673     -0.000      1.174      3.239     -2.250     25.689
     59 C        0.079      0.000      0.110     -0.002      3.042     -0.394
     60 C        0.032      0.000     -0.033     -0.123      0.928     -1.659
                 55 C       56 C       59 C       60 C  
      0 C        0.000      0.000      0.000      0.000
      1 C        0.000      0.000      0.000      0.000
      2 C        0.000      0.000      0.000      0.000
      5 C        0.000      0.000      0.000      0.000
      6 C        0.000      0.000      0.000      0.000
      7 C        0.000      0.000      0.000      0.000
     14 C        0.000      0.000      0.000      0.000
     15 C        0.000      0.000      0.000      0.000
     18 C        0.000      0.000      0.000      0.000
     20 C        0.000      0.000      0.000      0.000
     22 C        0.000      0.000      0.000      0.000
     23 C        0.000      0.000      0.000      0.000
     26 C        0.000      0.000      0.000      0.000
     29 C        0.116      0.009      0.000      0.000
     32 C        0.033      0.000      0.000      0.000
     34 C       -0.005      0.007      0.000     -0.000
     36 C       -0.027      0.055      0.001     -0.002
     39 C        0.890      0.711      0.024     -0.021
     43 C       -0.585     -0.673      0.079      0.032
     44 C       -0.003     -0.000      0.000      0.000
     49 C        0.852      1.174      0.110     -0.033
     50 C        3.569      3.239     -0.002     -0.123
     51 C       -2.287     -2.250      3.042      0.928
     54 C       26.077     25.689     -0.394     -1.659
     55 C        0.000     -1.912      0.632      1.755
     56 C       -1.912      0.000     26.344     26.412
     59 C        0.632     26.344      0.000     -0.905
     60 C        1.755     26.412     -0.905      0.000

NMR spin-spin coupling calculation done in   0.3 sec 

Maximum memory used throughout the entire PROP-calculation: 33.7 MB

--------------------------------
SUGGESTED CITATIONS FOR THIS RUN
--------------------------------

Below you find a list of papers that are relevant to this ORCA run
We neither can nor want to force you to cite these papers, but we appreciate if you do
You receive ORCA, which is the product of decades of hard work by many enthusiastic individuals, for free
The only thing we kindly ask in return is that you cite our papers,
We deeply appreciate it, if you show your appreciation for ORCA by not just citing the generic ORCA reference.

Please note that relegating all ORCA citations to the supporting information does *not* help us.
SI sections are not indexed - citations you put there will not count into any citation statistics
But we need these citations in order to attract the funding resources that allow us to do what we are doing

Therefore, if you are a happy ORCA user, please consider citing a few of the papers listed below in the main body of your paper

In addition to the list printed below, the program has created the file inpJ.bibtex that contains the list in bibtex format
You can import this file easily into all common literature databanks and citation aid programs


List of essential papers. We consider these as the minimum necessary citations

  1. Neese,F.
     Software update: the ORCA program system, version 5.0
     WIRES Comput. Molec. Sci., 2022 12(1)e1606
     doi.org/10.1002/wcms.1606

List of papers to cite with high priority. The work reported in these papers was absolutely
necessary for this run to complete.
Our perspective: the developers of density functionals and basis sets usually get cited in chemistry papers
Good! But without the algorithms to do something with them, the functionals or basis sets would not do anything.
Hence, in our opinion, the algorithm design and method developments papers are equally worthy of getting cited

  1. Neese,F.
     An improvement of the resolution of the identity approximation for the formation of the Coulomb matrix
     J. Comp. Chem., 2003 24(14)1740-1747
     doi.org/10.1002/jcc.10318
  2. Neese,F.; Wennmohs,F.; Hansen,A.; Becker,U.
     Efficient, approximate and parallel Hartree-Fock and hybrid DFT calculations. A 'chain-of-spheres' algorithm for the Hartree-Fock exchange
     Chem. Phys., 2009 356(1-3)98-109
     doi.org/10.1016/j.chemphys.2008.10.036
  3. Stoychev,G.L.; Auer,A.A.; Izsak,R.; Neese,F.
     Self-Consistent Field Calculation of Nuclear Magnetic Resonance Chemical Shielding Constants Using Gauge-Including Atomic Orbitals and Approximate Two-Electron Integrals
     J. Chem. Theory Comput., 2018 14(2)619-637
     doi.org/10.1021/acs.jctc.7b01006
  4. Garcia-Rates,M.; Neese,F.
     Effect of the Solute Cavity on the Solvation Energy and its Derivatives within the Framework of the Gaussian Charge Scheme
     J. Comput. Chem., 2020 41 922-939
     doi.org/10.1002/jcc.26139
  5. Helmich-Paris,B.; de Souza,B.; Neese,F.; Izsák,R.
     An improved chain of spheres for exchange algorithm
     J. Chem. Phys., 2021 155 104109
     doi.org/doi: 10.1063/5.0058766.
  6. Neese,F.
     The SHARK Integral Generation and Digestion System
     J. Comp. Chem., 2022  1-16
     doi.org/10.1002/jcc.26942
  7. Grimme,S.; Bannwarth,C.; Dohm,S.; Hansen,A.; Pisarek,J.; Pracht,P.; Seibert,J.; Neese,F.
     Fully Automated Quantum-Chemistry-Based Computation of Spin-Spin-Coupled Nuclear Magnetic Resonance Spectra
     Angew. Chem., Int. Ed., 2017 56 14763-14769
     doi.org/10.1002/anie.201708266
  8. Caldeweyher,E.; Bannwarth,C.; Grimme,S.
     Extension of the D3 dispersion coefficient model
     J. Chem. Phys., 2017 147 034112-XXXX
     doi.org/10.1063/1.4993215
  9. Caldeweyher,E.; Ehlert,S.; Hansen,A.; Neugebauer,H.; Spicher,S.; Bannwarth,C.; Grimme,S.
     A generally applicable atomic-charge dependent London dispersion correction
     J. Chem. Phys., 2019 150 154122-XXXX
     doi.org/10.1063/1.5090222
 10. Caldeweyher,E.; Mewes,J.; Ehlert,S.; Grimme,S.
     Extension and evaluation of the D4 London-dispersion model for periodic systems
     Phys. Chem. Chem. Phys., 2020 22(16)8499-8512
     doi.org/10.1039/D0CP00502A

List of suggested additional citations. These are papers that are important in the 'surrounding' of 
of this run, or papers that preceded the highly important papers. If you like your results we are grateful for a citation.

  1. Izsak,R.; Neese,F.
     An overlap fitted chain of spheres exchange method
     J. Chem. Phys., 2011 135 144105
     doi.org/10.1063/1.3646921
  2. Izsak,R.; Hansen,A.; Neese,F.
     The resolution of identity and chain of spheres approximations for the LPNO-CCSD singles Fock term
     Molec. Phys., 2012 110 2413-2417
     doi.org/10.1080/00268976.2012.687466
  3. Neese,F.
     The ORCA program system
     WIRES Comput. Molec. Sci., 2012 2(1)73-78
     doi.org/10.1002/wcms.81
  4. Izsak,R.; Neese,F.; Klopper,W.
     Robust fitting techniques in the chain of spheres approximation to the Fock exchange: The role of the complementary space
     J. Chem. Phys., 2013 139 
     doi.org/10.1063/1.4819264
  5. Neese,F.
     Software update: the ORCA program system, version 4.0
     WIRES Comput. Molec. Sci., 2018 8(1)1-6
     doi.org/10.1002/wcms.1327
  6. Neese,F.; Wennmohs,F.; Becker,U.; Riplinger,C.
     The ORCA quantum chemistry program package
     J. Chem. Phys., 2020 152 Art. No. L224108
     doi.org/10.1063/5.0004608

Timings for individual modules:

Sum of individual times          ...      136.188 sec (=   2.270 min)
Startup calculation              ...        3.901 sec (=   0.065 min)   2.9 %
SCF iterations                   ...       18.782 sec (=   0.313 min)  13.8 %
Property integrals               ...        0.629 sec (=   0.010 min)   0.5 %
SCF Response                     ...      112.349 sec (=   1.872 min)  82.5 %
Property calculations            ...        0.527 sec (=   0.009 min)   0.4 %
                             ****ORCA TERMINATED NORMALLY****
TOTAL RUN TIME: 0 days 0 hours 2 minutes 16 seconds 451 msec
