
                                 *****************
                                 * O   R   C   A *
                                 *****************

                                            #,                                       
                                            ###                                      
                                            ####                                     
                                            #####                                    
                                            ######                                   
                                           ########,                                 
                                     ,,################,,,,,                         
                               ,,#################################,,                 
                          ,,##########################################,,             
                       ,#########################################, ''#####,          
                    ,#############################################,,   '####,        
                  ,##################################################,,,,####,       
                ,###########''''           ''''###############################       
              ,#####''   ,,,,##########,,,,          '''####'''          '####       
            ,##' ,,,,###########################,,,                        '##       
           ' ,,###''''                  '''############,,,                           
         ,,##''                                '''############,,,,        ,,,,,,###''
      ,#''                                            '''#######################'''  
     '                                                          ''''####''''         
             ,#######,   #######,   ,#######,      ##                                
            ,#'     '#,  ##    ##  ,#'     '#,    #''#        ,####,   ,####,        
            ##       ##  ##   ,#'  ##            #'  '#       #'       #'  '#        
            ##       ##  #######   ##           ,######,      #####,   #    #        
            '#,     ,#'  ##    ##  '#,     ,#' ,#      #,     #,   #   #,  ,#        
             '#######'   ##     ##  '#######'  #'      '#     '####' # '####'        



                #########################################################
                #                        -***-                          #
                #          Department of theory and spectroscopy        #
                #                                                       #
                #                      Frank Neese                      #
                #                                                       #
                #     Directorship, Architecture, Infrastructure        #
                #                    SHARK, DRIVERS                     #
                #        Core code/Algorithms in most modules           #
                #                                                       #
                #        Max Planck Institute fuer Kohlenforschung      #
                #                Kaiser Wilhelm Platz 1                 #
                #                 D-45470 Muelheim/Ruhr                 #
                #                      Germany                          #
                #                                                       #
                #                  All rights reserved                  #
                #                        -***-                          #
                #########################################################


                         Program Version 6.0.0  -   RELEASE  -


 With contributions from (in alphabetic order):
   Daniel Aravena         : Magnetic Suceptibility
   Michael Atanasov       : Ab Initio Ligand Field Theory (pilot matlab implementation)
   Alexander A. Auer      : GIAO ZORA, VPT2 properties, NMR spectrum
   Ute Becker             : All parallelization in ORCA, NUMFREQ, NUMCALC
   Giovanni Bistoni       : ED, misc. LED, open-shell LED, HFLD
   Martin Brehm           : Molecular dynamics
   Dmytro Bykov           : pre 5.0 version of the SCF Hessian
   Marcos Casanova-Páez   : Triplet and SCS-CIS(D). UHF-(DLPNO)-IP/EA/STEOM-CCSD. UHF-CVS-IP/STEOM-CCSD
   Vijay G. Chilkuri      : MRCI spin determinant printing, contributions to CSF-ICE
   Pauline Colinet        : FMM embedding
   Dipayan Datta          : RHF DLPNO-CCSD density
   Achintya Kumar Dutta   : EOM-CC, STEOM-CC
   Nicolas Foglia         : Exact transition moments, OPA infrastructure, MCD improvements
   Dmitry Ganyushin       : Spin-Orbit,Spin-Spin,Magnetic field MRCI
   Miquel Garcia          : C-PCM and meta-GGA Hessian, CCSD/C-PCM, Gaussian charge scheme
   Tiago L. C. Gouveia    : GS-ROHF, GS-ROCIS
   Yang Guo               : DLPNO-NEVPT2, F12-NEVPT2, CIM, IAO-localization
   Andreas Hansen         : Spin unrestricted coupled pair/coupled cluster methods
   Ingolf Harden          : AUTO-CI MPn and infrastructure 
   Benjamin Helmich-Paris : MC-RPA, TRAH-(SCF,CASSCF), AVAS, COSX integrals, SCF dyn. polar.
   Lee Huntington         : MR-EOM, pCC
   Robert Izsak           : Overlap fitted RIJCOSX, COSX-SCS-MP3, EOM
   Riya Kayal             : Wick's Theorem for AUTO-CI, AUTO-CI UHF-CCSDT
   Emily Kempfer          : AUTO-CI, RHF CISDT and CCSDT
   Christian Kollmar      : KDIIS, OOCD, Brueckner-CCSD(T), CCSD density, CASPT2, CASPT2-K, improved NEVPT2
   Axel Koslowski         : Symmetry handling
   Simone Kossmann        : Meta GGA functionals, TD-DFT gradient, OOMP2, (MP2 Hessian; deprecated post 5.0)
   Lucas Lang             : DCDCAS
   Marvin Lechner         : AUTO-CI (C++ implementation), FIC-MRCC
   Spencer Leger          : CASSCF response
   Dagmar Lenk            : GEPOL surface, SMD, ORCA-2-JSON
   Dimitrios Liakos       : Extrapolation schemes; Compound Job, initial MDCI parallelization
   Dimitrios Manganas     : Further ROCIS development; embedding schemes. LFT, Crystal Embedding
   Dimitrios Pantazis     : SARC Basis sets
   Anastasios Papadopoulos: AUTO-CI, single reference methods and gradients
   Taras Petrenko         : pre 6.0 DFT Hessian and TD-DFT gradient, (ASA, deprecated), ECA, 1-Electron XAS/XES, NRVS
   Peter Pinski           : DLPNO-MP2, DLPNO-MP2 Gradient
   Christoph Reimann      : Effective Core Potentials
   Marius Retegan         : Local ZFS, SOC
   Christoph Riplinger    : Optimizer, TS searches, QM/MM, DLPNO-CCSD(T), (RO)-DLPNO pert. Triples
   Michael Roemelt        : Original ROCIS implementation
   Masaaki Saitow         : Open-shell DLPNO-CCSD energy and density
   Barbara Sandhoefer     : DKH picture change effects
   Kantharuban Sivalingam : CASSCF convergence/infrastructure, NEVPT2 and variants, FIC-MRCI
   Bernardo de Souza      : ESD, SOC TD-DFT
   Georgi Stoychev        : AutoAux, RI-MP2 NMR, DLPNO-MP2 response, X2C
   Van Anh Tran           : RI-MP2 g-tensors
   Willem Van den Heuvel  : Paramagnetic NMR
   Zikuan Wang            : NOTCH, Electric field optimization 
   Frank Wennmohs         : Technical directorship and infrastructure
   Hang Xu                : AUTO-CI-Response properties 


 We gratefully acknowledge several colleagues who have allowed us to
 interface, adapt or use parts of their codes:
   Stefan Grimme, W. Hujo, H. Kruse, P. Pracht,  : VdW corrections, initial TS optimization,
                  C. Bannwarth, S. Ehlert,         DFT functionals, gCP, sTDA/sTD-DF
                  L. Wittmann, M. Mueller
   Ed Valeev, F. Pavosevic, A. Kumar             : LibInt (2-el integral package), F12 methods
   Garnet Chan, S. Sharma, J. Yang, R. Olivares  : DMRG
   Ulf Ekstrom                                   : XCFun DFT Library
   Mihaly Kallay                                 : mrcc  (arbitrary order and MRCC methods)
   Frank Weinhold                                : gennbo (NPA and NBO analysis)
   Simon Mueller                                 : openCOSMO-RS
   Christopher J. Cramer and Donald G. Truhlar   : smd solvation model
   Lars Goerigk                                  : TD-DFT with DH, B97 family of functionals
   V. Asgeirsson, H. Jonsson                     : NEB implementation
   FAccTs GmbH                                   : IRC, NEB, NEB-TS, DLPNO-Multilevel, CI-OPT
                                                   MM, QMMM, 2- and 3-layer-ONIOM, Crystal-QMMM,
                                                   LR-CPCM, SF, NACMEs, symmetry and pop. for TD-DFT,
                                                   nearIR, NL-DFT gradient (VV10), updates on ESD,
                                                   ML-optimized integration grids, MBIS, APM,
                                                   GOAT, DOCKER, SOLVATOR, interface openCOSMO-RS
   S Lehtola, MJT Oliveira, MAL Marques          : LibXC Library
   Liviu Ungur et al                             : ANISO software


 Your calculation uses the libint2 library for the computation of 2-el integrals
 For citations please refer to: http://libint.valeyev.net

 Your ORCA version has been built with support for libXC version: 6.2.2
 For citations please refer to: https://libxc.gitlab.io

 This ORCA versions uses:
   CBLAS   interface :  Fast vector & matrix operations
   LAPACKE interface :  Fast linear algebra routines
   SCALAPACK package :  Parallel linear algebra routines
   Shared memory     :  Shared parallel matrices
   BLAS/LAPACK       :  OpenBLAS 0.3.27  USE64BITINT DYNAMIC_ARCH NO_AFFINITY Zen SINGLE_THREADED
        Core in use  :  Zen
   Copyright (c) 2011-2014, The OpenBLAS Project


NOTE: MaxCore=8000 MB was set to SCF,MP2,MDCI,CIPSI,MRCI and CIS
      => If you want to overwrite this, your respective input block should be placed after the MaxCore statement
Your calculation utilizes the atom-pairwise dispersion correction
based on EEQ partial charges (D4)


================================================================================

----- Orbital basis set information -----
Your calculation utilizes the basis: def2-SVP
   F. Weigend and R. Ahlrichs, Phys. Chem. Chem. Phys. 7, 3297 (2005).

----- AuxJ basis set information -----
Your calculation utilizes the auxiliary basis: def2/J
   F. Weigend, Phys. Chem. Chem. Phys. 8, 1057 (2006).

================================================================================
                                        WARNINGS
                       Please study these warnings very carefully!
================================================================================

WARNING: Old DensityContainer found on disk!
         Will remove this file - 
         If you want to keep old densities, please start your calculation with a different basename. 


================================================================================
                                       INPUT FILE
================================================================================
NAME = inpS
|  1> ! wb97x-d4
|  2> ! def2-svp
|  3> ! def2/J RIJCOSX
|  4> ! DEFGRID2
|  5> ! scfconv7
|  6> ! smallprint printgap noloewdin
|  7> ! NOSOSCF
|  8> %MaxCore 8000
|  9> %output
| 10>        print[P_BondOrder_M] 1
| 11>        print[P_Mayer] 1
| 12>        print[P_basis] 2
| 13> end
| 14> %pal
| 15>     nprocs 4
| 16> end
| 17> ! CPCM(chloroform)
| 18> *xyz 0 1
| 19> C   -5.0323440900   0.2823565300   0.3395864400
| 20> C   -6.4371360000  -0.1660747500   0.0118432300
| 21> C   -7.0008549800   0.5752523100  -1.2064825600
| 22> H   -7.1007232100   0.0562327000   0.8648022800
| 23> H   -6.4675480500  -1.2473059700  -0.1620135400
| 24> C   -4.8708571000   1.7487746100   0.4354579900
| 25> C   -5.4795437600   2.5218984700  -0.7125743900
| 26> C   -6.9233705700   2.0825770900  -0.9916659000
| 27> H   -4.8787411700   2.3334922000  -1.6153201300
| 28> H   -5.4356803900   3.5971813400  -0.5098627700
| 29> H   -7.3144630000   2.6023394600  -1.8742253000
| 30> H   -7.5624309900   2.3497395700  -0.1364971700
| 31> O   -8.3366608500   0.1465978200  -1.5017606800
| 32> H   -6.4140760000   0.3027336100  -2.0949035400
| 33> C   -4.0303544800  -0.6178309000   0.4789591900
| 34> C   -4.2779936100   2.3577105100   1.4688606500
| 35> H   -3.8689623000   1.7910449700   2.3006282800
| 36> H   -4.1993651100   3.4415589900   1.5090188900
| 37> C   -2.6335024900  -0.3209569600   0.6954446300
| 38> H   -4.3086385000  -1.6657374100   0.3753596500
| 39> C   -1.6466380800  -1.2178753500   0.9083206100
| 40> H   -2.3612335200   0.7317340800   0.6708491600
| 41> C   -1.8230226200  -2.7110178500   1.0222122700
| 42> C   -0.8791755000  -3.4744453100   0.0738529600
| 43> H   -2.8568026100  -3.0216764500   0.8475713700
| 44> H   -1.5766641600  -3.0002371700   2.0565520100
| 45> C    0.5815726400  -3.0194384200   0.1993391500
| 46> H   -1.2219401100  -3.3377726200  -0.9595062300
| 47> H   -0.9485732400  -4.5485768900   0.2852670000
| 48> C    0.7231024000  -1.5010960300   0.0240084500
| 49> H    1.1874910600  -3.5637633200  -0.5325064200
| 50> H    0.9611224000  -3.2911635300   1.1959339500
| 51> C   -0.2117942300  -0.8203073500   1.0736980000
| 52> H    0.1154197900  -1.2363165600   2.0447541000
| 53> C    0.2069958100   0.6465792200   1.0509619400
| 54> H   -8.8900776300   0.3742584900  -0.7426991900
| 55> C    1.7376692800   0.5831793300   0.8254014900
| 56> H   -0.0669859600   1.1681894300   1.9740992300
| 57> H   -0.2800630700   1.1760697100   0.2244310000
| 58> C    2.0857641300  -0.8892012900   0.4521659900
| 59> H    2.2956532100   0.8971582300   1.7131592100
| 60> H    2.0429983500   1.2569008100   0.0161528800
| 61> H    2.3889145000  -1.4213945900   1.3687116300
| 62> C    3.2752100800  -0.9584391900  -0.5273973000
| 63> C    0.3528101900  -1.0731494100  -1.4022174400
| 64> H   -0.7110267600  -1.2323697700  -1.6031715300
| 65> H    0.9255472700  -1.6466155200  -2.1394468200
| 66> H    0.5618619500  -0.0121486100  -1.5716432200
| 67> H    3.0053744300  -0.4047800100  -1.4389392200
| 68> C    3.6632864400  -2.3921283100  -0.9189366700
| 69> C    4.4674376100  -0.2757131200   0.0888690900
| 70> C    5.0842492800   0.7962934800  -0.4065303400
| 71> H    4.8413361500  -0.7232722000   1.0154868000
| 72> H    4.6959516700   1.2437776400  -1.3252928300
| 73> C    6.2764020200   1.4702735000   0.2145067700
| 74> C    5.9348803900   2.9313039900   0.5438333600
| 75> C    7.5423767900   1.3196331300  -0.6737255300
| 76> H    6.4966229300   0.9487624600   1.1580669500
| 77> H    7.6170418100   0.2466431400  -0.9066320400
| 78> C    8.8122669600   1.7164779900   0.0842894200
| 79> C    7.4532388200   2.0809393200  -1.9987469700
| 80> H    5.1056940400   2.9710261700   1.2579825100
| 81> H    5.6243240000   3.4760760200  -0.3545823600
| 82> H    6.7861133400   3.4599919300   0.9851887300
| 83> H    9.7025919800   1.4851197600  -0.5110882200
| 84> H    8.8913279300   1.1788728400   1.0360767800
| 85> H    8.8312085700   2.7911800300   0.2984557100
| 86> H    7.4414015000   3.1644019100  -1.8330598700
| 87> H    6.5568339700   1.8150178900  -2.5685865500
| 88> H    8.3242501200   1.8544992800  -2.6236705400
| 89> H    4.5902017000  -2.3871031300  -1.5024319500
| 90> H    2.8887521900  -2.8698747800  -1.5240977500
| 91> H    3.8271783800  -3.0082753600  -0.0263941800
| 92> *
| 93> %eprnmr
| 94>  Nuclei = all C { shift }
| 95>  origin giao
| 96>  giao_2el giao_2el_same_as_scf
| 97>  giao_1el giao_1el_analytic
| 98> end
| 99> 
|100>                          ****END OF INPUT****
================================================================================

                       ****************************
                       * Single Point Calculation *
                       ****************************

---------------------------------
CARTESIAN COORDINATES (ANGSTROEM)
---------------------------------
  C     -5.032344    0.282357    0.339586
  C     -6.437136   -0.166075    0.011843
  C     -7.000855    0.575252   -1.206483
  H     -7.100723    0.056233    0.864802
  H     -6.467548   -1.247306   -0.162014
  C     -4.870857    1.748775    0.435458
  C     -5.479544    2.521898   -0.712574
  C     -6.923371    2.082577   -0.991666
  H     -4.878741    2.333492   -1.615320
  H     -5.435680    3.597181   -0.509863
  H     -7.314463    2.602339   -1.874225
  H     -7.562431    2.349740   -0.136497
  O     -8.336661    0.146598   -1.501761
  H     -6.414076    0.302734   -2.094904
  C     -4.030354   -0.617831    0.478959
  C     -4.277994    2.357711    1.468861
  H     -3.868962    1.791045    2.300628
  H     -4.199365    3.441559    1.509019
  C     -2.633502   -0.320957    0.695445
  H     -4.308638   -1.665737    0.375360
  C     -1.646638   -1.217875    0.908321
  H     -2.361234    0.731734    0.670849
  C     -1.823023   -2.711018    1.022212
  C     -0.879175   -3.474445    0.073853
  H     -2.856803   -3.021676    0.847571
  H     -1.576664   -3.000237    2.056552
  C      0.581573   -3.019438    0.199339
  H     -1.221940   -3.337773   -0.959506
  H     -0.948573   -4.548577    0.285267
  C      0.723102   -1.501096    0.024008
  H      1.187491   -3.563763   -0.532506
  H      0.961122   -3.291164    1.195934
  C     -0.211794   -0.820307    1.073698
  H      0.115420   -1.236317    2.044754
  C      0.206996    0.646579    1.050962
  H     -8.890078    0.374258   -0.742699
  C      1.737669    0.583179    0.825401
  H     -0.066986    1.168189    1.974099
  H     -0.280063    1.176070    0.224431
  C      2.085764   -0.889201    0.452166
  H      2.295653    0.897158    1.713159
  H      2.042998    1.256901    0.016153
  H      2.388914   -1.421395    1.368712
  C      3.275210   -0.958439   -0.527397
  C      0.352810   -1.073149   -1.402217
  H     -0.711027   -1.232370   -1.603172
  H      0.925547   -1.646616   -2.139447
  H      0.561862   -0.012149   -1.571643
  H      3.005374   -0.404780   -1.438939
  C      3.663286   -2.392128   -0.918937
  C      4.467438   -0.275713    0.088869
  C      5.084249    0.796293   -0.406530
  H      4.841336   -0.723272    1.015487
  H      4.695952    1.243778   -1.325293
  C      6.276402    1.470274    0.214507
  C      5.934880    2.931304    0.543833
  C      7.542377    1.319633   -0.673726
  H      6.496623    0.948762    1.158067
  H      7.617042    0.246643   -0.906632
  C      8.812267    1.716478    0.084289
  C      7.453239    2.080939   -1.998747
  H      5.105694    2.971026    1.257983
  H      5.624324    3.476076   -0.354582
  H      6.786113    3.459992    0.985189
  H      9.702592    1.485120   -0.511088
  H      8.891328    1.178873    1.036077
  H      8.831209    2.791180    0.298456
  H      7.441401    3.164402   -1.833060
  H      6.556834    1.815018   -2.568587
  H      8.324250    1.854499   -2.623671
  H      4.590202   -2.387103   -1.502432
  H      2.888752   -2.869875   -1.524098
  H      3.827178   -3.008275   -0.026394

----------------------------
CARTESIAN COORDINATES (A.U.)
----------------------------
  NO LB      ZA    FRAG     MASS         X           Y           Z
   0 C     6.0000    0    12.011   -9.509752    0.533577    0.641725
   1 C     6.0000    0    12.011  -12.164424   -0.313836    0.022380
   2 C     6.0000    0    12.011  -13.229699    1.087069   -2.279922
   3 H     1.0000    0     1.008  -13.418422    0.106264    1.634239
   4 H     1.0000    0     1.008  -12.221895   -2.357067   -0.306161
   5 C     6.0000    0    12.011   -9.204586    3.304705    0.822896
   6 C     6.0000    0    12.011  -10.354837    4.765697   -1.346570
   7 C     6.0000    0    12.011  -13.083274    3.935500   -1.873977
   8 H     1.0000    0     1.008   -9.219485    4.409661   -3.052513
   9 H     1.0000    0     1.008  -10.271947    6.797688   -0.963501
  10 H     1.0000    0     1.008  -13.822332    4.917709   -3.541773
  11 H     1.0000    0     1.008  -14.290923    4.440364   -0.257942
  12 O     8.0000    0    15.999  -15.754006    0.277030   -2.837916
  13 H     1.0000    0     1.008  -12.120847    0.572084   -3.958794
  14 C     6.0000    0    12.011   -7.616266   -1.167531    0.905102
  15 C     6.0000    0    12.011   -8.084236    4.455427    2.775744
  16 H     1.0000    0     1.008   -7.311279    3.384584    4.347557
  17 H     1.0000    0     1.008   -7.935650    6.503604    2.851632
  18 C     6.0000    0    12.011   -4.976598   -0.606521    1.314200
  19 H     1.0000    0     1.008   -8.142147   -3.147788    0.709327
  20 C     6.0000    0    12.011   -3.111695   -2.301451    1.716477
  21 H     1.0000    0     1.008   -4.462085    1.382777    1.267721
  22 C     6.0000    0    12.011   -3.445013   -5.123081    1.931701
  23 C     6.0000    0    12.011   -1.661401   -6.565750    0.139562
  24 H     1.0000    0     1.008   -5.398575   -5.710141    1.601678
  25 H     1.0000    0     1.008   -2.979463   -5.669627    3.886320
  26 C     6.0000    0    12.011    1.099013   -5.705912    0.376696
  27 H     1.0000    0     1.008   -2.309132   -6.307476   -1.813204
  28 H     1.0000    0     1.008   -1.792544   -8.595565    0.539077
  29 C     6.0000    0    12.011    1.366466   -2.836660    0.045369
  30 H     1.0000    0     1.008    2.244033   -6.734537   -1.006291
  31 H     1.0000    0     1.008    1.816258   -6.219398    2.259988
  32 C     6.0000    0    12.011   -0.400233   -1.550156    2.028995
  33 H     1.0000    0     1.008    0.218112   -2.336300    3.864025
  34 C     6.0000    0    12.011    0.391165    1.221858    1.986030
  35 H     1.0000    0     1.008  -16.799812    0.707246   -1.403498
  36 C     6.0000    0    12.011    3.283719    1.102049    1.559783
  37 H     1.0000    0     1.008   -0.126585    2.207558    3.730507
  38 H     1.0000    0     1.008   -0.529243    2.222450    0.424113
  39 C     6.0000    0    12.011    3.941523   -1.680347    0.854470
  40 H     1.0000    0     1.008    4.338156    1.695383    3.237402
  41 H     1.0000    0     1.008    3.860707    2.375198    0.030525
  42 H     1.0000    0     1.008    4.514394   -2.686047    2.586490
  43 C     6.0000    0    12.011    6.189250   -1.811188   -0.996636
  44 C     6.0000    0    12.011    0.666715   -2.027958   -2.649807
  45 H     1.0000    0     1.008   -1.343646   -2.328841   -3.029555
  46 H     1.0000    0     1.008    1.749031   -3.111652   -4.042969
  47 H     1.0000    0     1.008    1.061765   -0.022958   -2.969975
  48 H     1.0000    0     1.008    5.679335   -0.764923   -2.719201
  49 C     6.0000    0    12.011    6.922608   -4.520467   -1.736539
  50 C     6.0000    0    12.011    8.442234   -0.521022    0.167938
  51 C     6.0000    0    12.011    9.607839    1.504777   -0.768231
  52 H     1.0000    0     1.008    9.148799   -1.366786    1.918992
  53 H     1.0000    0     1.008    8.874063    2.350399   -2.504440
  54 C     6.0000    0    12.011   11.860681    2.778414    0.405359
  55 C     6.0000    0    12.011   11.215299    5.539362    1.027696
  56 C     6.0000    0    12.011   14.253027    2.493745   -1.273157
  57 H     1.0000    0     1.008   12.276838    1.792901    2.188429
  58 H     1.0000    0     1.008   14.394123    0.466088   -1.713286
  59 C     6.0000    0    12.011   16.652771    3.243673    0.159284
  60 C     6.0000    0    12.011   14.084580    3.932405   -3.777084
  61 H     1.0000    0     1.008    9.648363    5.614426    2.377242
  62 H     1.0000    0     1.008   10.628432    6.568832   -0.670064
  63 H     1.0000    0     1.008   12.823896    6.538437    1.861737
  64 H     1.0000    0     1.008   18.335242    2.806470   -0.965817
  65 H     1.0000    0     1.008   16.802175    2.227747    1.957901
  66 H     1.0000    0     1.008   16.688566    5.274566    0.564000
  67 H     1.0000    0     1.008   14.062211    5.979853   -3.463981
  68 H     1.0000    0     1.008   12.390621    3.429887   -4.853925
  69 H     1.0000    0     1.008   15.730553    3.504496   -4.958019
  70 H     1.0000    0     1.008    8.674224   -4.510971   -2.839185
  71 H     1.0000    0     1.008    5.458951   -5.423277   -2.880127
  72 H     1.0000    0     1.008    7.232319   -5.684817   -0.049878

--------------------------------
INTERNAL COORDINATES (ANGSTROEM)
--------------------------------
 C      0   0   0     0.000000000000     0.00000000     0.00000000
 C      1   0   0     1.510611311683     0.00000000     0.00000000
 C      2   1   0     1.533513165538   111.75957703     0.00000000
 H      2   1   3     1.103316694598   109.37644225   241.45316044
 H      2   1   3     1.095541884349   110.68452824   122.88515919
 C      1   2   3     1.478394868562   114.21101752    50.40678859
 C      6   1   2     1.512017955744   114.45425459   312.14404478
 C      3   2   1     1.524525507694   110.32432004   305.04498062
 H      7   6   1     1.100640970441   108.38983396   289.89518438
 H      7   6   1     1.095102390933   110.20584535   172.69908496
 H      8   3   2     1.096365497724   109.70455601   179.13909299
 H      8   3   2     1.100494238013   108.66342251   296.59174045
 O      3   2   1     1.433635644881   111.19887052   180.35384392
 H      3   2   1     1.099030414012   109.03153451    65.19089488
 C      1   2   3     1.354158539877   120.87028325   232.53403301
 C      6   1   2     1.337987707634   123.36102978   129.95760416
 H     16   6   1     1.086394880833   121.38415603     0.63529524
 H     16   6   1     1.087438574288   120.94213358   181.32643282
 C     15   1   2     1.444366838428   126.46889498   175.28192785
 H     15   1   2     1.089166155449   116.15052496   357.96711156
 C     19  15   1     1.350437019970   126.43055718   176.04783812
 H     19  15   1     1.087609192158   115.95420539   355.30233090
 C     21  19  15     1.507832000415   125.74085382   357.12138622
 C     23  21  19     1.540472087861   111.87473908   127.85396546
 H     23  21  19     1.093484923276   112.32502088     3.72318748
 H     23  21  19     1.101906985012   107.73788273   246.54427379
 C     24  23  21     1.535110153162   112.69379546    50.68947716
 H     24  23  21     1.097268525757   109.06551489   288.59176584
 H     24  23  21     1.096936914220   109.13915853   172.63571578
 C     27  24  23     1.534970729558   111.81366354   306.27416565
 H     27  24  23     1.094999847847   108.93958578   182.75190926
 H     27  24  23     1.100497047296   109.20957388    66.25797808
 C     21  19  15     1.498061036684   122.75686103   177.67076885
 H     33  21  19     1.105930661044   106.28936271   124.11196053
 C     33  21  19     1.525666488874   121.09318086     1.87963391
 H     13   3   2     0.966578428609   107.53646149    62.64290321
 C     35  33  21     1.548501964615   103.54102233   196.33741255
 H     35  33  21     1.095137287128   112.13008634    74.29576549
 H     35  33  21     1.095782791599   110.72125897   314.71108243
 C     30  27  24     1.553892223517   116.03368177   166.34084552
 H     37  35  33     1.094551316843   111.96411601   249.47856869
 H     37  35  33     1.096362069021   110.95560418   130.90820322
 H     40  30  27     1.102354646019   106.26883768   320.97743776
 C     40  30  27     1.542439559232   118.91952202    81.73917293
 C     30  27  24     1.534397249627   111.08798188   294.31362146
 H     45  30  27     1.094295538468   111.39046588    66.68713673
 H     45  30  27     1.095626898566   110.69003925   306.55011936
 H     45  30  27     1.094591444736   111.60006198   186.66265840
 H     44  40  30     1.100117465331   108.32920675    61.43494690
 C     44  40  30     1.536024359266   113.49137487   300.62906942
 C     44  40  30     1.505757494881   109.28732028   178.59579516
 C     51  44  40     1.332319549484   125.39452310   241.62035353
 H     51  44  40     1.094865118994   115.55831299    62.11214885
 H     52  51  44     1.093225329204   118.51611534     1.27321795
 C     52  51  44     1.503716833332   125.03709678   180.12313359
 C     55  52  51     1.536132520113   109.79024345   239.73825108
 C     55  52  51     1.553815065609   111.49346742   113.30452863
 H     55  52  51     1.100353046674   107.48116348   357.14686442
 H     57  55  52     1.100512528894   105.71078535   309.50798088
 C     57  55  52     1.531239220760   111.56658565   192.91770488
 C     57  55  52     1.530756188649   113.52541676    67.46217853
 H     56  55  52     1.095051077830   110.03921374    60.83837833
 H     56  55  52     1.095615188825   111.10875109   301.79225662
 H     56  55  52     1.094944307120   111.88924209   180.85106007
 H     60  57  55     1.095755358663   110.49621961   172.86367338
 H     60  57  55     1.095978609709   111.26012799    52.85070049
 H     60  57  55     1.095997472233   111.41966501   292.18637563
 H     61  57  55     1.096122037540   111.18515614    66.90957920
 H     61  57  55     1.094976259547   112.17013658   305.79187612
 H     61  57  55     1.095657448651   110.15916315   185.85528870
 H     50  44  40     1.095291693312   110.20155536   187.63730271
 H     50  44  40     1.092870041115   111.72282269    67.73803794
 H     50  44  40     1.096872760021   110.77118813   307.13656073

---------------------------
INTERNAL COORDINATES (A.U.)
---------------------------
 C      0   0   0     0.000000000000     0.00000000     0.00000000
 C      1   0   0     2.854641673885     0.00000000     0.00000000
 C      2   1   0     2.897919905630   111.75957703     0.00000000
 H      2   1   3     2.084966391773   109.37644225   241.45316044
 H      2   1   3     2.070274129659   110.68452824   122.88515919
 C      1   2   3     2.793761419376   114.21101752    50.40678859
 C      6   1   2     2.857299845927   114.45425459   312.14404478
 C      3   2   1     2.880935693718   110.32432004   305.04498062
 H      7   6   1     2.079910005908   108.38983396   289.89518438
 H      7   6   1     2.069443607465   110.20584535   172.69908496
 H      8   3   2     2.071830533379   109.70455601   179.13909299
 H      8   3   2     2.079632721803   108.66342251   296.59174045
 O      3   2   1     2.709178744653   111.19887052   180.35384392
 H      3   2   1     2.076866495333   109.03153451    65.19089488
 C      1   2   3     2.558988782277   120.87028325   232.53403301
 C      6   1   2     2.528430337981   123.36102978   129.95760416
 H     16   6   1     2.052988798068   121.38415603     0.63529524
 H     16   6   1     2.054961092867   120.94213358   181.32643282
 C     15   1   2     2.729457761546   126.46889498   175.28192785
 H     15   1   2     2.058225748135   116.15052496   357.96711156
 C     19  15   1     2.551956128852   126.43055718   176.04783812
 H     19  15   1     2.055283513913   115.95420539   355.30233090
 C     21  19  15     2.849389536747   125.74085382   357.12138622
 C     23  21  19     2.911070363007   111.87473908   127.85396546
 H     23  21  19     2.066387036563   112.32502088     3.72318748
 H     23  21  19     2.082302426727   107.73788273   246.54427379
 C     24  23  21     2.900937774878   112.69379546    50.68947716
 H     24  23  21     2.073537009053   109.06551489   288.59176584
 H     24  23  21     2.072910354065   109.13915853   172.63571578
 C     27  24  23     2.900674302449   111.81366354   306.27416565
 H     27  24  23     2.069249829115   108.93958578   182.75190926
 H     27  24  23     2.079638030579   109.20957388    66.25797808
 C     21  19  15     2.830925091230   122.75686103   177.67076885
 H     33  21  19     2.089906072479   106.28936271   124.11196053
 C     33  21  19     2.883091835674   121.09318086     1.87963391
 H     13   3   2     1.826568517026   107.53646149    62.64290321
 C     35  33  21     2.926244630962   103.54102233   196.33741255
 H     35  33  21     2.069509551717   112.13008634    74.29576549
 H     35  33  21     2.070729378386   110.72125897   314.71108243
 C     30  27  24     2.936430744076   116.03368177   166.34084552
 H     37  35  33     2.068402228356   111.96411601   249.47856869
 H     37  35  33     2.071824054068   110.95560418   130.90820322
 H     40  30  27     2.083148383431   106.26883768   320.97743776
 C     40  30  27     2.914788345074   118.91952202    81.73917293
 C     30  27  24     2.899590582437   111.08798188   294.31362146
 H     45  30  27     2.067918877277   111.39046588    66.68713673
 H     45  30  27     2.070434783247   110.69003925   306.55011936
 H     45  30  27     2.068478059083   111.60006198   186.66265840
 H     44  40  30     2.078920724619   108.32920675    61.43494690
 C     44  40  30     2.902665374044   113.49137487   300.62906942
 C     44  40  30     2.845469289425   109.28732028   178.59579516
 C     51  44  40     2.517719071393   125.39452310   241.62035353
 H     51  44  40     2.068995228482   115.55831299    62.11214885
 H     52  51  44     2.065896474862   118.51611534     1.27321795
 C     52  51  44     2.841612997965   125.03709678   180.12313359
 C     55  52  51     2.902869768424   109.79024345   239.73825108
 C     55  52  51     2.936284936762   111.49346742   113.30452863
 H     55  52  51     2.079365908840   107.48116348   357.14686442
 H     57  55  52     2.079667286558   105.71078535   309.50798088
 C     57  55  52     2.893622772756   111.56658565   192.91770488
 C     57  55  52     2.892709974352   113.52541676    67.46217853
 H     56  55  52     2.069346639753   110.03921374    60.83837833
 H     56  55  52     2.070412655043   111.10875109   301.79225662
 H     56  55  52     2.069144872353   111.88924209   180.85106007
 H     60  57  55     2.070677537650   110.49621961   172.86367338
 H     60  57  55     2.071099420986   111.26012799    52.85070049
 H     60  57  55     2.071135065991   111.41966501   292.18637563
 H     61  57  55     2.071370460306   111.18515614    66.90957920
 H     61  57  55     2.069205253689   112.17013658   305.79187612
 H     61  57  55     2.070492514541   110.15916315   185.85528870
 H     50  44  40     2.069801337118   110.20155536   187.63730271
 H     50  44  40     2.065225077675   111.72282269    67.73803794
 H     50  44  40     2.072789120198   110.77118813   307.13656073

---------------------
BASIS SET INFORMATION
---------------------
There are 3 groups of distinct atoms

 Group   1 Type C   : 7s4p1d contracted to 3s2p1d pattern {511/31/1}
 Group   2 Type H   : 4s1p contracted to 2s1p pattern {31/1}
 Group   3 Type O   : 7s4p1d contracted to 3s2p1d pattern {511/31/1}

Atom   0C    basis set group =>   1
Atom   1C    basis set group =>   1
Atom   2C    basis set group =>   1
Atom   3H    basis set group =>   2
Atom   4H    basis set group =>   2
Atom   5C    basis set group =>   1
Atom   6C    basis set group =>   1
Atom   7C    basis set group =>   1
Atom   8H    basis set group =>   2
Atom   9H    basis set group =>   2
Atom  10H    basis set group =>   2
Atom  11H    basis set group =>   2
Atom  12O    basis set group =>   3
Atom  13H    basis set group =>   2
Atom  14C    basis set group =>   1
Atom  15C    basis set group =>   1
Atom  16H    basis set group =>   2
Atom  17H    basis set group =>   2
Atom  18C    basis set group =>   1
Atom  19H    basis set group =>   2
Atom  20C    basis set group =>   1
Atom  21H    basis set group =>   2
Atom  22C    basis set group =>   1
Atom  23C    basis set group =>   1
Atom  24H    basis set group =>   2
Atom  25H    basis set group =>   2
Atom  26C    basis set group =>   1
Atom  27H    basis set group =>   2
Atom  28H    basis set group =>   2
Atom  29C    basis set group =>   1
Atom  30H    basis set group =>   2
Atom  31H    basis set group =>   2
Atom  32C    basis set group =>   1
Atom  33H    basis set group =>   2
Atom  34C    basis set group =>   1
Atom  35H    basis set group =>   2
Atom  36C    basis set group =>   1
Atom  37H    basis set group =>   2
Atom  38H    basis set group =>   2
Atom  39C    basis set group =>   1
Atom  40H    basis set group =>   2
Atom  41H    basis set group =>   2
Atom  42H    basis set group =>   2
Atom  43C    basis set group =>   1
Atom  44C    basis set group =>   1
Atom  45H    basis set group =>   2
Atom  46H    basis set group =>   2
Atom  47H    basis set group =>   2
Atom  48H    basis set group =>   2
Atom  49C    basis set group =>   1
Atom  50C    basis set group =>   1
Atom  51C    basis set group =>   1
Atom  52H    basis set group =>   2
Atom  53H    basis set group =>   2
Atom  54C    basis set group =>   1
Atom  55C    basis set group =>   1
Atom  56C    basis set group =>   1
Atom  57H    basis set group =>   2
Atom  58H    basis set group =>   2
Atom  59C    basis set group =>   1
Atom  60C    basis set group =>   1
Atom  61H    basis set group =>   2
Atom  62H    basis set group =>   2
Atom  63H    basis set group =>   2
Atom  64H    basis set group =>   2
Atom  65H    basis set group =>   2
Atom  66H    basis set group =>   2
Atom  67H    basis set group =>   2
Atom  68H    basis set group =>   2
Atom  69H    basis set group =>   2
Atom  70H    basis set group =>   2
Atom  71H    basis set group =>   2
Atom  72H    basis set group =>   2

-------------------------
BASIS SET IN INPUT FORMAT
-------------------------

 # Basis set for element : H 
 NewGTO H 
 S 3 
   1      13.0107010000      0.0334854848
   2       1.9622572000      0.2347218709
   3       0.4445379600      0.8137702853
 S 1 
   1       0.1219496200      1.0000000000
 P 1 
   1       0.8000000000      1.0000000000
  end;

 # Basis set for element : C 
 NewGTO C 
 S 5 
   1    1238.4016938000      0.0055173650
   2     186.2900499200      0.0410888285
   3      42.2511763460      0.1822538213
   4      11.6765579320      0.4682845944
   5       3.5930506482      0.4457581734
 S 1 
   1       0.4024514736      1.0000000000
 S 1 
   1       0.1309018267      1.0000000000
 P 3 
   1       9.4680970621      0.0568883320
   2       2.0103545142      0.3129405934
   3       0.5477100471      0.7606501651
 P 1 
   1       0.1526861379      1.0000000000
 D 1 
   1       0.8000000000      1.0000000000
  end;

 # Basis set for element : O 
 NewGTO O 
 S 5 
   1    2266.1767785000     -0.0053893504
   2     340.8701019100     -0.0402347214
   3      77.3631351670     -0.1800818421
   4      21.4796449400     -0.4682885766
   5       6.6589433124     -0.4469261716
 S 1 
   1       0.8097597567      1.0000000000
 S 1 
   1       0.2553077223      1.0000000000
 P 3 
   1      17.7215043170      0.0626302488
   2       3.8635505440      0.3333113849
   3       1.0480920883      0.7414863830
 P 1 
   1       0.2764154441      1.0000000000
 D 1 
   1       1.2000000000      1.0000000000
  end;

---------------------------------
AUXILIARY/J BASIS SET INFORMATION
---------------------------------
There are 3 groups of distinct atoms

 Group   1 Type C   : 12s5p4d2f1g contracted to 6s4p3d1f1g pattern {711111/2111/211/2/1}
 Group   2 Type H   : 5s2p1d contracted to 3s1p1d pattern {311/2/1}
 Group   3 Type O   : 12s5p4d2f1g contracted to 6s4p3d1f1g pattern {711111/2111/211/2/1}

Atom   0C    basis set group =>   1
Atom   1C    basis set group =>   1
Atom   2C    basis set group =>   1
Atom   3H    basis set group =>   2
Atom   4H    basis set group =>   2
Atom   5C    basis set group =>   1
Atom   6C    basis set group =>   1
Atom   7C    basis set group =>   1
Atom   8H    basis set group =>   2
Atom   9H    basis set group =>   2
Atom  10H    basis set group =>   2
Atom  11H    basis set group =>   2
Atom  12O    basis set group =>   3
Atom  13H    basis set group =>   2
Atom  14C    basis set group =>   1
Atom  15C    basis set group =>   1
Atom  16H    basis set group =>   2
Atom  17H    basis set group =>   2
Atom  18C    basis set group =>   1
Atom  19H    basis set group =>   2
Atom  20C    basis set group =>   1
Atom  21H    basis set group =>   2
Atom  22C    basis set group =>   1
Atom  23C    basis set group =>   1
Atom  24H    basis set group =>   2
Atom  25H    basis set group =>   2
Atom  26C    basis set group =>   1
Atom  27H    basis set group =>   2
Atom  28H    basis set group =>   2
Atom  29C    basis set group =>   1
Atom  30H    basis set group =>   2
Atom  31H    basis set group =>   2
Atom  32C    basis set group =>   1
Atom  33H    basis set group =>   2
Atom  34C    basis set group =>   1
Atom  35H    basis set group =>   2
Atom  36C    basis set group =>   1
Atom  37H    basis set group =>   2
Atom  38H    basis set group =>   2
Atom  39C    basis set group =>   1
Atom  40H    basis set group =>   2
Atom  41H    basis set group =>   2
Atom  42H    basis set group =>   2
Atom  43C    basis set group =>   1
Atom  44C    basis set group =>   1
Atom  45H    basis set group =>   2
Atom  46H    basis set group =>   2
Atom  47H    basis set group =>   2
Atom  48H    basis set group =>   2
Atom  49C    basis set group =>   1
Atom  50C    basis set group =>   1
Atom  51C    basis set group =>   1
Atom  52H    basis set group =>   2
Atom  53H    basis set group =>   2
Atom  54C    basis set group =>   1
Atom  55C    basis set group =>   1
Atom  56C    basis set group =>   1
Atom  57H    basis set group =>   2
Atom  58H    basis set group =>   2
Atom  59C    basis set group =>   1
Atom  60C    basis set group =>   1
Atom  61H    basis set group =>   2
Atom  62H    basis set group =>   2
Atom  63H    basis set group =>   2
Atom  64H    basis set group =>   2
Atom  65H    basis set group =>   2
Atom  66H    basis set group =>   2
Atom  67H    basis set group =>   2
Atom  68H    basis set group =>   2
Atom  69H    basis set group =>   2
Atom  70H    basis set group =>   2
Atom  71H    basis set group =>   2
Atom  72H    basis set group =>   2

-------------------------------------
AUXILIARY/J BASIS SET IN INPUT FORMAT
-------------------------------------

 # Auxiliary/J basis set for element : H 
 NewAuxJGTO H 
 S 3 
   1      15.6752927000      0.1007184237
   2       3.6063578000      0.3404257499
   3       1.2080016000      0.6491996172
 S 1 
   1       0.4726794000      1.0000000000
 S 1 
   1       0.2018100000      1.0000000000
 P 2 
   1       2.0281365000      0.5596620919
   2       0.5358730000      0.5596620919
 D 1 
   1       2.2165124000      1.0000000000
  end;

 # Auxiliary/J basis set for element : C 
 NewAuxJGTO C 
 S 7 
   1    1861.0916331000      0.0134602335
   2     642.9939764000      0.0299160374
   3     235.1105725000      0.1008649584
   4      90.7028894000      0.2370970548
   5      36.7794552000      0.3924037254
   6      15.6046273000      0.3195862154
   7       6.8907294000      0.0530104441
 S 1 
   1       3.1478850000     -1.0000000000
 S 1 
   1       1.4777287000      1.0000000000
 S 1 
   1       0.7076466000      1.0000000000
 S 1 
   1       0.3430122000      1.0000000000
 S 1 
   1       0.1669453000      1.0000000000
 P 2 
   1      13.5472892000     -0.6769313712
   2       5.4669419000     -0.3779500978
 P 1 
   1       2.1751721000      1.0000000000
 P 1 
   1       0.8582194000      1.0000000000
 P 1 
   1       0.3376720000      1.0000000000
 D 2 
   1       5.9287253000     -0.3533329857
   2       1.9809209000     -0.7456525731
 D 1 
   1       0.8055417000     -1.0000000000
 D 1 
   1       0.3531244000     -1.0000000000
 F 2 
   1       1.6755626000      0.6311076882
   2       0.5997536000      0.4968166032
 G 1 
   1       1.0024600000     -1.0000000000
  end;

 # Auxiliary/J basis set for element : O 
 NewAuxJGTO O 
 S 7 
   1    2876.8216605000      0.0168151159
   2    1004.7443032000      0.0340137548
   3     369.7579954000      0.1194951309
   4     142.9442404000      0.2664627624
   5      57.8366425000      0.4202764046
   6      24.3864983000      0.2765077335
   7      10.6622662000      0.0057008815
 S 1 
   1       4.8070437000     -1.0000000000
 S 1 
   1       2.2210770000      1.0000000000
 S 1 
   1       1.0447795000      1.0000000000
 S 1 
   1       0.4968425000      1.0000000000
 S 1 
   1       0.2371384000      1.0000000000
 P 2 
   1      64.2613382000     -0.2731534179
   2      16.3006076000     -0.8168011598
 P 1 
   1       4.3550542000      1.0000000000
 P 1 
   1       1.2019554000      1.0000000000
 P 1 
   1       0.3354196000      1.0000000000
 D 2 
   1       9.2146611000     -0.4661230638
   2       2.8435251000     -0.6600908911
 D 1 
   1       0.9955759000     -1.0000000000
 D 1 
   1       0.3649441000     -1.0000000000
 F 2 
   1       2.6420115000      0.5931563945
   2       0.7345613000      0.5931563945
 G 1 
   1       1.3931000000     -1.0000000000
  end;


Checking for AutoStart:
The File: inpS.gbw exists
Trying to determine its content:
     ... Fine, the file contains calculation information
     ... Fine, the calculation information was read
     ... Fine, the file contains a basis set
     ... Fine, the basis set was read
     ... Fine, the file contains a geometry
     ... Fine, the geometry was read
     ... Fine, the file contains a set of orbitals
     ... Fine, the orbitals can be read
     => possible old guess file was deleted
     => GBW file was renamed to GES file
     => GES file is set as startup file
     => Guess is set to MORead
     ... now leaving AutoStart



           ************************************************************
           *        Program running with 4 parallel MPI-processes     *
           *              working on a common directory               *
           ************************************************************
------------------------------------------------------------------------------
                             ORCA STARTUP CALCULATIONS
                           -- RI-GTO INTEGRALS CHOSEN --
------------------------------------------------------------------------------
------------------------------------------------------------------------------
                   ___                                                        
                  /   \      - P O W E R E D   B Y -                         
                 /     \                                                     
                 |  |  |   _    _      __       _____    __    __             
                 |  |  |  | |  | |    /  \     |  _  \  |  |  /  |          
                  \  \/   | |  | |   /    \    | | | |  |  | /  /          
                 / \  \   | |__| |  /  /\  \   | |_| |  |  |/  /          
                |  |  |   |  __  | /  /__\  \  |    /   |      \           
                |  |  |   | |  | | |   __   |  |    \   |  |\   \          
                \     /   | |  | | |  |  |  |  | |\  \  |  | \   \       
                 \___/    |_|  |_| |__|  |__|  |_| \__\ |__|  \__/        
                                                                              
                      - O R C A' S   B I G   F R I E N D -                    
                                      &                                       
                       - I N T E G R A L  F E E D E R -                       
                                                                              
 v1 FN, 2020, v2 2021, v3 2022-2024                                           
------------------------------------------------------------------------------


----------------------
SHARK INTEGRAL PACKAGE
----------------------

Number of atoms                             ...     73
Number of basis functions                   ...    626
Number of shells                            ...    306
Maximum angular momentum                    ...      2
Integral batch strategy                     ... SHARK/LIBINT Hybrid
RI-J (if used) integral strategy            ... SPLIT-RIJ (Revised 2003 algorithm where possible)
Printlevel                                  ...      1
Contraction scheme used                     ... SEGMENTED contraction
Prescreening option                         ... SCHWARTZ
   Thresh                                   ... 3.000e-11
   Tcut                                     ... 1.000e-12
   Tpresel                                  ... 1.000e-12 
Coulomb Range Separation                    ... NOT USED
Exchange Range Separation                   ... Long Range
   Mu parameter                             ... 3.000e-01
   Scaling (regular/separated)              ... 1.670e-01 8.330e-01
Multipole approximations                    ... NOT USED
Finite Nucleus Model                        ... NOT USED
CABS basis                                  ... NOT available
Auxiliary Coulomb fitting basis             ... AVAILABLE
   # of basis functions in Aux-J            ...   1905
   # of shells in Aux-J                     ...    655
   Maximum angular momentum in Aux-J        ...      4
Auxiliary J/K fitting basis                 ... NOT available
Auxiliary Correlation fitting basis         ... NOT available
Auxiliary 'external' fitting basis          ... NOT available

Checking pre-screening integrals            ... done (  0.0 sec) Dimension = 306
Check shell pair data                       ... done (  0.0 sec)
Shell pair information
Shell pair cut-off parameter TPreSel        ...   1.0e-12
Total number of shell pairs                 ...     46971
Shell pairs after pre-screening             ...     26830
Total number of primitive shell pairs       ...    162105
Primitive shell pairs kept                  ...     59415
          la=0 lb=0:   9383 shell pairs
          la=1 lb=0:  10293 shell pairs
          la=1 lb=1:   2852 shell pairs
          la=2 lb=0:   2669 shell pairs
          la=2 lb=1:   1439 shell pairs
          la=2 lb=2:    194 shell pairs

Calculating one electron integrals          ... done (  0.1 sec)
Calculating RI/J V-Matrix + Cholesky decomp.... done (  0.2 sec)
Calculating Nuclear repulsion               ... done (  0.0 sec) ENN=   2746.188820068860 Eh

Diagonalization of the overlap matrix:
Smallest eigenvalue                        ... 4.563e-04
Time for diagonalization                   ...    0.051 sec
Threshold for overlap eigenvalues          ... 1.000e-07
Number of eigenvalues below threshold      ... 0
Time for construction of square roots      ...    0.030 sec
Total time needed                          ...    0.085 sec

-------------------
DFT GRID GENERATION
-------------------

General Integration Accuracy     IntAcc      ... 4.388
Radial Grid Type                 RadialGrid  ... OptM3 with GC (2021)
Angular Grid (max. ang.)         AngularGrid ... 4 (Lebedev-302)
Angular grid pruning method      GridPruning ... 4 (adaptive)
Weight generation scheme         WeightScheme... mBecke (2022)
Basis function cutoff            BFCut       ... 1.0000e-11
Integration weight cutoff        WCut        ... 1.0000e-14
Partially contracted basis set               ... off
Rotationally invariant grid construction     ... off
Angular grids for H and He will be reduced by one unit

Total number of grid points                  ...   310039
Total number of batches                      ...     4879
Average number of points per batch           ...       63
Average number of grid points per atom       ...     4247

--------------------
COSX GRID GENERATION
--------------------

GRIDX 1
-------
General Integration Accuracy     IntAcc      ... 3.816
Radial Grid Type                 RadialGrid  ... OptM3 with GC (2021)
Angular Grid (max. ang.)         AngularGrid ... 1 (Lebedev-50)
Angular grid pruning method      GridPruning ... 4 (adaptive)
Weight generation scheme         WeightScheme... mBecke (2022)
Basis function cutoff            BFCut       ... 1.0000e-11
Integration weight cutoff        WCut        ... 1.0000e-14
Partially contracted basis set               ... on
Rotationally invariant grid construction     ... off
Angular grids for H and He will be reduced by one unit

Total number of grid points                  ...    39449
Total number of batches                      ...      354
Average number of points per batch           ...      111
Average number of grid points per atom       ...      540
UseSFitting                                  ... on

GRIDX 2
-------
General Integration Accuracy     IntAcc      ... 4.020
Radial Grid Type                 RadialGrid  ... OptM3 with GC (2021)
Angular Grid (max. ang.)         AngularGrid ... 2 (Lebedev-110)
Angular grid pruning method      GridPruning ... 4 (adaptive)
Weight generation scheme         WeightScheme... mBecke (2022)
Basis function cutoff            BFCut       ... 1.0000e-11
Integration weight cutoff        WCut        ... 1.0000e-14
Partially contracted basis set               ... on
Rotationally invariant grid construction     ... off
Angular grids for H and He will be reduced by one unit

Total number of grid points                  ...    81535
Total number of batches                      ...      678
Average number of points per batch           ...      120
Average number of grid points per atom       ...     1117
UseSFitting                                  ... on

GRIDX 3
-------
General Integration Accuracy     IntAcc      ... 4.338
Radial Grid Type                 RadialGrid  ... OptM3 with GC (2021)
Angular Grid (max. ang.)         AngularGrid ... 3 (Lebedev-194)
Angular grid pruning method      GridPruning ... 4 (adaptive)
Weight generation scheme         WeightScheme... mBecke (2022)
Basis function cutoff            BFCut       ... 1.0000e-11
Integration weight cutoff        WCut        ... 1.0000e-14
Partially contracted basis set               ... on
Rotationally invariant grid construction     ... off
Angular grids for H and He will be reduced by one unit

Total number of grid points                  ...   176568
Total number of batches                      ...     1421
Average number of points per batch           ...      124
Average number of grid points per atom       ...     2419
UseSFitting                                  ... on
Initializing property integral containers    ... done (  0.0 sec)

SHARK setup successfully completed in   4.5 seconds

Maximum memory used throughout the entire STARTUP-calculation: 94.8 MB


           ************************************************************
           *        Program running with 4 parallel MPI-processes     *
           *              working on a common directory               *
           ************************************************************
-------------------------------------------------------------------------------
                                 ORCA GUESS
                   Start orbitals & Density for SCF / CASSCF
-------------------------------------------------------------------------------

------------
SCF SETTINGS
------------
Hamiltonian:
 Density Functional     Method          .... DFT(GTOs)
 Exchange Functional    Exchange        .... WB97X-V
 Correlation Functional Correlation     .... WB97X-V
 Gradients option       PostSCFGGA      .... off
 Hybrid DFT is turned on
   Fraction HF Exchange ScalHFX         ....  0.167000
   Scaling of DF-GGA-X  ScalDFX         ....  0.000000
   Scaling of DF-GGA-C  ScalDFC         ....  1.000000
   Scaling of DF-LDA-C  ScalLDAC        ....  1.000000
   Perturbative correction              ....  0.000000
 Long-range corrected/Screened/Range-Separated Hybrid DFT is turned on
   Amount of maximum screened exact exchange              ....  0.833000
   Range separation parameter mu (erf(mu*r12)/r12)        ....  0.300000
 RI-approximation to the Coulomb term is turned on
   Number of AuxJ basis functions       .... 1905
   RIJ-COSX (HFX calculated with COS-X)).... on


General Settings:
 Integral files         IntName         .... inpS
 Hartree-Fock type      HFTyp           .... RHF
 Total Charge           Charge          ....    0
 Multiplicity           Mult            ....    1
 Number of Electrons    NEL             ....  220
 Basis Dimension        Dim             ....  626
 Nuclear Repulsion      ENuc            ....   2746.1888200689 Eh

Convergence Acceleration:
 AO-DIIS                CNVDIIS         .... on
   Start iteration      DIISMaxIt       ....    12
   Startup error        DIISStart       ....  0.200000
   # of expansion vecs  DIISMaxEq       ....     5
   Bias factor          DIISBfac        ....   1.050
   Max. coefficient     DIISMaxC        ....  10.000
 MO-DIIS                CNVKDIIS        .... off
 Trust-Rad. Augm. Hess. CNVTRAH         .... auto
   Auto Start mean grad. ratio tolernc. ....  1.125000
   Auto Start start iteration           ....     1
   Auto Start num. interpolation iter.  ....    10
   Max. Number of Micro iterations      ....    24
   Max. Number of Macro iterations      .... Maxiter - #DIIS iter
   Number of Davidson start vectors     ....     2
   Converg. threshold    (grad. norm)   ....   1.000e-04
   Grad. Scal. Fac. for Micro threshold ....   0.100
   Minimum threshold for Micro iter.    ....   1.000e-02
   NR start threshold (gradient norm)   ....   1.000e-04
   Initial trust radius                 ....   0.400
   Minimum AH scaling param. (alpha)    ....   1.000
   Maximum AH scaling param. (alpha)    .... 1000.000
   Quad. conv. algorithm                .... NR
   White noise on init. David. guess    .... on
   Maximum white noise                  ....   0.010
   Pseudo random numbers                .... off
   Inactive MOs                         .... canonical
   Orbital update algorithm             .... Taylor
   Preconditioner                       .... Diag
   Full preconditioner red. dimension   ....   250
 SOSCF                  CNVSOSCF        .... off
 Level Shifting         CNVShift        .... on
   Level shift para.    LevelShift      ....    0.2500
   Turn off err/grad.   ShiftErr        ....    0.0010
 Zerner damping         CNVZerner       .... off
 Static damping         CNVDamp         .... on
   Fraction old density DampFac         ....    0.7000
   Max. Damping (<1)    DampMax         ....    0.9800
   Min. Damping (>=0)   DampMin         ....    0.0000
   Turn off err/grad.   DampErr         ....    0.1000

SCF Procedure:
 Maximum # iterations   MaxIter         ....   125
 SCF integral mode      SCFMode         .... Direct
   Integral package                     .... SHARK and LIBINT hybrid scheme
 Reset frequency        DirectResetFreq ....    20
 Integral Threshold     Thresh          ....  3.000e-11 Eh
 Primitive CutOff       TCut            ....  1.000e-12 Eh

Convergence Tolerance:
 Convergence Check Mode ConvCheckMode   .... Total+1el-Energy
 Convergence forced     ConvForced      .... 0
 Energy Change          TolE            ....  1.000e-07 Eh
 1-El. energy change                    ....  1.000e-04 Eh
 DIIS Error             TolErr          ....  1.000e-07

---------------------
INITIAL GUESS: MOREAD
---------------------
Guess MOs are being read from file: inpS.ges
Input Geometry matches current geometry (good)
Input basis set matches current basis set (good)
Occupation numbers will be reassigned to an Aufbau configuration
MOs were renormalized
MOs were reorthogonalized (Cholesky)
                      ------------------
                      INITIAL GUESS DONE (   0.2 sec)
                      ------------------
             **** ENERGY FILE WAS UPDATED (inpS.en.tmp) ****
Finished Guess after   0.3 sec
Maximum memory used throughout the entire GUESS-calculation: 51.7 MB


           ************************************************************
           *        Program running with 4 parallel MPI-processes     *
           *              working on a common directory               *
           ************************************************************

-------------------------------------------------------------------------------------------
                                      ORCA LEAN-SCF
                              memory conserving SCF solver
-------------------------------------------------------------------------------------------

--------------------
CPCM SOLVATION MODEL
--------------------
CPCM parameters:
  Epsilon                                         ...       4.8030
  Refrac                                          ...       1.4459
  Rsolv                                           ...       1.3000
  Surface type                                    ... GAUSSIAN VDW
  Discretization scheme                           ... Constant charge density
    Threshold for H atoms                         ...       5.0000 (charges/Ang^2)
    Threshold for non-H atoms                     ...       5.0000 (charges/Ang^2)
  Epsilon function type                           ...         CPCM
Solvent:                                          ... CHLOROFORM
Radii:
  Scheme                                          ... Element-dependent radii
  Radius for C  used is    3.8550 Bohr (=   2.0400 Ang.)
  Radius for H  used is    2.4944 Bohr (=   1.3200 Ang.)
  Radius for O  used is    3.4469 Bohr (=   1.8240 Ang.)
Calculating surface                               ...        done! (  0.0s)
Cavity surface points                             ...         5452
Cavity Volume                                     ...    3617.5709
Cavity Surface-area                               ...    1816.5776
Calculating surface distance matrix               ...        done! (  0.3s)
Performing Cholesky decomposition & store         ...        done! (  1.0s)
Overall time for CPCM initialization              ...                 1.2s

----------------------------------------D-I-I-S--------------------------------------------
Iteration    Energy (Eh)           Delta-E    RMSDP     MaxDP     DIISErr   Damp  Time(sec)
-------------------------------------------------------------------------------------------
               ***  Starting incremental Fock matrix formation  ***
    1    -1168.3638766313897577     0.00e+00  3.22e-08  1.84e-06  6.62e-06  0.700  23.0

  HOMO= 109 E= -7.880 eV LUMO=  8.094 eV gap=  15.974 eV
    2    -1168.3638766311478321     2.42e-10  2.75e-08  1.44e-06  3.32e-06  0.700   4.8
                 **** Energy Check signals convergence ****

  HOMO= 109 E= -7.880 eV LUMO=  8.094 eV gap=  15.974 eV

               *****************************************************
               *                     SUCCESS                       *
               *           SCF CONVERGED AFTER   2 CYCLES          *
               *****************************************************

Recomputing exchange energy using gridx3       ... done (   40.164 sec)
Old exchange energy                            :    -56.782395336 Eh
New exchange energy                            :    -56.782374366 Eh
Exchange energy change after final integration :      0.000020971 Eh
Total energy after final integration           :  -1168.363855661 Eh
             **** ENERGY FILE WAS UPDATED (inpS.en.tmp) ****

----------------
TOTAL SCF ENERGY
----------------

Total Energy       :      -1168.36385566063836 Eh          -31792.79683 eV

Components:
Nuclear Repulsion  :       2746.18882006886042 Eh           74727.59687 eV
Electronic Energy  :      -3914.54200253992030 Eh         -106520.10327 eV
One Electron Energy:      -7037.70195310067993 Eh         -191505.60610 eV
Two Electron Energy:       3123.15995056075963 Eh           84985.50283 eV
CPCM Dielectric    :         -0.01069416008802 Eh              -0.29100 eV

Virial components:
Potential Energy   :      -2321.67770251279990 Eh          -63176.06209 eV
Kinetic Energy     :       1153.31384685216153 Eh           31383.26527 eV
Virial Ratio       :          2.01304936106469

DFT components:
N(Alpha)           :      110.000099555273 electrons
N(Beta)            :      110.000099555273 electrons
N(Total)           :      220.000199110545 electrons
E(X)               :     -111.768535445106 Eh       
E(C)               :       -8.949099837597 Eh       
E(XC)              :     -120.717635282703 Eh       

CPCM Solvation Model Properties:
Surface-charge          :         -0.04216114155891
Corrected charge        :         -0.00000000000000
Outlying charge corr.   :          0.00006150698224 Eh               0.00167 eV
Free-energy (cav+disp)  :  This term is not implemented in the current solvation scheme

---------------
SCF CONVERGENCE
---------------

  Last Energy change         ...   -2.4193e-10  Tolerance :   1.0000e-07
  Last MAX-Density change    ...    1.4377e-06  Tolerance :   1.0000e-05
  Last RMS-Density change    ...    2.7504e-08  Tolerance :   1.0000e-06
  Last DIIS Error            ...    3.3232e-06  Tolerance :   1.0000e-07


----------------
ORBITAL ENERGIES
----------------

  NO   OCC          E(Eh)            E(eV) 
   0   2.0000     -19.213678      -522.8307 
   1   2.0000     -10.329737      -281.0864 
   2   2.0000     -10.293405      -280.0978 
   3   2.0000     -10.290177      -280.0100 
   4   2.0000     -10.285961      -279.8952 
   5   2.0000     -10.285832      -279.8917 
   6   2.0000     -10.285085      -279.8714 
   7   2.0000     -10.281935      -279.7857 
   8   2.0000     -10.281622      -279.7772 
   9   2.0000     -10.281195      -279.7655 
  10   2.0000     -10.280916      -279.7580 
  11   2.0000     -10.280783      -279.7543 
  12   2.0000     -10.279410      -279.7170 
  13   2.0000     -10.278477      -279.6916 
  14   2.0000     -10.277084      -279.6537 
  15   2.0000     -10.276776      -279.6453 
  16   2.0000     -10.276683      -279.6428 
  17   2.0000     -10.276544      -279.6390 
  18   2.0000     -10.274259      -279.5768 
  19   2.0000     -10.272617      -279.5321 
  20   2.0000     -10.271814      -279.5103 
  21   2.0000     -10.271717      -279.5076 
  22   2.0000     -10.270234      -279.4673 
  23   2.0000     -10.269949      -279.4595 
  24   2.0000     -10.269924      -279.4588 
  25   2.0000     -10.269512      -279.4476 
  26   2.0000     -10.268313      -279.4150 
  27   2.0000     -10.268166      -279.4110 
  28   2.0000     -10.266805      -279.3740 
  29   2.0000      -1.131651       -30.7938 
  30   2.0000      -0.997933       -27.1551 
  31   2.0000      -0.979087       -26.6423 
  32   2.0000      -0.956740       -26.0342 
  33   2.0000      -0.942648       -25.6508 
  34   2.0000      -0.917834       -24.9755 
  35   2.0000      -0.910501       -24.7760 
  36   2.0000      -0.889652       -24.2086 
  37   2.0000      -0.887126       -24.1399 
  38   2.0000      -0.873507       -23.7693 
  39   2.0000      -0.852662       -23.2021 
  40   2.0000      -0.833685       -22.6857 
  41   2.0000      -0.828276       -22.5385 
  42   2.0000      -0.808430       -21.9985 
  43   2.0000      -0.801345       -21.8057 
  44   2.0000      -0.794766       -21.6267 
  45   2.0000      -0.786850       -21.4113 
  46   2.0000      -0.759673       -20.6718 
  47   2.0000      -0.756944       -20.5975 
  48   2.0000      -0.722374       -19.6568 
  49   2.0000      -0.712818       -19.3968 
  50   2.0000      -0.712142       -19.3784 
  51   2.0000      -0.697194       -18.9716 
  52   2.0000      -0.689011       -18.7489 
  53   2.0000      -0.670375       -18.2418 
  54   2.0000      -0.656098       -17.8533 
  55   2.0000      -0.641421       -17.4540 
  56   2.0000      -0.631069       -17.1723 
  57   2.0000      -0.620629       -16.8882 
  58   2.0000      -0.604933       -16.4611 
  59   2.0000      -0.600322       -16.3356 
  60   2.0000      -0.589345       -16.0369 
  61   2.0000      -0.584082       -15.8937 
  62   2.0000      -0.574087       -15.6217 
  63   2.0000      -0.567564       -15.4442 
  64   2.0000      -0.563511       -15.3339 
  65   2.0000      -0.560982       -15.2651 
  66   2.0000      -0.552518       -15.0348 
  67   2.0000      -0.547148       -14.8887 
  68   2.0000      -0.546986       -14.8843 
  69   2.0000      -0.544043       -14.8042 
  70   2.0000      -0.536437       -14.5972 
  71   2.0000      -0.529217       -14.4007 
  72   2.0000      -0.522483       -14.2175 
  73   2.0000      -0.518079       -14.0976 
  74   2.0000      -0.514830       -14.0092 
  75   2.0000      -0.506831       -13.7916 
  76   2.0000      -0.504017       -13.7150 
  77   2.0000      -0.501498       -13.6465 
  78   2.0000      -0.497275       -13.5315 
  79   2.0000      -0.493839       -13.4381 
  80   2.0000      -0.489118       -13.3096 
  81   2.0000      -0.487940       -13.2775 
  82   2.0000      -0.487195       -13.2572 
  83   2.0000      -0.480229       -13.0677 
  84   2.0000      -0.474420       -12.9096 
  85   2.0000      -0.472244       -12.8504 
  86   2.0000      -0.465502       -12.6670 
  87   2.0000      -0.462760       -12.5923 
  88   2.0000      -0.461156       -12.5487 
  89   2.0000      -0.452690       -12.3183 
  90   2.0000      -0.449145       -12.2219 
  91   2.0000      -0.446268       -12.1436 
  92   2.0000      -0.439447       -11.9580 
  93   2.0000      -0.430415       -11.7122 
  94   2.0000      -0.426123       -11.5954 
  95   2.0000      -0.424014       -11.5380 
  96   2.0000      -0.421777       -11.4771 
  97   2.0000      -0.416502       -11.3336 
  98   2.0000      -0.415674       -11.3111 
  99   2.0000      -0.413793       -11.2599 
 100   2.0000      -0.411488       -11.1972 
 101   2.0000      -0.410738       -11.1768 
 102   2.0000      -0.402167       -10.9435 
 103   2.0000      -0.401481       -10.9248 
 104   2.0000      -0.394287       -10.7291 
 105   2.0000      -0.380124       -10.3437 
 106   2.0000      -0.371840       -10.1183 
 107   2.0000      -0.357028        -9.7152 
 108   2.0000      -0.337751        -9.1907 
 109   2.0000      -0.289593        -7.8802 
 110   0.0000       0.047438         1.2908 
 111   0.0000       0.100342         2.7304 
 112   0.0000       0.108941         2.9644 
 113   0.0000       0.135508         3.6874 
 114   0.0000       0.141194         3.8421 
 115   0.0000       0.144564         3.9338 
 116   0.0000       0.153423         4.1748 
 117   0.0000       0.155783         4.2391 
 118   0.0000       0.158600         4.3157 
 119   0.0000       0.163305         4.4438 
 120   0.0000       0.168890         4.5957 
*Only the first 10 virtual orbitals were printed.

                    ********************************
                    * MULLIKEN POPULATION ANALYSIS *
                    ********************************

-----------------------
MULLIKEN ATOMIC CHARGES
-----------------------
   0 C :   -0.127202
   1 C :    0.144170
   2 C :    0.081552
   3 H :    0.016744
   4 H :    0.013209
   5 C :   -0.184541
   6 C :    0.111008
   7 C :    0.006826
   8 H :    0.029829
   9 H :    0.012231
  10 H :    0.023497
  11 H :    0.011322
  12 O :   -0.355209
  13 H :    0.014187
  14 C :   -0.024709
  15 C :   -0.044349
  16 H :    0.036333
  17 H :    0.029213
  18 C :   -0.060419
  19 H :   -0.006927
  20 C :   -0.116127
  21 H :    0.000684
  22 C :    0.114798
  23 C :   -0.000653
  24 H :    0.012686
  25 H :    0.017661
  26 C :    0.105592
  27 H :    0.012628
  28 H :    0.014943
  29 C :   -0.412367
  30 H :    0.008604
  31 H :   -0.002892
  32 C :   -0.041786
  33 H :    0.011101
  34 C :    0.115508
  35 H :    0.181689
  36 C :    0.074013
  37 H :    0.007255
  38 H :    0.015531
  39 C :   -0.035488
  40 H :    0.008814
  41 H :    0.000593
  42 H :   -0.008496
  43 C :   -0.043302
  44 C :    0.093332
  45 H :    0.023251
  46 H :    0.018420
  47 H :    0.019714
  48 H :    0.000450
  49 C :    0.051957
  50 C :   -0.040352
  51 C :   -0.050149
  52 H :    0.003422
  53 H :    0.011876
  54 C :   -0.069174
  55 C :    0.020829
  56 C :   -0.143492
  57 H :    0.002861
  58 H :    0.007873
  59 C :    0.033640
  60 C :    0.011394
  61 H :    0.021443
  62 H :    0.021268
  63 H :    0.021556
  64 H :    0.019243
  65 H :    0.016881
  66 H :    0.016825
  67 H :    0.019305
  68 H :    0.018934
  69 H :    0.019607
  70 H :    0.016941
  71 H :    0.031084
  72 H :    0.013313
Sum of atomic charges:   -0.0000000

--------------------------------
MULLIKEN REDUCED ORBITAL CHARGES
--------------------------------
  0 C s       :     3.077940  s :     3.077940
      pz      :     1.004057  p :     3.006427
      px      :     0.998131
      py      :     1.004239
      dz2     :     0.003207  d :     0.042836
      dxz     :     0.007049
      dyz     :     0.005983
      dx2y2   :     0.014700
      dxy     :     0.011895

  1 C s       :     2.932283  s :     2.932283
      pz      :     0.981259  p :     2.889107
      px      :     0.940018
      py      :     0.967830
      dz2     :     0.007086  d :     0.034441
      dxz     :     0.009262
      dyz     :     0.004616
      dx2y2   :     0.008973
      dxy     :     0.004503

  2 C s       :     3.075229  s :     3.075229
      pz      :     1.041512  p :     2.772054
      px      :     0.759045
      py      :     0.971497
      dz2     :     0.011792  d :     0.071166
      dxz     :     0.016027
      dyz     :     0.009087
      dx2y2   :     0.019364
      dxy     :     0.014896

  3 H s       :     0.960063  s :     0.960063
      pz      :     0.010772  p :     0.023192
      px      :     0.007679
      py      :     0.004741

  4 H s       :     0.963998  s :     0.963998
      pz      :     0.004230  p :     0.022793
      px      :     0.003792
      py      :     0.014770

  5 C s       :     3.111874  s :     3.111874
      pz      :     1.005329  p :     3.027877
      px      :     0.975371
      py      :     1.047176
      dz2     :     0.011239  d :     0.044790
      dxz     :     0.006656
      dyz     :     0.011823
      dx2y2   :     0.008421
      dxy     :     0.006651

  6 C s       :     2.949085  s :     2.949085
      pz      :     0.974841  p :     2.904435
      px      :     0.965189
      py      :     0.964405
      dz2     :     0.007027  d :     0.035473
      dxz     :     0.009478
      dyz     :     0.004868
      dx2y2   :     0.009223
      dxy     :     0.004877

  7 C s       :     3.012941  s :     3.012941
      pz      :     0.990423  p :     2.945212
      px      :     0.989601
      py      :     0.965188
      dz2     :     0.005376  d :     0.035020
      dxz     :     0.008301
      dyz     :     0.006515
      dx2y2   :     0.009659
      dxy     :     0.005169

  8 H s       :     0.946881  s :     0.946881
      pz      :     0.011394  p :     0.023289
      px      :     0.007201
      py      :     0.004694

  9 H s       :     0.964947  s :     0.964947
      pz      :     0.004451  p :     0.022821
      px      :     0.003722
      py      :     0.014648

 10 H s       :     0.953809  s :     0.953809
      pz      :     0.011359  p :     0.022694
      px      :     0.005193
      py      :     0.006141

 11 H s       :     0.965987  s :     0.965987
      pz      :     0.010887  p :     0.022692
      px      :     0.007245
      py      :     0.004560

 12 O s       :     3.726361  s :     3.726361
      pz      :     1.538955  p :     4.616639
      px      :     1.250164
      py      :     1.827520
      dz2     :     0.002547  d :     0.012208
      dxz     :     0.004075
      dyz     :     0.001644
      dx2y2   :     0.001795
      dxy     :     0.002148

 13 H s       :     0.965593  s :     0.965593
      pz      :     0.011049  p :     0.020220
      px      :     0.005013
      py      :     0.004159

 14 C s       :     3.197244  s :     3.197244
      pz      :     0.989207  p :     2.791223
      px      :     0.888955
      py      :     0.913061
      dz2     :     0.002777  d :     0.036241
      dxz     :     0.007669
      dyz     :     0.003164
      dx2y2   :     0.012272
      dxy     :     0.010359

 15 C s       :     3.122693  s :     3.122693
      pz      :     0.976304  p :     2.895408
      px      :     1.000661
      py      :     0.918442
      dz2     :     0.007155  d :     0.026248
      dxz     :     0.004195
      dyz     :     0.006983
      dx2y2   :     0.004920
      dxy     :     0.002994

 16 H s       :     0.939117  s :     0.939117
      pz      :     0.010953  p :     0.024550
      px      :     0.006232
      py      :     0.007365

 17 H s       :     0.946162  s :     0.946162
      pz      :     0.004045  p :     0.024626
      px      :     0.004648
      py      :     0.015933

 18 C s       :     3.200640  s :     3.200640
      pz      :     1.029686  p :     2.824469
      px      :     0.878820
      py      :     0.915963
      dz2     :     0.002866  d :     0.035310
      dxz     :     0.007070
      dyz     :     0.003028
      dx2y2   :     0.012435
      dxy     :     0.009911

 19 H s       :     0.982610  s :     0.982610
      pz      :     0.004626  p :     0.024317
      px      :     0.004302
      py      :     0.015389

 20 C s       :     3.099762  s :     3.099762
      pz      :     0.955823  p :     2.972359
      px      :     0.990725
      py      :     1.025811
      dz2     :     0.003574  d :     0.044006
      dxz     :     0.007261
      dyz     :     0.006797
      dx2y2   :     0.014620
      dxy     :     0.011754

 21 H s       :     0.974785  s :     0.974785
      pz      :     0.004636  p :     0.024530
      px      :     0.004216
      py      :     0.015679

 22 C s       :     2.924369  s :     2.924369
      pz      :     1.002955  p :     2.925282
      px      :     0.975688
      py      :     0.946640
      dz2     :     0.009527  d :     0.035551
      dxz     :     0.004189
      dyz     :     0.005916
      dx2y2   :     0.009818
      dxy     :     0.006102

 23 C s       :     3.001012  s :     3.001012
      pz      :     1.008664  p :     2.963223
      px      :     0.967910
      py      :     0.986648
      dz2     :     0.009570  d :     0.036418
      dxz     :     0.007844
      dyz     :     0.003201
      dx2y2   :     0.010177
      dxy     :     0.005627

 24 H s       :     0.964073  s :     0.964073
      pz      :     0.004685  p :     0.023242
      px      :     0.013849
      py      :     0.004708

 25 H s       :     0.959030  s :     0.959030
      pz      :     0.013518  p :     0.023310
      px      :     0.005017
      py      :     0.004775

 26 C s       :     2.970941  s :     2.970941
      pz      :     0.968319  p :     2.888130
      px      :     0.975614
      py      :     0.944197
      dz2     :     0.006774  d :     0.035337
      dxz     :     0.006802
      dyz     :     0.005722
      dx2y2   :     0.008678
      dxy     :     0.007362

 27 H s       :     0.964493  s :     0.964493
      pz      :     0.013462  p :     0.022880
      px      :     0.004673
      py      :     0.004745

 28 H s       :     0.962414  s :     0.962414
      pz      :     0.004715  p :     0.022643
      px      :     0.003799
      py      :     0.014129

 29 C s       :     3.256120  s :     3.256120
      pz      :     1.043904  p :     3.105232
      px      :     1.005013
      py      :     1.056315
      dz2     :     0.011790  d :     0.051015
      dxz     :     0.010245
      dyz     :     0.009407
      dx2y2   :     0.010889
      dxy     :     0.008684

 30 H s       :     0.968368  s :     0.968368
      pz      :     0.009296  p :     0.023028
      px      :     0.007378
      py      :     0.006354

 31 H s       :     0.980359  s :     0.980359
      pz      :     0.012951  p :     0.022533
      px      :     0.005159
      py      :     0.004423

 32 C s       :     3.032489  s :     3.032489
      pz      :     0.985418  p :     2.965461
      px      :     0.950690
      py      :     1.029353
      dz2     :     0.008539  d :     0.043835
      dxz     :     0.007529
      dyz     :     0.007783
      dx2y2   :     0.011074
      dxy     :     0.008910

 33 H s       :     0.967623  s :     0.967623
      pz      :     0.012203  p :     0.021276
      px      :     0.004445
      py      :     0.004628

 34 C s       :     2.902008  s :     2.902008
      pz      :     0.987431  p :     2.947657
      px      :     0.979309
      py      :     0.980918
      dz2     :     0.005429  d :     0.034827
      dxz     :     0.006000
      dyz     :     0.008150
      dx2y2   :     0.008901
      dxy     :     0.006347

 35 H s       :     0.750184  s :     0.750184
[...]
 Total          139.436          174.072          191.927  iso=     168.478

 Orientation: 
  X           0.3087082   -0.4784645    0.8220529
  Y          -0.1346548   -0.8775463   -0.4601963
  Z           0.9415771    0.0313730   -0.3353333

 --------------
 Nucleus  39C :
 --------------

Diamagnetic contribution to the shielding tensor (ppm) : 
           263.749          3.611        -6.762
             3.311        261.637         7.970
            -6.605          6.120       262.591

Paramagnetic contribution to the shielding tensor (ppm): 
           -98.275          0.829         7.198
             5.436       -126.104        -3.121
            11.696         -3.589      -132.801

Total shielding tensor (ppm): 
           165.474          4.441         0.436
             8.747        135.533         4.850
             5.091          2.531       129.789


 Diagonalized sT*s matrix:
 
 sDSO           256.454          267.358          264.165  iso=     262.659
 sPSO          -128.474         -131.724          -96.983  iso=    -119.060
        ---------------  ---------------  ---------------
 Total          127.980          135.634          167.182  iso=     143.599

 Orientation: 
  X           0.0166532   -0.2227187   -0.9747405
  Y          -0.4531113    0.8673446   -0.2059210
  Z           0.8912984    0.4450951   -0.0864723

 --------------
 Nucleus  43C :
 --------------

Diamagnetic contribution to the shielding tensor (ppm) : 
           258.315         -1.121        -5.791
            -5.538        246.702        10.790
            -8.336         12.566       247.500

Paramagnetic contribution to the shielding tensor (ppm): 
           -93.916         -1.722         3.970
             8.711        -95.093        -8.315
             8.393        -11.280       -94.248

Total shielding tensor (ppm): 
           164.399         -2.842        -1.821
             3.173        151.608         2.475
             0.057          1.286       153.252


 Diagonalized sT*s matrix:
 
 sDSO           236.114          256.958          259.444  iso=     250.839
 sPSO           -85.764         -102.517          -94.977  iso=     -94.419
        ---------------  ---------------  ---------------
 Total          150.351          154.442          164.467  iso=     156.420

 Orientation: 
  X           0.0379790    0.0712804   -0.9967330
  Y          -0.8315755    0.5553537    0.0080297
  Z           0.5541118    0.8285538    0.0803668

 --------------
 Nucleus  44C :
 --------------

Diamagnetic contribution to the shielding tensor (ppm) : 
           251.234          0.236         2.630
            -2.194        256.776        -1.453
             0.717          2.426       272.559

Paramagnetic contribution to the shielding tensor (ppm): 
           -71.902         -4.484        -2.493
            -0.247        -77.249        -1.469
            -0.487         -5.355       -79.560

Total shielding tensor (ppm): 
           179.332         -4.248         0.137
            -2.441        179.527        -2.923
             0.230         -2.929       192.999


 Diagonalized sT*s matrix:
 
 sDSO           253.742          255.067          271.759  iso=     260.190
 sPSO           -77.881          -72.733          -78.098  iso=     -76.237
        ---------------  ---------------  ---------------
 Total          175.862          182.335          193.662  iso=     183.953

 Orientation: 
  X           0.6880032   -0.7229997    0.0626339
  Y           0.7165084    0.6630487   -0.2167535
  Z           0.1151834    0.1940048    0.9742150

 --------------
 Nucleus  49C :
 --------------

Diamagnetic contribution to the shielding tensor (ppm) : 
           243.086         -6.879        -2.192
           -20.241        256.402         7.228
            -8.422          7.068       244.923

Paramagnetic contribution to the shielding tensor (ppm): 
           -69.938          2.405        -4.112
            19.371        -68.865         0.430
             3.677         -1.700       -77.019

Total shielding tensor (ppm): 
           173.149         -4.475        -6.304
            -0.870        187.537         7.658
            -4.745          5.369       167.904


 Diagonalized sT*s matrix:
 
 sDSO           240.752          238.245          265.415  iso=     248.137
 sPSO           -77.118          -63.831          -74.873  iso=     -71.941
        ---------------  ---------------  ---------------
 Total          163.634          174.414          190.542  iso=     176.196

 Orientation: 
  X           0.4539171   -0.8587623    0.2376691
  Y          -0.1920980   -0.3547724   -0.9150054
  Z           0.8700906    0.3696808   -0.3260038

 --------------
 Nucleus  50C :
 --------------

Diamagnetic contribution to the shielding tensor (ppm) : 
           265.458         12.112         8.470
            10.921        259.493        -4.272
            17.901        -13.749       254.054

Paramagnetic contribution to the shielding tensor (ppm): 
          -200.531        -23.691       -90.215
           -29.249       -159.233        35.824
           -94.279         51.954      -236.648

Total shielding tensor (ppm): 
            64.927        -11.579       -81.745
           -18.327        100.260        31.552
           -76.377         38.205        17.406


 Diagonalized sT*s matrix:
 
 sDSO           271.704          269.469          237.832  iso=     259.668
 sPSO          -313.002         -193.059          -90.351  iso=    -198.804
        ---------------  ---------------  ---------------
 Total          -41.298           76.409          147.481  iso=      60.864

 Orientation: 
  X          -0.6411692    0.4559208   -0.6172830
  Y           0.0135619    0.8109891    0.5849040
  Z          -0.7672797   -0.3666509    0.5261644

 --------------
 Nucleus  51C :
 --------------

Diamagnetic contribution to the shielding tensor (ppm) : 
           265.645         11.611         9.769
            11.824        266.521        -8.917
             0.516         -5.066       274.171

Paramagnetic contribution to the shielding tensor (ppm): 
          -198.918        -22.439       -91.774
           -31.864       -161.200        45.217
           -77.796         45.992      -257.215

Total shielding tensor (ppm): 
            66.726        -10.828       -82.005
           -20.040        105.321        36.299
           -77.280         40.926        16.956


 Diagonalized sT*s matrix:
 
 sDSO           275.648          278.615          252.074  iso=     268.779
 sPSO          -318.133         -200.027          -99.174  iso=    -205.778
        ---------------  ---------------  ---------------
 Total          -42.485           78.588          152.900  iso=      63.001

 Orientation: 
  X          -0.6310130    0.4912674   -0.6003990
  Y           0.0370403    0.7921338    0.6092225
  Z          -0.7748875   -0.3621883    0.5180434

 --------------
 Nucleus  54C :
 --------------

Diamagnetic contribution to the shielding tensor (ppm) : 
           254.842         -0.270        -0.635
             4.809        248.658        -3.570
             4.435         -0.900       248.519

Paramagnetic contribution to the shielding tensor (ppm): 
           -88.251         12.940         1.920
             0.454       -105.172         2.454
            -3.314         -1.896       -92.012

Total shielding tensor (ppm): 
           166.592         12.670         1.286
             5.263        143.486        -1.116
             1.120         -2.796       156.507


 Diagonalized sT*s matrix:
 
 sDSO           247.181          249.185          255.653  iso=     250.673
 sPSO          -107.069          -92.392          -85.974  iso=     -95.145
        ---------------  ---------------  ---------------
 Total          140.112          156.793          169.678  iso=     155.528

 Orientation: 
  X          -0.3344410    0.0094810   -0.9423690
  Y           0.9322426   -0.1432079   -0.3322880
  Z           0.1381051    0.9896472   -0.0390560

 --------------
 Nucleus  55C :
 --------------

Diamagnetic contribution to the shielding tensor (ppm) : 
           240.212         -3.938         0.125
            19.699        260.388        -1.355
            13.122         -0.107       253.123

Paramagnetic contribution to the shielding tensor (ppm): 
           -61.051          3.838        -1.281
           -15.690        -65.642         6.645
           -11.675          4.776       -76.814

Total shielding tensor (ppm): 
           179.161         -0.100        -1.155
             4.009        194.746         5.290
             1.447          4.669       176.309


 Diagonalized sT*s matrix:
 
 sDSO           254.606          237.600          261.516  iso=     251.241
 sPSO           -79.585          -58.628          -65.293  iso=     -67.835
        ---------------  ---------------  ---------------
 Total          175.021          178.972          196.223  iso=     183.405

 Orientation: 
  X           0.0863207   -0.9891896   -0.1185442
  Y          -0.2532391    0.0932944   -0.9628947
  Z           0.9635449    0.1131378   -0.2424482

 --------------
 Nucleus  56C :
 --------------

Diamagnetic contribution to the shielding tensor (ppm) : 
           252.200          3.794        -1.777
             4.118        224.158       -11.570
             2.507         -7.038       247.747

Paramagnetic contribution to the shielding tensor (ppm): 
           -78.256         -7.367        -2.239
            -3.439        -63.837        15.026
           -10.825         11.949       -87.031

Total shielding tensor (ppm): 
           173.943         -3.574        -4.016
             0.679        160.320         3.456
            -8.318          4.911       160.716


 Diagonalized sT*s matrix:
 
 sDSO           246.877          229.513          247.714  iso=     241.368
 sPSO           -91.231          -67.069          -70.824  iso=     -76.375
        ---------------  ---------------  ---------------
 Total          155.645          162.444          176.890  iso=     164.993

 Orientation: 
  X           0.1987771    0.3763003   -0.9049231
  Y          -0.6149769    0.7668281    0.1837883
  Z           0.7630800    0.5199738    0.3838439

 --------------
 Nucleus  59C :
 --------------

Diamagnetic contribution to the shielding tensor (ppm) : 
           252.450          7.697         2.783
             7.687        220.714         0.428
            17.808          0.836       219.649

Paramagnetic contribution to the shielding tensor (ppm): 
           -65.492         -5.153        11.997
             0.884        -62.119        -3.019
            -5.387         -5.283       -38.606

Total shielding tensor (ppm): 
           186.959          2.544        14.780
             8.570        158.595        -2.591
            12.421         -4.448       181.042


 Diagonalized sT*s matrix:
 
 sDSO           217.860          224.545          250.408  iso=     230.938
 sPSO           -62.081          -51.762          -52.374  iso=     -55.406
        ---------------  ---------------  ---------------
 Total          155.779          172.782          198.034  iso=     175.532

 Orientation: 
  X          -0.2793568   -0.5545011    0.7838930
  Y           0.9173662   -0.3952168    0.0473590
  Z           0.2835471    0.7323470    0.6190871

 --------------
 Nucleus  60C :
 --------------

Diamagnetic contribution to the shielding tensor (ppm) : 
           240.057          1.687        -0.525
            10.198        234.671       -12.972
           -21.819        -16.193       248.529

Paramagnetic contribution to the shielding tensor (ppm): 
           -62.818         -0.623         3.524
           -12.533        -57.851         4.691
            29.187          9.503       -56.403

Total shielding tensor (ppm): 
           177.239          1.065         2.999
            -2.335        176.821        -8.281
             7.369         -6.690       192.127


 Diagonalized sT*s matrix:
 
 sDSO           228.201          245.975          249.082  iso=     241.086
 sPSO           -55.068          -69.424          -52.580  iso=     -59.024
        ---------------  ---------------  ---------------
 Total          173.134          176.551          196.502  iso=     182.062

 Orientation: 
  X          -0.4192941    0.8695166    0.2610237
  Y           0.7992941    0.4899064   -0.3480240
  Z           0.4304898   -0.0627103    0.9004143



--------------------------------
CHEMICAL SHIELDING SUMMARY (ppm)
--------------------------------


  Nucleus  Element    Isotropic     Anisotropy
  -------  -------  ------------   ------------
      0       C           59.684        148.080 
      1       C          151.169         30.072 
      2       C          128.887         55.181 
      5       C           51.565        179.241 
      6       C          165.034         22.933 
      7       C          161.674         22.592 
     14       C           74.690        128.424 
     15       C           83.009        121.212 
     18       C           79.552        134.356 
     20       C           52.408        174.997 
     22       C          169.325          8.646 
     23       C          174.520         12.558 
     26       C          158.574         24.194 
     29       C          154.496         16.974 
     32       C          142.810         28.793 
     34       C          174.880         23.320 
     36       C          168.478         35.173 
     39       C          143.599         35.374 
     43       C          156.420         12.071 
     44       C          183.953         14.563 
     49       C          176.196         21.518 
     50       C           60.864        129.926 
     51       C           63.001        134.849 
     54       C          155.528         21.226 
     55       C          183.405         19.227 
     56       C          164.993         17.846 
     59       C          175.532         33.753 
     60       C          182.062         21.659 


NMR shielding tensor and spin rotation calculation done in   1.0 sec 

Maximum memory used throughout the entire PROP-calculation: 51.1 MB

--------------------------------
SUGGESTED CITATIONS FOR THIS RUN
--------------------------------

Below you find a list of papers that are relevant to this ORCA run
We neither can nor want to force you to cite these papers, but we appreciate if you do
You receive ORCA, which is the product of decades of hard work by many enthusiastic individuals, for free
The only thing we kindly ask in return is that you cite our papers,
We deeply appreciate it, if you show your appreciation for ORCA by not just citing the generic ORCA reference.

Please note that relegating all ORCA citations to the supporting information does *not* help us.
SI sections are not indexed - citations you put there will not count into any citation statistics
But we need these citations in order to attract the funding resources that allow us to do what we are doing

Therefore, if you are a happy ORCA user, please consider citing a few of the papers listed below in the main body of your paper

In addition to the list printed below, the program has created the file inpS.bibtex that contains the list in bibtex format
You can import this file easily into all common literature databanks and citation aid programs


List of essential papers. We consider these as the minimum necessary citations

  1. Neese,F.
     Software update: the ORCA program system, version 5.0
     WIRES Comput. Molec. Sci., 2022 12(1)e1606
     doi.org/10.1002/wcms.1606

List of papers to cite with high priority. The work reported in these papers was absolutely
necessary for this run to complete.
Our perspective: the developers of density functionals and basis sets usually get cited in chemistry papers
Good! But without the algorithms to do something with them, the functionals or basis sets would not do anything.
Hence, in our opinion, the algorithm design and method developments papers are equally worthy of getting cited

  1. Neese,F.
     An improvement of the resolution of the identity approximation for the formation of the Coulomb matrix
     J. Comp. Chem., 2003 24(14)1740-1747
     doi.org/10.1002/jcc.10318
  2. Neese,F.; Wennmohs,F.; Hansen,A.; Becker,U.
     Efficient, approximate and parallel Hartree-Fock and hybrid DFT calculations. A 'chain-of-spheres' algorithm for the Hartree-Fock exchange
     Chem. Phys., 2009 356(1-3)98-109
     doi.org/10.1016/j.chemphys.2008.10.036
  3. Stoychev,G.L.; Auer,A.A.; Izsak,R.; Neese,F.
     Self-Consistent Field Calculation of Nuclear Magnetic Resonance Chemical Shielding Constants Using Gauge-Including Atomic Orbitals and Approximate Two-Electron Integrals
     J. Chem. Theory Comput., 2018 14(2)619-637
     doi.org/10.1021/acs.jctc.7b01006
  4. Garcia-Rates,M.; Neese,F.
     Effect of the Solute Cavity on the Solvation Energy and its Derivatives within the Framework of the Gaussian Charge Scheme
     J. Comput. Chem., 2020 41 922-939
     doi.org/10.1002/jcc.26139
  5. Helmich-Paris,B.; de Souza,B.; Neese,F.; Izsák,R.
     An improved chain of spheres for exchange algorithm
     J. Chem. Phys., 2021 155 104109
     doi.org/doi: 10.1063/5.0058766.
  6. Neese,F.
     The SHARK Integral Generation and Digestion System
     J. Comp. Chem., 2022  1-16
     doi.org/10.1002/jcc.26942
  7. Caldeweyher,E.; Bannwarth,C.; Grimme,S.
     Extension of the D3 dispersion coefficient model
     J. Chem. Phys., 2017 147 034112-XXXX
     doi.org/10.1063/1.4993215
  8. Caldeweyher,E.; Ehlert,S.; Hansen,A.; Neugebauer,H.; Spicher,S.; Bannwarth,C.; Grimme,S.
     A generally applicable atomic-charge dependent London dispersion correction
     J. Chem. Phys., 2019 150 154122-XXXX
     doi.org/10.1063/1.5090222
  9. Caldeweyher,E.; Mewes,J.; Ehlert,S.; Grimme,S.
     Extension and evaluation of the D4 London-dispersion model for periodic systems
     Phys. Chem. Chem. Phys., 2020 22(16)8499-8512
     doi.org/10.1039/D0CP00502A

List of suggested additional citations. These are papers that are important in the 'surrounding' of 
of this run, or papers that preceded the highly important papers. If you like your results we are grateful for a citation.

  1. Izsak,R.; Neese,F.
     An overlap fitted chain of spheres exchange method
     J. Chem. Phys., 2011 135 144105
     doi.org/10.1063/1.3646921
  2. Izsak,R.; Hansen,A.; Neese,F.
     The resolution of identity and chain of spheres approximations for the LPNO-CCSD singles Fock term
     Molec. Phys., 2012 110 2413-2417
     doi.org/10.1080/00268976.2012.687466
  3. Neese,F.
     The ORCA program system
     WIRES Comput. Molec. Sci., 2012 2(1)73-78
     doi.org/10.1002/wcms.81
  4. Izsak,R.; Neese,F.; Klopper,W.
     Robust fitting techniques in the chain of spheres approximation to the Fock exchange: The role of the complementary space
     J. Chem. Phys., 2013 139 
     doi.org/10.1063/1.4819264
  5. Neese,F.
     Software update: the ORCA program system, version 4.0
     WIRES Comput. Molec. Sci., 2018 8(1)1-6
     doi.org/10.1002/wcms.1327
  6. Neese,F.; Wennmohs,F.; Becker,U.; Riplinger,C.
     The ORCA quantum chemistry program package
     J. Chem. Phys., 2020 152 Art. No. L224108
     doi.org/10.1063/5.0004608

Timings for individual modules:

Sum of individual times          ...      172.927 sec (=   2.882 min)
Startup calculation              ...        4.716 sec (=   0.079 min)   2.7 %
SCF iterations                   ...       70.639 sec (=   1.177 min)  40.8 %
Property integrals               ...       58.396 sec (=   0.973 min)  33.8 %
SCF Response                     ...       37.869 sec (=   0.631 min)  21.9 %
Property calculations            ...        1.307 sec (=   0.022 min)   0.8 %
                             ****ORCA TERMINATED NORMALLY****
TOTAL RUN TIME: 0 days 0 hours 2 minutes 53 seconds 218 msec
