
                                 *****************
                                 * O   R   C   A *
                                 *****************

                                            #,                                       
                                            ###                                      
                                            ####                                     
                                            #####                                    
                                            ######                                   
                                           ########,                                 
                                     ,,################,,,,,                         
                               ,,#################################,,                 
                          ,,##########################################,,             
                       ,#########################################, ''#####,          
                    ,#############################################,,   '####,        
                  ,##################################################,,,,####,       
                ,###########''''           ''''###############################       
              ,#####''   ,,,,##########,,,,          '''####'''          '####       
            ,##' ,,,,###########################,,,                        '##       
           ' ,,###''''                  '''############,,,                           
         ,,##''                                '''############,,,,        ,,,,,,###''
      ,#''                                            '''#######################'''  
     '                                                          ''''####''''         
             ,#######,   #######,   ,#######,      ##                                
            ,#'     '#,  ##    ##  ,#'     '#,    #''#        ,####,   ,####,        
            ##       ##  ##   ,#'  ##            #'  '#       #'       #'  '#        
            ##       ##  #######   ##           ,######,      #####,   #    #        
            '#,     ,#'  ##    ##  '#,     ,#' ,#      #,     #,   #   #,  ,#        
             '#######'   ##     ##  '#######'  #'      '#     '####' # '####'        



                #########################################################
                #                        -***-                          #
                #          Department of theory and spectroscopy        #
                #                                                       #
                #                      Frank Neese                      #
                #                                                       #
                #     Directorship, Architecture, Infrastructure        #
                #                    SHARK, DRIVERS                     #
                #        Core code/Algorithms in most modules           #
                #                                                       #
                #        Max Planck Institute fuer Kohlenforschung      #
                #                Kaiser Wilhelm Platz 1                 #
                #                 D-45470 Muelheim/Ruhr                 #
                #                      Germany                          #
                #                                                       #
                #                  All rights reserved                  #
                #                        -***-                          #
                #########################################################


                         Program Version 6.0.0  -   RELEASE  -


 With contributions from (in alphabetic order):
   Daniel Aravena         : Magnetic Suceptibility
   Michael Atanasov       : Ab Initio Ligand Field Theory (pilot matlab implementation)
   Alexander A. Auer      : GIAO ZORA, VPT2 properties, NMR spectrum
   Ute Becker             : All parallelization in ORCA, NUMFREQ, NUMCALC
   Giovanni Bistoni       : ED, misc. LED, open-shell LED, HFLD
   Martin Brehm           : Molecular dynamics
   Dmytro Bykov           : pre 5.0 version of the SCF Hessian
   Marcos Casanova-Páez   : Triplet and SCS-CIS(D). UHF-(DLPNO)-IP/EA/STEOM-CCSD. UHF-CVS-IP/STEOM-CCSD
   Vijay G. Chilkuri      : MRCI spin determinant printing, contributions to CSF-ICE
   Pauline Colinet        : FMM embedding
   Dipayan Datta          : RHF DLPNO-CCSD density
   Achintya Kumar Dutta   : EOM-CC, STEOM-CC
   Nicolas Foglia         : Exact transition moments, OPA infrastructure, MCD improvements
   Dmitry Ganyushin       : Spin-Orbit,Spin-Spin,Magnetic field MRCI
   Miquel Garcia          : C-PCM and meta-GGA Hessian, CCSD/C-PCM, Gaussian charge scheme
   Tiago L. C. Gouveia    : GS-ROHF, GS-ROCIS
   Yang Guo               : DLPNO-NEVPT2, F12-NEVPT2, CIM, IAO-localization
   Andreas Hansen         : Spin unrestricted coupled pair/coupled cluster methods
   Ingolf Harden          : AUTO-CI MPn and infrastructure 
   Benjamin Helmich-Paris : MC-RPA, TRAH-(SCF,CASSCF), AVAS, COSX integrals, SCF dyn. polar.
   Lee Huntington         : MR-EOM, pCC
   Robert Izsak           : Overlap fitted RIJCOSX, COSX-SCS-MP3, EOM
   Riya Kayal             : Wick's Theorem for AUTO-CI, AUTO-CI UHF-CCSDT
   Emily Kempfer          : AUTO-CI, RHF CISDT and CCSDT
   Christian Kollmar      : KDIIS, OOCD, Brueckner-CCSD(T), CCSD density, CASPT2, CASPT2-K, improved NEVPT2
   Axel Koslowski         : Symmetry handling
   Simone Kossmann        : Meta GGA functionals, TD-DFT gradient, OOMP2, (MP2 Hessian; deprecated post 5.0)
   Lucas Lang             : DCDCAS
   Marvin Lechner         : AUTO-CI (C++ implementation), FIC-MRCC
   Spencer Leger          : CASSCF response
   Dagmar Lenk            : GEPOL surface, SMD, ORCA-2-JSON
   Dimitrios Liakos       : Extrapolation schemes; Compound Job, initial MDCI parallelization
   Dimitrios Manganas     : Further ROCIS development; embedding schemes. LFT, Crystal Embedding
   Dimitrios Pantazis     : SARC Basis sets
   Anastasios Papadopoulos: AUTO-CI, single reference methods and gradients
   Taras Petrenko         : pre 6.0 DFT Hessian and TD-DFT gradient, (ASA, deprecated), ECA, 1-Electron XAS/XES, NRVS
   Peter Pinski           : DLPNO-MP2, DLPNO-MP2 Gradient
   Christoph Reimann      : Effective Core Potentials
   Marius Retegan         : Local ZFS, SOC
   Christoph Riplinger    : Optimizer, TS searches, QM/MM, DLPNO-CCSD(T), (RO)-DLPNO pert. Triples
   Michael Roemelt        : Original ROCIS implementation
   Masaaki Saitow         : Open-shell DLPNO-CCSD energy and density
   Barbara Sandhoefer     : DKH picture change effects
   Kantharuban Sivalingam : CASSCF convergence/infrastructure, NEVPT2 and variants, FIC-MRCI
   Bernardo de Souza      : ESD, SOC TD-DFT
   Georgi Stoychev        : AutoAux, RI-MP2 NMR, DLPNO-MP2 response, X2C
   Van Anh Tran           : RI-MP2 g-tensors
   Willem Van den Heuvel  : Paramagnetic NMR
   Zikuan Wang            : NOTCH, Electric field optimization 
   Frank Wennmohs         : Technical directorship and infrastructure
   Hang Xu                : AUTO-CI-Response properties 


 We gratefully acknowledge several colleagues who have allowed us to
 interface, adapt or use parts of their codes:
   Stefan Grimme, W. Hujo, H. Kruse, P. Pracht,  : VdW corrections, initial TS optimization,
                  C. Bannwarth, S. Ehlert,         DFT functionals, gCP, sTDA/sTD-DF
                  L. Wittmann, M. Mueller
   Ed Valeev, F. Pavosevic, A. Kumar             : LibInt (2-el integral package), F12 methods
   Garnet Chan, S. Sharma, J. Yang, R. Olivares  : DMRG
   Ulf Ekstrom                                   : XCFun DFT Library
   Mihaly Kallay                                 : mrcc  (arbitrary order and MRCC methods)
   Frank Weinhold                                : gennbo (NPA and NBO analysis)
   Simon Mueller                                 : openCOSMO-RS
   Christopher J. Cramer and Donald G. Truhlar   : smd solvation model
   Lars Goerigk                                  : TD-DFT with DH, B97 family of functionals
   V. Asgeirsson, H. Jonsson                     : NEB implementation
   FAccTs GmbH                                   : IRC, NEB, NEB-TS, DLPNO-Multilevel, CI-OPT
                                                   MM, QMMM, 2- and 3-layer-ONIOM, Crystal-QMMM,
                                                   LR-CPCM, SF, NACMEs, symmetry and pop. for TD-DFT,
                                                   nearIR, NL-DFT gradient (VV10), updates on ESD,
                                                   ML-optimized integration grids, MBIS, APM,
                                                   GOAT, DOCKER, SOLVATOR, interface openCOSMO-RS
   S Lehtola, MJT Oliveira, MAL Marques          : LibXC Library
   Liviu Ungur et al                             : ANISO software


 Your calculation uses the libint2 library for the computation of 2-el integrals
 For citations please refer to: http://libint.valeyev.net

 Your ORCA version has been built with support for libXC version: 6.2.2
 For citations please refer to: https://libxc.gitlab.io

 This ORCA versions uses:
   CBLAS   interface :  Fast vector & matrix operations
   LAPACKE interface :  Fast linear algebra routines
   SCALAPACK package :  Parallel linear algebra routines
   Shared memory     :  Shared parallel matrices
   BLAS/LAPACK       :  OpenBLAS 0.3.27  USE64BITINT DYNAMIC_ARCH NO_AFFINITY Zen SINGLE_THREADED
        Core in use  :  Zen
   Copyright (c) 2011-2014, The OpenBLAS Project


NOTE: MaxCore=8000 MB was set to SCF,MP2,MDCI,CIPSI,MRCI and CIS
      => If you want to overwrite this, your respective input block should be placed after the MaxCore statement
Your calculation utilizes the atom-pairwise dispersion correction
based on EEQ partial charges (D4)


================================================================================

----- Orbital basis set information -----
Your calculation utilizes the basis: pcJ-0
   F. Jensen, Theor. Chem. Acc. 126, 371 (2010).

----- AuxJ basis set information -----
Your calculation utilizes the auxiliary basis: def2/J
   F. Weigend, Phys. Chem. Chem. Phys. 8, 1057 (2006).

================================================================================
                                        WARNINGS
                       Please study these warnings very carefully!
================================================================================

WARNING: Old DensityContainer found on disk!
         Will remove this file - 
         If you want to keep old densities, please start your calculation with a different basename. 


================================================================================
                                       INPUT FILE
================================================================================
NAME = inpJ
|  1> ! pbe0
|  2> ! D4
|  3> ! pcJ-0
|  4> ! def2/J RIJCOSX
|  5> ! DEFGRID2
|  6> ! scfconv7
|  7> ! smallprint printgap noloewdin
|  8> ! NOSOSCF
|  9> %MaxCore 8000
| 10> %output
| 11>        print[P_BondOrder_M] 1
| 12>        print[P_Mayer] 1
| 13>        print[P_basis] 2
| 14> end
| 15> %pal
| 16>     nprocs 4
| 17> end
| 18> ! CPCM(chloroform)
| 19> *xyz 0 1
| 20> C   -4.9733518300   0.2565731700  -0.4616985000
| 21> C   -6.4283704300  -0.1389887500  -0.5461280100
| 22> C   -7.2900732700   0.8009031100   0.3070035400
| 23> H   -6.5686634700  -1.1757190800  -0.2196529500
| 24> H   -6.7757575100  -0.0615615900  -1.5870781900
| 25> C   -4.7178648400   1.6734235600  -0.8044761000
| 26> C   -5.6034317700   2.6588342000  -0.0744560700
| 27> C   -7.0825860900   2.2514984000  -0.1311903000
| 28> H   -5.4655475700   3.6661639300  -0.4816329500
| 29> H   -5.2871955900   2.6924950600   0.9792719300
| 30> H   -7.4527748100   2.3573115800  -1.1600716500
| 31> H   -7.6803635900   2.9148881500   0.5045049800
| 32> O   -7.0058199900   0.6209599200   1.7044175600
| 33> H   -8.3475521500   0.5323561800   0.1923876000
| 34> C   -4.0314047500  -0.6165745400  -0.0319518300
| 35> C   -3.8124970600   2.0564857700  -1.7110678900
| 36> H   -3.1983463700   1.3313487400  -2.2383796500
| 37> H   -3.6732512300   3.1076053500  -1.9526890200
| 38> C   -2.6339776100  -0.3217784600   0.1850220900
| 39> H   -4.3765276000  -1.6241962900   0.1966202200
| 40> C   -1.6736039400  -1.2003426900   0.5438581500
| 41> H   -2.3445275300   0.7184752200   0.0552328400
| 42> C   -1.8696816400  -2.6791120000   0.7618187000
| 43> C   -0.8873054900  -3.5154509000  -0.0804244600
| 44> H   -2.8952915900  -2.9976058500   0.5565369600
| 45> H   -1.6739157300  -2.8913407900   1.8250632900
| 46> C    0.5689990000  -3.0591270200   0.0821629300
| 47> H   -1.1791399200  -3.4553976000  -1.1365194600
| 48> H   -0.9755418500  -4.5703053700   0.2071205000
| 49> C    0.7326206600  -1.5586115800  -0.1986943400
| 50> H    1.2036956200  -3.6607797800  -0.5763005900
| 51> H    0.8984102000  -3.2566081900   1.1133506400
| 52> C   -0.2461622700  -0.7986519200   0.7540546100
| 53> H    0.0297174500  -1.1470668900   1.7664633300
| 54> C    0.1841928100   0.6600528700   0.6444694600
| 55> H   -6.0458667100   0.5448896500   1.8012913000
| 56> C    1.7226636400   0.5752868700   0.4919840700
| 57> H   -0.1252771400   1.2485580900   1.5144471000
| 58> H   -0.2612103100   1.1312382900  -0.2389328300
| 59> C    2.0787369800  -0.9235037400   0.2500485800
| 60> H    2.2396488100   0.9559970000   1.3783860500
| 61> H    2.0587878700   1.1863545500  -0.3543842600
| 62> H    2.3331578500  -1.3832953500   1.2184901900
| 63> C    3.3216937000  -1.0855509300  -0.6587252000
| 64> C    0.4325187700  -1.2350266900  -1.6677714000
| 65> H    0.6545905500  -0.1898536500  -1.9063785400
| 66> H   -0.6215543300  -1.4062796000  -1.9075292800
| 67> H    1.0352003100  -1.8624475200  -2.3334688200
| 68> H    3.0837555600  -0.5885873000  -1.6140488900
| 69> C    3.6744365500  -2.5415974800  -0.9557574800
| 70> C    4.4694507600  -0.3162370200  -0.0457584500
| 71> C    5.5947109200  -0.8351619500   0.4485268200
| 72> H    4.3224006800   0.7617445000   0.0048919100
| 73> H    5.7381182000  -1.9136731800   0.4062279800
| 74> C    6.7340072000  -0.0632855500   1.0691953400
| 75> C    6.3526457100   1.3700876900   1.4446719900
| 76> C    7.9931698200  -0.1065158200   0.1575146700
| 77> H    7.0111051300  -0.5963269700   1.9955519500
| 78> H    7.7343764200   0.4343089400  -0.7667693800
| 79> C    8.3829097900  -1.5399326400  -0.2182031600
| 80> C    9.1898719700   0.5921767800   0.8109579000
| 81> H    6.2233117700   1.9929502100   0.5511820000
| 82> H    7.1215074700   1.8342418600   2.0672484500
| 83> H    5.4131561300   1.3870177900   2.0069003900
| 84> H    7.6149295600  -2.0342453500  -0.8201062000
| 85> H    8.5488034700  -2.1433444600   0.6839315800
| 86> H    9.3128164000  -1.5428377800  -0.7970871600
| 87> H    9.0168730200   1.6605211800   0.9664534700
| 88> H    10.0809568800   0.4891962800   0.1821150300
| 89> H    9.4133552900   0.1373347600   1.7849308300
| 90> H    2.9083429300  -3.0143312700  -1.5733150800
| 91> H    3.7734733600  -3.1275242900  -0.0342176900
| 92> H    4.6235947800  -2.6040618900  -1.4993738600
| 93> *
| 94> %eprnmr
| 95>  Nuclei = all C { ssfc }
| 96>  SpinSpinRThresh 8.0
| 97> end
| 98> 
| 99>                          ****END OF INPUT****
================================================================================

                       ****************************
                       * Single Point Calculation *
                       ****************************

---------------------------------
CARTESIAN COORDINATES (ANGSTROEM)
---------------------------------
  C     -4.973352    0.256573   -0.461699
  C     -6.428370   -0.138989   -0.546128
  C     -7.290073    0.800903    0.307004
  H     -6.568663   -1.175719   -0.219653
  H     -6.775758   -0.061562   -1.587078
  C     -4.717865    1.673424   -0.804476
  C     -5.603432    2.658834   -0.074456
  C     -7.082586    2.251498   -0.131190
  H     -5.465548    3.666164   -0.481633
  H     -5.287196    2.692495    0.979272
  H     -7.452775    2.357312   -1.160072
  H     -7.680364    2.914888    0.504505
  O     -7.005820    0.620960    1.704418
  H     -8.347552    0.532356    0.192388
  C     -4.031405   -0.616575   -0.031952
  C     -3.812497    2.056486   -1.711068
  H     -3.198346    1.331349   -2.238380
  H     -3.673251    3.107605   -1.952689
  C     -2.633978   -0.321778    0.185022
  H     -4.376528   -1.624196    0.196620
  C     -1.673604   -1.200343    0.543858
  H     -2.344528    0.718475    0.055233
  C     -1.869682   -2.679112    0.761819
  C     -0.887305   -3.515451   -0.080424
  H     -2.895292   -2.997606    0.556537
  H     -1.673916   -2.891341    1.825063
  C      0.568999   -3.059127    0.082163
  H     -1.179140   -3.455398   -1.136519
  H     -0.975542   -4.570305    0.207121
  C      0.732621   -1.558612   -0.198694
  H      1.203696   -3.660780   -0.576301
  H      0.898410   -3.256608    1.113351
  C     -0.246162   -0.798652    0.754055
  H      0.029717   -1.147067    1.766463
  C      0.184193    0.660053    0.644469
  H     -6.045867    0.544890    1.801291
  C      1.722664    0.575287    0.491984
  H     -0.125277    1.248558    1.514447
  H     -0.261210    1.131238   -0.238933
  C      2.078737   -0.923504    0.250049
  H      2.239649    0.955997    1.378386
  H      2.058788    1.186355   -0.354384
  H      2.333158   -1.383295    1.218490
  C      3.321694   -1.085551   -0.658725
  C      0.432519   -1.235027   -1.667771
  H      0.654591   -0.189854   -1.906379
  H     -0.621554   -1.406280   -1.907529
  H      1.035200   -1.862448   -2.333469
  H      3.083756   -0.588587   -1.614049
  C      3.674437   -2.541597   -0.955757
  C      4.469451   -0.316237   -0.045758
  C      5.594711   -0.835162    0.448527
  H      4.322401    0.761745    0.004892
  H      5.738118   -1.913673    0.406228
  C      6.734007   -0.063286    1.069195
  C      6.352646    1.370088    1.444672
  C      7.993170   -0.106516    0.157515
  H      7.011105   -0.596327    1.995552
  H      7.734376    0.434309   -0.766769
  C      8.382910   -1.539933   -0.218203
  C      9.189872    0.592177    0.810958
  H      6.223312    1.992950    0.551182
  H      7.121507    1.834242    2.067248
  H      5.413156    1.387018    2.006900
  H      7.614930   -2.034245   -0.820106
  H      8.548803   -2.143344    0.683932
  H      9.312816   -1.542838   -0.797087
  H      9.016873    1.660521    0.966453
  H     10.080957    0.489196    0.182115
  H      9.413355    0.137335    1.784931
  H      2.908343   -3.014331   -1.573315
  H      3.773473   -3.127524   -0.034218
  H      4.623595   -2.604062   -1.499374

----------------------------
CARTESIAN COORDINATES (A.U.)
----------------------------
  NO LB      ZA    FRAG     MASS         X           Y           Z
   0 C     6.0000    0    12.011   -9.398273    0.484853   -0.872484
   1 C     6.0000    0    12.011  -12.147860   -0.262651   -1.032032
   2 C     6.0000    0    12.011  -13.776242    1.513488    0.580153
   3 H     1.0000    0     1.008  -12.412975   -2.221787   -0.415084
   4 H     1.0000    0     1.008  -12.804326   -0.116335   -2.999143
   5 C     6.0000    0    12.011   -8.915472    3.162312   -1.520240
   6 C     6.0000    0    12.011  -10.588951    5.024468   -0.140702
   7 C     6.0000    0    12.011  -13.384148    4.254715   -0.247914
   8 H     1.0000    0     1.008  -10.328388    6.928046   -0.910154
   9 H     1.0000    0     1.008   -9.991352    5.088078    1.850556
  10 H     1.0000    0     1.008  -14.083703    4.454673   -2.192218
  11 H     1.0000    0     1.008  -14.513784    5.508340    0.953376
  12 O     8.0000    0    15.999  -13.239081    1.173444    3.220882
  13 H     1.0000    0     1.008  -15.774587    1.006007    0.363560
  14 C     6.0000    0    12.011   -7.618251   -1.165157   -0.060380
  15 C     6.0000    0    12.011   -7.204575    3.886195   -3.233450
  16 H     1.0000    0     1.008   -6.043999    2.515885   -4.229925
  17 H     1.0000    0     1.008   -6.941439    5.872523   -3.690047
  18 C     6.0000    0    12.011   -4.977496   -0.608073    0.349641
  19 H     1.0000    0     1.008   -8.270439   -3.069286    0.371558
  20 C     6.0000    0    12.011   -3.162653   -2.268319    1.027743
  21 H     1.0000    0     1.008   -4.430515    1.357721    0.104375
  22 C     6.0000    0    12.011   -3.533186   -5.062788    1.439629
  23 C     6.0000    0    12.011   -1.676764   -6.643239   -0.151980
  24 H     1.0000    0     1.008   -5.471308   -5.664654    1.051702
  25 H     1.0000    0     1.008   -3.163242   -5.463842    3.448870
  26 C     6.0000    0    12.011    1.075252   -5.780912    0.155265
  27 H     1.0000    0     1.008   -2.228252   -6.529755   -2.147711
  28 H     1.0000    0     1.008   -1.843507   -8.636625    0.391401
  29 C     6.0000    0    12.011    1.384452   -2.945349   -0.375478
  30 H     1.0000    0     1.008    2.274655   -6.917871   -1.089050
  31 H     1.0000    0     1.008    1.697749   -6.154098    2.103928
  32 C     6.0000    0    12.011   -0.465179   -1.509233    1.424957
  33 H     1.0000    0     1.008    0.056158   -2.167642    3.338132
  34 C     6.0000    0    12.011    0.348074    1.247319    1.217871
  35 H     1.0000    0     1.008  -11.425032    1.029692    3.403947
  36 C     6.0000    0    12.011    3.255363    1.087135    0.929715
  37 H     1.0000    0     1.008   -0.236739    2.359433    2.861890
  38 H     1.0000    0     1.008   -0.493616    2.137731   -0.451518
  39 C     6.0000    0    12.011    3.928244   -1.745169    0.472523
  40 H     1.0000    0     1.008    4.232323    1.806573    2.604772
  41 H     1.0000    0     1.008    3.890545    2.241885   -0.669689
  42 H     1.0000    0     1.008    4.409029   -2.614049    2.302613
  43 C     6.0000    0    12.011    6.277091   -2.051394   -1.244810
  44 C     6.0000    0    12.011    0.817342   -2.333862   -3.151631
  45 H     1.0000    0     1.008    1.236997   -0.358771   -3.602533
  46 H     1.0000    0     1.008   -1.174567   -2.657483   -3.604708
  47 H     1.0000    0     1.008    1.956245   -3.519516   -4.409617
  48 H     1.0000    0     1.008    5.827453   -1.112269   -3.050110
  49 C     6.0000    0    12.011    6.943679   -4.802923   -1.806120
  50 C     6.0000    0    12.011    8.446038   -0.597601   -0.086471
  51 C     6.0000    0    12.011   10.572471   -1.578227    0.847593
  52 H     1.0000    0     1.008    8.168154    1.439488    0.009244
  53 H     1.0000    0     1.008   10.843472   -3.616318    0.767660
  54 C     6.0000    0    12.011   12.725429   -0.119592    2.020486
  55 C     6.0000    0    12.011   12.004761    2.589091    2.730034
  56 C     6.0000    0    12.011   15.104902   -0.201286    0.297660
  57 H     1.0000    0     1.008   13.249069   -1.126895    3.771047
  58 H     1.0000    0     1.008   14.615853    0.820725   -1.448984
  59 C     6.0000    0    12.011   15.841404   -2.910051   -0.412344
  60 C     6.0000    0    12.011   17.366341    1.119052    1.532488
  61 H     1.0000    0     1.008   11.760355    3.766130    1.041583
  62 H     1.0000    0     1.008   13.457699    3.466215    3.906533
  63 H     1.0000    0     1.008   10.229383    2.621084    3.792492
  64 H     1.0000    0     1.008   14.390131   -3.844167   -1.549776
  65 H     1.0000    0     1.008   16.154897   -4.050334    1.292443
  66 H     1.0000    0     1.008   17.598673   -2.915541   -1.506276
  67 H     1.0000    0     1.008   17.039421    3.137930    1.826332
  68 H     1.0000    0     1.008   19.050248    0.924447    0.344148
  69 H     1.0000    0     1.008   17.788663    0.259525    3.373030
  70 H     1.0000    0     1.008    5.495972   -5.696261   -2.973135
  71 H     1.0000    0     1.008    7.130831   -5.910164   -0.064662
  72 H     1.0000    0     1.008    8.737328   -4.920964   -2.833406

--------------------------------
INTERNAL COORDINATES (ANGSTROEM)
--------------------------------
 C      0   0   0     0.000000000000     0.00000000     0.00000000
 C      1   0   0     1.510190948542     0.00000000     0.00000000
 C      2   1   0     1.534197488775   110.46231333     0.00000000
 H      2   1   3     1.095936986791   110.76029052   237.87284912
 H      2   1   3     1.100113642175   109.79785102   118.75733453
 C      1   2   3     1.479944293804   113.83717778   305.86080556
 C      6   1   2     1.512677150332   114.25636881    50.32107481
 C      3   2   1     1.529474245173   110.21368149    56.60660544
 H      7   6   1     1.095225204768   110.24486429   188.39808155
 H      7   6   1     1.100673009127   108.28471291    71.70479317
 H      8   3   2     1.098559488537   108.29842832    64.68186292
 H      8   3   2     1.096144328510   109.50310848   181.65381796
 O      3   2   1     1.437339703101   110.66221197   292.49872330
 H      3   2   1     1.097048699448   109.47177017   177.04181189
 C      1   2   3     1.354375658883   121.26208264   122.28054288
 C      6   1   2     1.337286860583   123.23886223   232.29575041
 H     16   6   1     1.086766982632   121.35949516   359.01736027
 H     16   6   1     1.087484502462   120.94282475   178.40486963
 C     15   1   2     1.444570878272   126.07782047   184.96923433
 H     15   1   2     1.089337667900   116.26743849     3.02928010
 C     19  15   1     1.350168882111   126.52784905   183.81621121
 H     19  15   1     1.087545087333   115.76855029     4.67405686
 C     21  19  15     1.507551636924   125.74609765     1.37335914
 C     23  21  19     1.540746311470   111.74576298   126.17956215
 H     23  21  19     1.093368508237   112.37041170     2.33825973
 H     23  21  19     1.101750611067   107.78022275   244.73773579
 C     24  23  21     1.534760212685   112.68730072    50.71212886
 H     24  23  21     1.097319635475   109.07662881   288.55426237
 H     24  23  21     1.096898223231   109.11219143   172.61977923
 C     27  24  23     1.535317374165   111.85945360   306.23666396
 H     27  24  23     1.094714597612   108.84534917   182.67444790
 H     27  24  23     1.100390223714   109.26698428    66.21546958
 C     21  19  15     1.497707497395   122.73168964   180.35375338
 H     33  21  19     1.105655474169   106.36786477   125.92141120
 C     33  21  19     1.524806238298   121.02989143     3.39180394
 H     13   3   2     0.967823076426   107.65648582    42.57056831
 C     35  33  21     1.548331218984   103.60005210   196.80649462
 H     35  33  21     1.094975405212   112.16606230    74.78986805
 H     35  33  21     1.095809858189   110.76696485   315.14480240
 C     30  27  24     1.554593620098   116.02426203   166.31404748
 H     37  35  33     1.094496386121   111.74888750   249.18910682
 H     37  35  33     1.096687082791   110.48969856   130.61549202
 H     40  30  27     1.101824602964   106.44967395   320.84136770
 C     40  30  27     1.548247552168   118.87908570    81.13496607
 C     30  27  24     1.533934722743   111.13186578   294.47187558
 H     45  30  27     1.094822326350   111.74196883   186.42813787
 H     45  30  27     1.094477729490   111.42057187    66.43458491
 H     45  30  27     1.095461086287   110.70379093   306.37178862
 H     44  40  30     1.102828527326   106.74346741    62.13570650
 C     44  40  30     1.527326831217   113.53735261   303.10772333
 C     44  40  30     1.511594653836   108.55948505   176.70415048
 C     51  44  40     1.334095738243   126.35038278   114.09649383
 H     51  44  40     1.089143398482   114.83885168   295.69318930
 H     52  51  44     1.088825657788   118.81507561     1.10636556
 C     52  51  44     1.509641878797   126.15637766   180.48764351
 C     55  52  51     1.530025537662   113.06584123    15.78066921
 C     55  52  51     1.555159478607   110.84289138   249.30869885
 H     55  52  51     1.104107325914   106.70863157   134.36240767
 H     57  55  52     1.101710692513   106.73714657    65.32156319
 C     57  55  52     1.532235266483   112.06767057   306.96891104
 C     57  55  52     1.532075533367   111.69843944   183.77312998
 H     56  55  52     1.096817828578   111.19154801   288.71027460
 H     56  55  52     1.092789525968   111.24484951   168.53195423
 H     56  55  52     1.095001403187   110.75306379    48.74555775
 H     60  57  55     1.093812579238   112.27890355    64.01257818
 H     60  57  55     1.097940629859   110.55429200   303.26547787
 H     60  57  55     1.095372735016   110.36542711   184.18218701
 H     61  57  55     1.093374257060   112.49920015   296.28380797
 H     61  57  55     1.095481928358   110.34423475   176.12292553
 H     61  57  55     1.097929563246   110.39081873    57.14091053
 H     50  44  40     1.091674887560   111.14731058    67.29188623
 H     50  44  40     1.096519083721   111.52018097   306.83831851
 H     50  44  40     1.095592039355   110.54460336   186.72698608

---------------------------
INTERNAL COORDINATES (A.U.)
---------------------------
 C      0   0   0     0.000000000000     0.00000000     0.00000000
 C      1   0   0     2.853847302672     0.00000000     0.00000000
 C      2   1   0     2.899213089135   110.46231333     0.00000000
 H      2   1   3     2.071020765070   110.76029052   237.87284912
 H      2   1   3     2.078913499901   109.79785102   118.75733453
 C      1   2   3     2.796689408750   113.83717778   305.86080556
 C      6   1   2     2.858545543168   114.25636881    50.32107481
 C      3   2   1     2.890287452263   110.21368149    56.60660544
 H      7   6   1     2.069675691978   110.24486429   188.39808155
 H      7   6   1     2.079970550249   108.28471291    71.70479317
 H      8   3   2     2.075976575156   108.29842832    64.68186292
 H      8   3   2     2.071412584136   109.50310848   181.65381796
 O      3   2   1     2.716178400273   110.66221197   292.49872330
 H      3   2   1     2.073121597531   109.47177017   177.04181189
 C      1   2   3     2.559399077738   121.26208264   122.28054288
 C      6   1   2     2.527105928993   123.23886223   232.29575041
 H     16   6   1     2.053691968562   121.35949516   359.01736027
 H     16   6   1     2.055047884536   120.94282475   178.40486963
 C     15   1   2     2.729843340973   126.07782047   184.96923433
 H     15   1   2     2.058549859696   116.26743849     3.02928010
 C     19  15   1     2.551449421733   126.52784905   183.81621121
 H     19  15   1     2.055162373350   115.76855029     4.67405686
 C     21  19  15     2.848859726531   125.74609765     1.37335914
 C     23  21  19     2.911588570528   111.74576298   126.17956215
 H     23  21  19     2.066167044022   112.37041170     2.33825973
 H     23  21  19     2.082006922798   107.78022275   244.73773579
 C     24  23  21     2.900276483212   112.68730072    50.71212886
 H     24  23  21     2.073633592422   109.07662881   288.55426237
 H     24  23  21     2.072837238691   109.11219143   172.61977923
 C     27  24  23     2.901329365822   111.85945360   306.23666396
 H     27  24  23     2.068710784293   108.84534917   182.67444790
 H     27  24  23     2.079436163264   109.26698428    66.21546958
 C     21  19  15     2.830256998796   122.73168964   180.35375338
 H     33  21  19     2.089386044650   106.36786477   125.92141120
 C     33  21  19     2.881466197677   121.02989143     3.39180394
 H     13   3   2     1.828920560534   107.65648582    42.57056831
 C     35  33  21     2.925921968480   103.60005210   196.80649462
 H     35  33  21     2.069203639231   112.16606230    74.78986805
 H     35  33  21     2.070780526828   110.76696485   315.14480240
 C     30  27  24     2.937756191527   116.02426203   166.31404748
 H     37  35  33     2.068298424336   111.74888750   249.18910682
 H     37  35  33     2.072438241084   110.48969856   130.61549202
 H     40  30  27     2.082146747219   106.44967395   320.84136770
 C     40  30  27     2.925763861112   118.87908570    81.13496607
 C     30  27  24     2.898716533296   111.13186578   294.47187558
 H     45  30  27     2.068914362104   111.74196883   186.42813787
 H     45  30  27     2.068263168412   111.42057187    66.43458491
 H     45  30  27     2.070121443450   110.70379093   306.37178862
 H     44  40  30     2.084043889322   106.74346741    62.13570650
 C     44  40  30     2.886229427990   113.53735261   303.10772333
 C     44  40  30     2.856499921249   108.55948505   176.70415048
 C     51  44  40     2.521075581710   126.35038278   114.09649383
 H     51  44  40     2.058182743700   114.83885168   295.69318930
 H     52  51  44     2.057582300807   118.81507561     1.10636556
 C     52  51  44     2.852809711225   126.15637766   180.48764351
 C     55  52  51     2.891329244087   113.06584123    15.78066921
 C     55  52  51     2.938825509139   110.84289138   249.30869885
 H     55  52  51     2.086460468433   106.70863157   134.36240767
 H     57  55  52     2.081931487662   106.73714657    65.32156319
 C     57  55  52     2.895505026389   112.06767057   306.96891104
 C     57  55  52     2.895203174545   111.69843944   183.77312998
 H     56  55  52     2.072685314815   111.19154801   288.71027460
 H     56  55  52     2.065072926097   111.24484951   168.53195423
 H     56  55  52     2.069252768283   110.75306379    48.74555775
 H     60  57  55     2.067006216598   112.27890355    64.01257818
 H     60  57  55     2.074807101738   110.55429200   303.26547787
 H     60  57  55     2.069954483744   110.36542711   184.18218701
 H     61  57  55     2.066177907724   112.49920015   296.28380797
 H     61  57  55     2.070160829257   110.34423475   176.12292553
 H     61  57  55     2.074786188870   110.39081873    57.14091053
 H     50  44  40     2.062966564769   111.14731058    67.29188623
 H     50  44  40     2.072120768852   111.52018097   306.83831851
 H     50  44  40     2.070368908885   110.54460336   186.72698608

---------------------
BASIS SET INFORMATION
---------------------
There are 3 groups of distinct atoms

 Group   1 Type C   : 7s4p contracted to 4s3p pattern {4111/211}
 Group   2 Type H   : 5s contracted to 3s pattern {311}
 Group   3 Type O   : 7s4p contracted to 4s3p pattern {4111/211}

Atom   0C    basis set group =>   1
Atom   1C    basis set group =>   1
Atom   2C    basis set group =>   1
Atom   3H    basis set group =>   2
Atom   4H    basis set group =>   2
Atom   5C    basis set group =>   1
Atom   6C    basis set group =>   1
Atom   7C    basis set group =>   1
Atom   8H    basis set group =>   2
Atom   9H    basis set group =>   2
Atom  10H    basis set group =>   2
Atom  11H    basis set group =>   2
Atom  12O    basis set group =>   3
Atom  13H    basis set group =>   2
Atom  14C    basis set group =>   1
Atom  15C    basis set group =>   1
Atom  16H    basis set group =>   2
Atom  17H    basis set group =>   2
Atom  18C    basis set group =>   1
Atom  19H    basis set group =>   2
Atom  20C    basis set group =>   1
Atom  21H    basis set group =>   2
Atom  22C    basis set group =>   1
Atom  23C    basis set group =>   1
Atom  24H    basis set group =>   2
Atom  25H    basis set group =>   2
Atom  26C    basis set group =>   1
Atom  27H    basis set group =>   2
Atom  28H    basis set group =>   2
Atom  29C    basis set group =>   1
Atom  30H    basis set group =>   2
Atom  31H    basis set group =>   2
Atom  32C    basis set group =>   1
Atom  33H    basis set group =>   2
Atom  34C    basis set group =>   1
Atom  35H    basis set group =>   2
Atom  36C    basis set group =>   1
Atom  37H    basis set group =>   2
Atom  38H    basis set group =>   2
Atom  39C    basis set group =>   1
Atom  40H    basis set group =>   2
Atom  41H    basis set group =>   2
Atom  42H    basis set group =>   2
Atom  43C    basis set group =>   1
Atom  44C    basis set group =>   1
Atom  45H    basis set group =>   2
Atom  46H    basis set group =>   2
Atom  47H    basis set group =>   2
Atom  48H    basis set group =>   2
Atom  49C    basis set group =>   1
Atom  50C    basis set group =>   1
Atom  51C    basis set group =>   1
Atom  52H    basis set group =>   2
Atom  53H    basis set group =>   2
Atom  54C    basis set group =>   1
Atom  55C    basis set group =>   1
Atom  56C    basis set group =>   1
Atom  57H    basis set group =>   2
Atom  58H    basis set group =>   2
Atom  59C    basis set group =>   1
Atom  60C    basis set group =>   1
Atom  61H    basis set group =>   2
Atom  62H    basis set group =>   2
Atom  63H    basis set group =>   2
Atom  64H    basis set group =>   2
Atom  65H    basis set group =>   2
Atom  66H    basis set group =>   2
Atom  67H    basis set group =>   2
Atom  68H    basis set group =>   2
Atom  69H    basis set group =>   2
Atom  70H    basis set group =>   2
Atom  71H    basis set group =>   2
Atom  72H    basis set group =>   2

-------------------------
BASIS SET IN INPUT FORMAT
-------------------------

 # Basis set for element : H 
 NewGTO H 
 S 3 
   1    1357.7500000000      0.0012928364
   2      54.3100000000      0.0588280685
   3       4.3448000000      0.9761499708
 S 1 
   1       0.6604910000      1.0000000000
 S 1 
   1       0.1366870000      1.0000000000
  end;

 # Basis set for element : C 
 NewGTO C 
 S 4 
   1  139534.0000000000      0.0001655246
   2    5581.3600000000      0.0074486101
   3     446.5090000000      0.1285821065
   4      67.4620000000      0.9218029311
 S 1 
   1      15.0674000000      1.0000000000
 S 1 
   1       3.9387600000      1.0000000000
 S 1 
   1       0.2999150000      1.0000000000
 P 2 
   1      28.3900000000      0.0816325586
   2       4.3676900000      0.9660360576
 P 1 
   1       0.8698170000      1.0000000000
 P 1 
   1       0.1889340000      1.0000000000
  end;

 # Basis set for element : O 
 NewGTO O 
 S 4 
   1  253789.0000000000      0.0001641076
   2   10151.6000000000      0.0074010921
   3     812.1250000000      0.1277711901
   4     122.6930000000      0.9223372164
 S 1 
   1      27.5608000000      1.0000000000
 S 1 
   1       7.3172600000      1.0000000000
 S 1 
   1       0.5792400000      1.0000000000
 P 2 
   1      53.4157000000      0.0793786106
   2       8.2177900000      0.9670506337
 P 1 
   1       1.6754400000      1.0000000000
 P 1 
   1       0.3506720000      1.0000000000
  end;

---------------------------------
AUXILIARY/J BASIS SET INFORMATION
---------------------------------
There are 3 groups of distinct atoms

 Group   1 Type C   : 12s5p4d2f1g contracted to 6s4p3d1f1g pattern {711111/2111/211/2/1}
 Group   2 Type H   : 5s2p1d contracted to 3s1p1d pattern {311/2/1}
 Group   3 Type O   : 12s5p4d2f1g contracted to 6s4p3d1f1g pattern {711111/2111/211/2/1}

Atom   0C    basis set group =>   1
Atom   1C    basis set group =>   1
Atom   2C    basis set group =>   1
Atom   3H    basis set group =>   2
Atom   4H    basis set group =>   2
Atom   5C    basis set group =>   1
Atom   6C    basis set group =>   1
Atom   7C    basis set group =>   1
Atom   8H    basis set group =>   2
Atom   9H    basis set group =>   2
Atom  10H    basis set group =>   2
Atom  11H    basis set group =>   2
Atom  12O    basis set group =>   3
Atom  13H    basis set group =>   2
Atom  14C    basis set group =>   1
Atom  15C    basis set group =>   1
Atom  16H    basis set group =>   2
Atom  17H    basis set group =>   2
Atom  18C    basis set group =>   1
Atom  19H    basis set group =>   2
Atom  20C    basis set group =>   1
Atom  21H    basis set group =>   2
Atom  22C    basis set group =>   1
Atom  23C    basis set group =>   1
Atom  24H    basis set group =>   2
Atom  25H    basis set group =>   2
Atom  26C    basis set group =>   1
Atom  27H    basis set group =>   2
Atom  28H    basis set group =>   2
Atom  29C    basis set group =>   1
Atom  30H    basis set group =>   2
Atom  31H    basis set group =>   2
Atom  32C    basis set group =>   1
Atom  33H    basis set group =>   2
Atom  34C    basis set group =>   1
Atom  35H    basis set group =>   2
Atom  36C    basis set group =>   1
Atom  37H    basis set group =>   2
Atom  38H    basis set group =>   2
Atom  39C    basis set group =>   1
Atom  40H    basis set group =>   2
Atom  41H    basis set group =>   2
Atom  42H    basis set group =>   2
Atom  43C    basis set group =>   1
Atom  44C    basis set group =>   1
Atom  45H    basis set group =>   2
Atom  46H    basis set group =>   2
Atom  47H    basis set group =>   2
Atom  48H    basis set group =>   2
Atom  49C    basis set group =>   1
Atom  50C    basis set group =>   1
Atom  51C    basis set group =>   1
Atom  52H    basis set group =>   2
Atom  53H    basis set group =>   2
Atom  54C    basis set group =>   1
Atom  55C    basis set group =>   1
Atom  56C    basis set group =>   1
Atom  57H    basis set group =>   2
Atom  58H    basis set group =>   2
Atom  59C    basis set group =>   1
Atom  60C    basis set group =>   1
Atom  61H    basis set group =>   2
Atom  62H    basis set group =>   2
Atom  63H    basis set group =>   2
Atom  64H    basis set group =>   2
Atom  65H    basis set group =>   2
Atom  66H    basis set group =>   2
Atom  67H    basis set group =>   2
Atom  68H    basis set group =>   2
Atom  69H    basis set group =>   2
Atom  70H    basis set group =>   2
Atom  71H    basis set group =>   2
Atom  72H    basis set group =>   2

-------------------------------------
AUXILIARY/J BASIS SET IN INPUT FORMAT
-------------------------------------

 # Auxiliary/J basis set for element : H 
 NewAuxJGTO H 
 S 3 
   1      15.6752927000      0.1007184237
   2       3.6063578000      0.3404257499
   3       1.2080016000      0.6491996172
 S 1 
   1       0.4726794000      1.0000000000
 S 1 
   1       0.2018100000      1.0000000000
 P 2 
   1       2.0281365000      0.5596620919
   2       0.5358730000      0.5596620919
 D 1 
   1       2.2165124000      1.0000000000
  end;

 # Auxiliary/J basis set for element : C 
 NewAuxJGTO C 
 S 7 
   1    1861.0916331000      0.0134602335
   2     642.9939764000      0.0299160374
   3     235.1105725000      0.1008649584
   4      90.7028894000      0.2370970548
   5      36.7794552000      0.3924037254
   6      15.6046273000      0.3195862154
   7       6.8907294000      0.0530104441
 S 1 
   1       3.1478850000     -1.0000000000
 S 1 
   1       1.4777287000      1.0000000000
 S 1 
   1       0.7076466000      1.0000000000
 S 1 
   1       0.3430122000      1.0000000000
 S 1 
   1       0.1669453000      1.0000000000
 P 2 
   1      13.5472892000     -0.6769313712
   2       5.4669419000     -0.3779500978
 P 1 
   1       2.1751721000      1.0000000000
 P 1 
   1       0.8582194000      1.0000000000
 P 1 
   1       0.3376720000      1.0000000000
 D 2 
   1       5.9287253000     -0.3533329857
   2       1.9809209000     -0.7456525731
 D 1 
   1       0.8055417000     -1.0000000000
 D 1 
   1       0.3531244000     -1.0000000000
 F 2 
   1       1.6755626000      0.6311076882
   2       0.5997536000      0.4968166032
 G 1 
   1       1.0024600000     -1.0000000000
  end;

 # Auxiliary/J basis set for element : O 
 NewAuxJGTO O 
 S 7 
   1    2876.8216605000      0.0168151159
   2    1004.7443032000      0.0340137548
   3     369.7579954000      0.1194951309
   4     142.9442404000      0.2664627624
   5      57.8366425000      0.4202764046
   6      24.3864983000      0.2765077335
   7      10.6622662000      0.0057008815
 S 1 
   1       4.8070437000     -1.0000000000
 S 1 
   1       2.2210770000      1.0000000000
 S 1 
   1       1.0447795000      1.0000000000
 S 1 
   1       0.4968425000      1.0000000000
 S 1 
   1       0.2371384000      1.0000000000
 P 2 
   1      64.2613382000     -0.2731534179
   2      16.3006076000     -0.8168011598
 P 1 
   1       4.3550542000      1.0000000000
 P 1 
   1       1.2019554000      1.0000000000
 P 1 
   1       0.3354196000      1.0000000000
 D 2 
   1       9.2146611000     -0.4661230638
   2       2.8435251000     -0.6600908911
 D 1 
   1       0.9955759000     -1.0000000000
 D 1 
   1       0.3649441000     -1.0000000000
 F 2 
   1       2.6420115000      0.5931563945
   2       0.7345613000      0.5931563945
 G 1 
   1       1.3931000000     -1.0000000000
  end;


Checking for AutoStart:
The File: inpJ.gbw exists
Trying to determine its content:
     ... Fine, the file contains calculation information
     ... Fine, the calculation information was read
     ... Fine, the file contains a basis set
     ... Fine, the basis set was read
     ... Fine, the file contains a geometry
     ... Fine, the geometry was read
     ... Fine, the file contains a set of orbitals
     ... Fine, the orbitals can be read
     => possible old guess file was deleted
     => GBW file was renamed to GES file
     => GES file is set as startup file
     => Guess is set to MORead
     ... now leaving AutoStart



           ************************************************************
           *        Program running with 4 parallel MPI-processes     *
           *              working on a common directory               *
           ************************************************************
------------------------------------------------------------------------------
                             ORCA STARTUP CALCULATIONS
                           -- RI-GTO INTEGRALS CHOSEN --
------------------------------------------------------------------------------
------------------------------------------------------------------------------
                   ___                                                        
                  /   \      - P O W E R E D   B Y -                         
                 /     \                                                     
                 |  |  |   _    _      __       _____    __    __             
                 |  |  |  | |  | |    /  \     |  _  \  |  |  /  |          
                  \  \/   | |  | |   /    \    | | | |  |  | /  /          
                 / \  \   | |__| |  /  /\  \   | |_| |  |  |/  /          
                |  |  |   |  __  | /  /__\  \  |    /   |      \           
                |  |  |   | |  | | |   __   |  |    \   |  |\   \          
                \     /   | |  | | |  |  |  |  | |\  \  |  | \   \       
                 \___/    |_|  |_| |__|  |__|  |_| \__\ |__|  \__/        
                                                                              
                      - O R C A' S   B I G   F R I E N D -                    
                                      &                                       
                       - I N T E G R A L  F E E D E R -                       
                                                                              
 v1 FN, 2020, v2 2021, v3 2022-2024                                           
------------------------------------------------------------------------------


----------------------
SHARK INTEGRAL PACKAGE
----------------------

Number of atoms                             ...     73
Number of basis functions                   ...    509
Number of shells                            ...    335
Maximum angular momentum                    ...      1
Integral batch strategy                     ... SHARK/LIBINT Hybrid
RI-J (if used) integral strategy            ... SPLIT-RIJ (Revised 2003 algorithm where possible)
Printlevel                                  ...      1
Contraction scheme used                     ... SEGMENTED contraction
Prescreening option                         ... SCHWARTZ
   Thresh                                   ... 3.000e-11
   Tcut                                     ... 1.000e-12
   Tpresel                                  ... 1.000e-12 
Coulomb Range Separation                    ... NOT USED
Exchange Range Separation                   ... NOT USED
Multipole approximations                    ... NOT USED
Finite Nucleus Model                        ... NOT USED
CABS basis                                  ... NOT available
Auxiliary Coulomb fitting basis             ... AVAILABLE
   # of basis functions in Aux-J            ...   1905
   # of shells in Aux-J                     ...    655
   Maximum angular momentum in Aux-J        ...      4
Auxiliary J/K fitting basis                 ... NOT available
Auxiliary Correlation fitting basis         ... NOT available
Auxiliary 'external' fitting basis          ... NOT available

Checking pre-screening integrals            ... done (  0.0 sec) Dimension = 335
Check shell pair data                       ... done (  0.0 sec)
Shell pair information
Shell pair cut-off parameter TPreSel        ...   1.0e-12
Total number of shell pairs                 ...     56280
Shell pairs after pre-screening             ...     21613
Total number of primitive shell pairs       ...    145865
Primitive shell pairs kept                  ...     37206
          la=0 lb=0:  10871 shell pairs
          la=1 lb=0:   8885 shell pairs
          la=1 lb=1:   1857 shell pairs

Calculating one electron integrals          ... done (  0.0 sec)
Calculating RI/J V-Matrix + Cholesky decomp.... done (  0.2 sec)
Calculating Nuclear repulsion               ... done (  0.0 sec) ENN=   2766.651020861877 Eh

Diagonalization of the overlap matrix:
Smallest eigenvalue                        ... 7.542e-03
Time for diagonalization                   ...    0.032 sec
Threshold for overlap eigenvalues          ... 1.000e-07
Number of eigenvalues below threshold      ... 0
Time for construction of square roots      ...    0.017 sec
Total time needed                          ...    0.052 sec

-------------------
DFT GRID GENERATION
-------------------

General Integration Accuracy     IntAcc      ... 4.388
Radial Grid Type                 RadialGrid  ... OptM3 with GC (2021)
Angular Grid (max. ang.)         AngularGrid ... 4 (Lebedev-302)
Angular grid pruning method      GridPruning ... 4 (adaptive)
Weight generation scheme         WeightScheme... mBecke (2022)
Basis function cutoff            BFCut       ... 1.0000e-11
Integration weight cutoff        WCut        ... 1.0000e-14
Partially contracted basis set               ... off
Rotationally invariant grid construction     ... off
Angular grids for H and He will be reduced by one unit

Total number of grid points                  ...   309905
Total number of batches                      ...     4881
Average number of points per batch           ...       63
Average number of grid points per atom       ...     4245

--------------------
COSX GRID GENERATION
--------------------

GRIDX 1
-------
General Integration Accuracy     IntAcc      ... 3.816
Radial Grid Type                 RadialGrid  ... OptM3 with GC (2021)
Angular Grid (max. ang.)         AngularGrid ... 1 (Lebedev-50)
Angular grid pruning method      GridPruning ... 4 (adaptive)
Weight generation scheme         WeightScheme... mBecke (2022)
Basis function cutoff            BFCut       ... 1.0000e-11
Integration weight cutoff        WCut        ... 1.0000e-14
Partially contracted basis set               ... on
Rotationally invariant grid construction     ... off
Angular grids for H and He will be reduced by one unit

Total number of grid points                  ...    39420
Total number of batches                      ...      352
Average number of points per batch           ...      111
Average number of grid points per atom       ...      540
UseSFitting                                  ... on

GRIDX 2
-------
General Integration Accuracy     IntAcc      ... 4.020
Radial Grid Type                 RadialGrid  ... OptM3 with GC (2021)
Angular Grid (max. ang.)         AngularGrid ... 2 (Lebedev-110)
Angular grid pruning method      GridPruning ... 4 (adaptive)
Weight generation scheme         WeightScheme... mBecke (2022)
Basis function cutoff            BFCut       ... 1.0000e-11
Integration weight cutoff        WCut        ... 1.0000e-14
Partially contracted basis set               ... on
Rotationally invariant grid construction     ... off
Angular grids for H and He will be reduced by one unit

Total number of grid points                  ...    81400
Total number of batches                      ...      675
Average number of points per batch           ...      120
Average number of grid points per atom       ...     1115
UseSFitting                                  ... on

GRIDX 3
-------
General Integration Accuracy     IntAcc      ... 4.338
Radial Grid Type                 RadialGrid  ... OptM3 with GC (2021)
Angular Grid (max. ang.)         AngularGrid ... 3 (Lebedev-194)
Angular grid pruning method      GridPruning ... 4 (adaptive)
Weight generation scheme         WeightScheme... mBecke (2022)
Basis function cutoff            BFCut       ... 1.0000e-11
Integration weight cutoff        WCut        ... 1.0000e-14
Partially contracted basis set               ... on
Rotationally invariant grid construction     ... off
Angular grids for H and He will be reduced by one unit

Total number of grid points                  ...   176434
Total number of batches                      ...     1420
Average number of points per batch           ...      124
Average number of grid points per atom       ...     2417
UseSFitting                                  ... on
Initializing property integral containers    ... done (  0.0 sec)

SHARK setup successfully completed in   3.8 seconds

Maximum memory used throughout the entire STARTUP-calculation: 85.4 MB


           ************************************************************
           *        Program running with 4 parallel MPI-processes     *
           *              working on a common directory               *
           ************************************************************
-------------------------------------------------------------------------------
                                 ORCA GUESS
                   Start orbitals & Density for SCF / CASSCF
-------------------------------------------------------------------------------

------------
SCF SETTINGS
------------
Hamiltonian:
 Density Functional     Method          .... DFT(GTOs)
 Exchange Functional    Exchange        .... PBE
   PBE kappa parameter   XKappa         ....  0.804000
   PBE mue parameter    XMuePBE         ....  0.219520
 Correlation Functional Correlation     .... PBE
   PBE beta parameter  CBetaPBE         ....  0.066725
 LDA part of GGA corr.  LDAOpt          .... PW91-LDA
 Gradients option       PostSCFGGA      .... off
 Hybrid DFT is turned on
   Fraction HF Exchange ScalHFX         ....  0.250000
   Scaling of DF-GGA-X  ScalDFX         ....  0.750000
   Scaling of DF-GGA-C  ScalDFC         ....  1.000000
   Scaling of DF-LDA-C  ScalLDAC        ....  1.000000
   Perturbative correction              ....  0.000000
   NL short-range parameter             ....  6.900000
 RI-approximation to the Coulomb term is turned on
   Number of AuxJ basis functions       .... 1905
   RIJ-COSX (HFX calculated with COS-X)).... on


General Settings:
 Integral files         IntName         .... inpJ
 Hartree-Fock type      HFTyp           .... RHF
 Total Charge           Charge          ....    0
 Multiplicity           Mult            ....    1
 Number of Electrons    NEL             ....  220
 Basis Dimension        Dim             ....  509
 Nuclear Repulsion      ENuc            ....   2766.6510208619 Eh

Convergence Acceleration:
 AO-DIIS                CNVDIIS         .... on
   Start iteration      DIISMaxIt       ....    12
   Startup error        DIISStart       ....  0.200000
   # of expansion vecs  DIISMaxEq       ....     5
   Bias factor          DIISBfac        ....   1.050
   Max. coefficient     DIISMaxC        ....  10.000
 MO-DIIS                CNVKDIIS        .... off
 Trust-Rad. Augm. Hess. CNVTRAH         .... auto
   Auto Start mean grad. ratio tolernc. ....  1.125000
   Auto Start start iteration           ....     1
   Auto Start num. interpolation iter.  ....    10
   Max. Number of Micro iterations      ....    24
   Max. Number of Macro iterations      .... Maxiter - #DIIS iter
   Number of Davidson start vectors     ....     2
   Converg. threshold    (grad. norm)   ....   1.000e-04
   Grad. Scal. Fac. for Micro threshold ....   0.100
   Minimum threshold for Micro iter.    ....   1.000e-02
   NR start threshold (gradient norm)   ....   1.000e-04
   Initial trust radius                 ....   0.400
   Minimum AH scaling param. (alpha)    ....   1.000
   Maximum AH scaling param. (alpha)    .... 1000.000
   Quad. conv. algorithm                .... NR
   White noise on init. David. guess    .... on
   Maximum white noise                  ....   0.010
   Pseudo random numbers                .... off
   Inactive MOs                         .... canonical
   Orbital update algorithm             .... Taylor
   Preconditioner                       .... Diag
   Full preconditioner red. dimension   ....   250
 SOSCF                  CNVSOSCF        .... off
 Level Shifting         CNVShift        .... on
   Level shift para.    LevelShift      ....    0.2500
   Turn off err/grad.   ShiftErr        ....    0.0010
 Zerner damping         CNVZerner       .... off
 Static damping         CNVDamp         .... on
   Fraction old density DampFac         ....    0.7000
   Max. Damping (<1)    DampMax         ....    0.9800
   Min. Damping (>=0)   DampMin         ....    0.0000
   Turn off err/grad.   DampErr         ....    0.1000

SCF Procedure:
 Maximum # iterations   MaxIter         ....   125
 SCF integral mode      SCFMode         .... Direct
   Integral package                     .... SHARK and LIBINT hybrid scheme
 Reset frequency        DirectResetFreq ....    20
 Integral Threshold     Thresh          ....  3.000e-11 Eh
 Primitive CutOff       TCut            ....  1.000e-12 Eh

Convergence Tolerance:
 Convergence Check Mode ConvCheckMode   .... Total+1el-Energy
 Convergence forced     ConvForced      .... 0
 Energy Change          TolE            ....  1.000e-07 Eh
 1-El. energy change                    ....  1.000e-04 Eh
 DIIS Error             TolErr          ....  1.000e-07

---------------------
INITIAL GUESS: MOREAD
---------------------
Guess MOs are being read from file: inpJ.ges
Input Geometry matches current geometry (good)
Input basis set matches current basis set (good)
Occupation numbers will be reassigned to an Aufbau configuration
MOs were renormalized
MOs were reorthogonalized (Cholesky)
                      ------------------
                      INITIAL GUESS DONE (   0.1 sec)
                      ------------------
             **** ENERGY FILE WAS UPDATED (inpJ.en.tmp) ****
Finished Guess after   0.2 sec
Maximum memory used throughout the entire GUESS-calculation: 36.5 MB


           ************************************************************
           *        Program running with 4 parallel MPI-processes     *
           *              working on a common directory               *
           ************************************************************

-------------------------------------------------------------------------------------------
                                      ORCA LEAN-SCF
                              memory conserving SCF solver
-------------------------------------------------------------------------------------------

--------------------
CPCM SOLVATION MODEL
--------------------
CPCM parameters:
  Epsilon                                         ...       4.8030
  Refrac                                          ...       1.4459
  Rsolv                                           ...       1.3000
  Surface type                                    ... GAUSSIAN VDW
  Discretization scheme                           ... Constant charge density
    Threshold for H atoms                         ...       5.0000 (charges/Ang^2)
    Threshold for non-H atoms                     ...       5.0000 (charges/Ang^2)
  Epsilon function type                           ...         CPCM
Solvent:                                          ... CHLOROFORM
Radii:
  Scheme                                          ... Element-dependent radii
  Radius for C  used is    3.8550 Bohr (=   2.0400 Ang.)
  Radius for H  used is    2.4944 Bohr (=   1.3200 Ang.)
  Radius for O  used is    3.4469 Bohr (=   1.8240 Ang.)
Calculating surface                               ...        done! (  0.0s)
Cavity surface points                             ...         5355
Cavity Volume                                     ...    3607.1751
Cavity Surface-area                               ...    1786.4187
Calculating surface distance matrix               ...        done! (  0.2s)
Performing Cholesky decomposition & store         ...        done! (  0.9s)
Overall time for CPCM initialization              ...                 1.2s

----------------------------------------D-I-I-S--------------------------------------------
Iteration    Energy (Eh)           Delta-E    RMSDP     MaxDP     DIISErr   Damp  Time(sec)
-------------------------------------------------------------------------------------------
               ***  Starting incremental Fock matrix formation  ***
    1    -1165.5104321429480478     0.00e+00  4.15e-08  5.71e-06  6.69e-06  0.700   6.3

  HOMO= 109 E= -6.020 eV LUMO=  5.937 eV gap=  11.957 eV
    2    -1165.5104321651888313    -2.22e-08  2.80e-08  3.42e-06  3.35e-06  0.700   1.9
                 **** Energy Check signals convergence ****

  HOMO= 109 E= -6.020 eV LUMO=  5.937 eV gap=  11.957 eV

               *****************************************************
               *                     SUCCESS                       *
               *           SCF CONVERGED AFTER   2 CYCLES          *
               *****************************************************

Recomputing exchange energy using gridx3       ... done (    8.253 sec)
Old exchange energy                            :    -42.068208947 Eh
New exchange energy                            :    -42.068186254 Eh
Exchange energy change after final integration :      0.000022693 Eh
Total energy after final integration           :  -1165.510409472 Eh
             **** ENERGY FILE WAS UPDATED (inpJ.en.tmp) ****

----------------
TOTAL SCF ENERGY
----------------

Total Energy       :      -1165.51040947200363 Eh          -31715.15061 eV

Components:
Nuclear Repulsion  :       2766.65102086187744 Eh           75284.40166 eV
Electronic Energy  :      -3932.14783675671288 Eh         -106999.18237 eV
One Electron Energy:      -7075.00783474654872 Eh         -192520.75075 eV
Two Electron Energy:       3142.85999798983585 Eh           85521.56838 eV
CPCM Dielectric    :         -0.01361627035362 Eh              -0.37052 eV

Virial components:
Potential Energy   :      -2322.40791654590703 Eh          -63195.93223 eV
Kinetic Energy     :       1156.89750707390340 Eh           31480.78162 eV
Virial Ratio       :          2.00744482751967

DFT components:
N(Alpha)           :      110.000206795061 electrons
N(Beta)            :      110.000206795061 electrons
N(Total)           :      220.000413590123 electrons
E(X)               :     -125.746927613639 Eh       
E(C)               :       -7.329192684490 Eh       
E(XC)              :     -133.076120298129 Eh       

CPCM Solvation Model Properties:
Surface-charge          :         -0.03362089442313
Corrected charge        :         -0.00000000000000
Outlying charge corr.   :          0.00003941052070 Eh               0.00107 eV
Free-energy (cav+disp)  :  This term is not implemented in the current solvation scheme

---------------
SCF CONVERGENCE
---------------

  Last Energy change         ...    2.2241e-08  Tolerance :   1.0000e-07
  Last MAX-Density change    ...    3.4159e-06  Tolerance :   1.0000e-05
  Last RMS-Density change    ...    2.8004e-08  Tolerance :   1.0000e-06
  Last DIIS Error            ...    3.3488e-06  Tolerance :   1.0000e-07


----------------
ORBITAL ENERGIES
----------------

  NO   OCC          E(Eh)            E(eV) 
   0   2.0000     -19.212524      -522.7993 
   1   2.0000     -10.300618      -280.2941 
   2   2.0000     -10.270638      -279.4783 
   3   2.0000     -10.268556      -279.4216 
   4   2.0000     -10.264270      -279.3050 
   5   2.0000     -10.257705      -279.1263 
   6   2.0000     -10.257566      -279.1226 
   7   2.0000     -10.252314      -278.9796 
   8   2.0000     -10.251600      -278.9602 
   9   2.0000     -10.250383      -278.9271 
  10   2.0000     -10.248333      -278.8713 
  11   2.0000     -10.247770      -278.8560 
  12   2.0000     -10.247018      -278.8355 
  13   2.0000     -10.246816      -278.8300 
  14   2.0000     -10.244873      -278.7772 
  15   2.0000     -10.243215      -278.7321 
  16   2.0000     -10.242311      -278.7075 
  17   2.0000     -10.241934      -278.6972 
  18   2.0000     -10.241599      -278.6881 
  19   2.0000     -10.241333      -278.6808 
  20   2.0000     -10.240307      -278.6529 
  21   2.0000     -10.235925      -278.5337 
  22   2.0000     -10.235547      -278.5234 
  23   2.0000     -10.234356      -278.4910 
  24   2.0000     -10.224742      -278.2294 
  25   2.0000     -10.224721      -278.2288 
  26   2.0000     -10.224610      -278.2258 
  27   2.0000     -10.224511      -278.2231 
  28   2.0000     -10.221512      -278.1415 
  29   2.0000      -1.043253       -28.3884 
  30   2.0000      -0.902198       -24.5501 
  31   2.0000      -0.882471       -24.0133 
  32   2.0000      -0.860220       -23.4078 
  33   2.0000      -0.846660       -23.0388 
  34   2.0000      -0.822937       -22.3932 
  35   2.0000      -0.815118       -22.1805 
  36   2.0000      -0.796312       -21.6687 
  37   2.0000      -0.795276       -21.6405 
  38   2.0000      -0.777229       -21.1495 
  39   2.0000      -0.759118       -20.6567 
  40   2.0000      -0.741916       -20.1885 
  41   2.0000      -0.731441       -19.9035 
  42   2.0000      -0.715755       -19.4767 
  43   2.0000      -0.703293       -19.1376 
  44   2.0000      -0.702403       -19.1134 
  45   2.0000      -0.696629       -18.9562 
  46   2.0000      -0.671327       -18.2677 
  47   2.0000      -0.665188       -18.1007 
  48   2.0000      -0.635338       -17.2884 
  49   2.0000      -0.622606       -16.9420 
  50   2.0000      -0.613635       -16.6979 
  51   2.0000      -0.606963       -16.5163 
  52   2.0000      -0.597991       -16.2722 
  53   2.0000      -0.584284       -15.8992 
  54   2.0000      -0.558787       -15.2054 
  55   2.0000      -0.541522       -14.7356 
  56   2.0000      -0.532624       -14.4934 
  57   2.0000      -0.529607       -14.4113 
  58   2.0000      -0.515533       -14.0284 
  59   2.0000      -0.511906       -13.9297 
  60   2.0000      -0.506868       -13.7926 
  61   2.0000      -0.494633       -13.4596 
  62   2.0000      -0.481611       -13.1053 
  63   2.0000      -0.478002       -13.0071 
  64   2.0000      -0.471060       -12.8182 
  65   2.0000      -0.466819       -12.7028 
  66   2.0000      -0.465347       -12.6627 
  67   2.0000      -0.463516       -12.6129 
  68   2.0000      -0.459507       -12.5038 
  69   2.0000      -0.456858       -12.4317 
  70   2.0000      -0.450903       -12.2697 
  71   2.0000      -0.444786       -12.1032 
  72   2.0000      -0.436806       -11.8861 
  73   2.0000      -0.435401       -11.8479 
  74   2.0000      -0.431317       -11.7367 
  75   2.0000      -0.422419       -11.4946 
  76   2.0000      -0.420995       -11.4559 
  77   2.0000      -0.414092       -11.2680 
  78   2.0000      -0.413328       -11.2472 
  79   2.0000      -0.404157       -10.9977 
  80   2.0000      -0.400514       -10.8985 
  81   2.0000      -0.397286       -10.8107 
  82   2.0000      -0.396517       -10.7898 
  83   2.0000      -0.388282       -10.5657 
  84   2.0000      -0.382509       -10.4086 
  85   2.0000      -0.377238       -10.2652 
  86   2.0000      -0.376706       -10.2507 
  87   2.0000      -0.373854       -10.1731 
  88   2.0000      -0.367074        -9.9886 
  89   2.0000      -0.364466        -9.9176 
  90   2.0000      -0.361805        -9.8452 
  91   2.0000      -0.360068        -9.7980 
  92   2.0000      -0.351308        -9.5596 
  93   2.0000      -0.346176        -9.4199 
  94   2.0000      -0.343928        -9.3588 
  95   2.0000      -0.339939        -9.2502 
  96   2.0000      -0.336917        -9.1680 
  97   2.0000      -0.334405        -9.0996 
  98   2.0000      -0.331965        -9.0332 
  99   2.0000      -0.329511        -8.9665 
 100   2.0000      -0.327777        -8.9193 
 101   2.0000      -0.324639        -8.8339 
 102   2.0000      -0.320449        -8.7199 
 103   2.0000      -0.319291        -8.6884 
 104   2.0000      -0.311684        -8.4814 
 105   2.0000      -0.302108        -8.2208 
 106   2.0000      -0.276780        -7.5316 
 107   2.0000      -0.275170        -7.4878 
 108   2.0000      -0.255366        -6.9489 
 109   2.0000      -0.221226        -6.0199 
 110   0.0000      -0.031821        -0.8659 
 111   0.0000       0.019004         0.5171 
 112   0.0000       0.029555         0.8042 
 113   0.0000       0.081617         2.2209 
 114   0.0000       0.092293         2.5114 
 115   0.0000       0.098989         2.6936 
 116   0.0000       0.103452         2.8151 
 117   0.0000       0.107443         2.9237 
 118   0.0000       0.108696         2.9578 
 119   0.0000       0.113185         3.0799 
 120   0.0000       0.117679         3.2022 
*Only the first 10 virtual orbitals were printed.

                    ********************************
                    * MULLIKEN POPULATION ANALYSIS *
                    ********************************

-----------------------
MULLIKEN ATOMIC CHARGES
-----------------------
   0 C :    0.077739
   1 C :   -0.500472
   2 C :   -0.073886
   3 H :    0.222979
   4 H :    0.219979
   5 C :    0.138347
   6 C :   -0.479637
   7 C :   -0.439786
   8 H :    0.225344
   9 H :    0.207375
  10 H :    0.208887
  11 H :    0.227936
  12 O :   -0.488213
  13 H :    0.247266
  14 C :   -0.280029
  15 C :   -0.514193
  16 H :    0.200872
  17 H :    0.196864
  18 C :   -0.259337
  19 H :    0.220134
  20 C :    0.153682
  21 H :    0.220667
  22 C :   -0.479955
  23 C :   -0.427823
  24 H :    0.211804
  25 H :    0.207510
  26 C :   -0.397205
  27 H :    0.208572
  28 H :    0.217661
  29 C :    0.000742
  30 H :    0.222788
  31 H :    0.194750
  32 C :   -0.230023
  33 H :    0.228682
  34 C :   -0.430256
  35 H :    0.341032
  36 C :   -0.427783
  37 H :    0.208698
  38 H :    0.198760
  39 C :   -0.184691
  40 H :    0.211185
  41 H :    0.205861
  42 H :    0.212922
  43 C :   -0.237901
  44 C :   -0.627989
  45 H :    0.205464
  46 H :    0.209325
  47 H :    0.201834
  48 H :    0.218690
  49 C :   -0.641874
  50 C :   -0.186009
  51 C :   -0.181568
  52 H :    0.225199
  53 H :    0.222584
  54 C :   -0.230134
  55 C :   -0.635202
  56 C :   -0.199345
  57 H :    0.211297
  58 H :    0.212102
  59 C :   -0.613803
  60 C :   -0.613127
  61 H :    0.191690
  62 H :    0.214278
  63 H :    0.203787
  64 H :    0.209099
  65 H :    0.192476
  66 H :    0.206538
  67 H :    0.210150
  68 H :    0.205590
  69 H :    0.192392
  70 H :    0.215693
  71 H :    0.191932
  72 H :    0.201079
Sum of atomic charges:    0.0000000

--------------------------------
MULLIKEN REDUCED ORBITAL CHARGES
--------------------------------
  0 C s       :     3.354492  s :     3.354492
      pz      :     0.999958  p :     2.567769
      px      :     0.804419
      py      :     0.763392

  1 C s       :     3.377911  s :     3.377911
      pz      :     1.133629  p :     3.122561
      px      :     0.878177
      py      :     1.110754

  2 C s       :     3.312684  s :     3.312684
      pz      :     0.706583  p :     2.761202
      px      :     1.143454
      py      :     0.911165

  3 H s       :     0.777021  s :     0.777021

  4 H s       :     0.780021  s :     0.780021

  5 C s       :     3.341202  s :     3.341202
      pz      :     0.874309  p :     2.520452
      px      :     0.875446
      py      :     0.770697

  6 C s       :     3.367201  s :     3.367201
      pz      :     1.132314  p :     3.112436
      px      :     0.895385
      py      :     1.084738

  7 C s       :     3.338624  s :     3.338624
      pz      :     1.179631  p :     3.101162
      px      :     0.962181
      py      :     0.959349

  8 H s       :     0.774656  s :     0.774656

  9 H s       :     0.792625  s :     0.792625

 10 H s       :     0.791113  s :     0.791113

 11 H s       :     0.772064  s :     0.772064

 12 O s       :     3.684993  s :     3.684993
      pz      :     1.452372  p :     4.803220
      px      :     1.444463
      py      :     1.906385

 13 H s       :     0.752734  s :     0.752734

 14 C s       :     3.394058  s :     3.394058
      pz      :     0.986055  p :     2.885971
      px      :     0.823704
      py      :     1.076212

 15 C s       :     3.384712  s :     3.384712
      pz      :     0.985432  p :     3.129480
      px      :     0.993915
      py      :     1.150133

 16 H s       :     0.799128  s :     0.799128

 17 H s       :     0.803136  s :     0.803136

 18 C s       :     3.396695  s :     3.396695
      pz      :     1.020158  p :     2.862642
      px      :     0.762984
      py      :     1.079500

 19 H s       :     0.779866  s :     0.779866

 20 C s       :     3.351697  s :     3.351697
      pz      :     0.941554  p :     2.494621
      px      :     0.756577
      py      :     0.796489

 21 H s       :     0.779333  s :     0.779333

 22 C s       :     3.372737  s :     3.372737
      pz      :     1.112580  p :     3.107218
      px      :     1.117045
      py      :     0.877592

 23 C s       :     3.327500  s :     3.327500
      pz      :     1.108741  p :     3.100323
      px      :     0.892771
      py      :     1.098811

 24 H s       :     0.788196  s :     0.788196

 25 H s       :     0.792490  s :     0.792490

 26 C s       :     3.349957  s :     3.349957
      pz      :     1.169799  p :     3.047248
      px      :     0.959366
      py      :     0.918084

 27 H s       :     0.791428  s :     0.791428

 28 H s       :     0.782339  s :     0.782339

 29 C s       :     3.318311  s :     3.318311
      pz      :     0.870373  p :     2.680947
      px      :     0.906634
      py      :     0.903940

 30 H s       :     0.777212  s :     0.777212

 31 H s       :     0.805250  s :     0.805250

 32 C s       :     3.362656  s :     3.362656
      pz      :     1.090151  p :     2.867367
      px      :     0.864536
      py      :     0.912680

 33 H s       :     0.771318  s :     0.771318

 34 C s       :     3.344686  s :     3.344686
      pz      :     1.187867  p :     3.085569
      px      :     0.928719
      py      :     0.968984

 35 H s       :     0.658968  s :     0.658968

 36 C s       :     3.336116  s :     3.336116
      pz      :     1.173917  p :     3.091667
      px      :     0.949556
      py      :     0.968195

 37 H s       :     0.791302  s :     0.791302

 38 H s       :     0.801240  s :     0.801240

 39 C s       :     3.338857  s :     3.338857
      pz      :     1.073993  p :     2.845834
      px      :     0.859489
      py      :     0.912351

 40 H s       :     0.788815  s :     0.788815

 41 H s       :     0.794139  s :     0.794139

 42 H s       :     0.787078  s :     0.787078

 43 C s       :     3.348328  s :     3.348328
      pz      :     1.066702  p :     2.889573
      px      :     0.875324
      py      :     0.947548

 44 C s       :     3.365931  s :     3.365931
      pz      :     0.949768  p :     3.262058
      px      :     1.160683
      py      :     1.151606

 45 H s       :     0.794536  s :     0.794536

 46 H s       :     0.790675  s :     0.790675

 47 H s       :     0.798166  s :     0.798166

 48 H s       :     0.781310  s :     0.781310

 49 C s       :     3.352196  s :     3.352196
      pz      :     1.156202  p :     3.289678
      px      :     1.165362
      py      :     0.968114

 50 C s       :     3.348873  s :     3.348873
      pz      :     0.948613  p :     2.837135
      px      :     0.812261
      py      :     1.076262

 51 C s       :     3.349116  s :     3.349116
      pz      :     0.948998  p :     2.832452
      px      :     0.811532
      py      :     1.071922

 52 H s       :     0.774801  s :     0.774801

 53 H s       :     0.777416  s :     0.777416

 54 C s       :     3.339933  s :     3.339933
      pz      :     1.054457  p :     2.890201
      px      :     0.886791
      py      :     0.948953

 55 C s       :     3.348252  s :     3.348252
      pz      :     1.152007  p :     3.286950
      px      :     1.164163
      py      :     0.970780

 56 C s       :     3.311497  s :     3.311497
      pz      :     1.054640  p :     2.887847
      px      :     0.889008
      py      :     0.944199

 57 H s       :     0.788703  s :     0.788703

 58 H s       :     0.787898  s :     0.787898

 59 C s       :     3.341586  s :     3.341586
      pz      :     1.149192  p :     3.272217
      px      :     1.156011
      py      :     0.967015

 60 C s       :     3.341820  s :     3.341820
      pz      :     1.120487  p :     3.271307
      px      :     1.029986
      py      :     1.120834

 61 H s       :     0.808310  s :     0.808310

 62 H s       :     0.785722  s :     0.785722

 63 H s       :     0.796213  s :     0.796213

 64 H s       :     0.790901  s :     0.790901

 65 H s       :     0.807524  s :     0.807524

 66 H s       :     0.793462  s :     0.793462

 67 H s       :     0.789850  s :     0.789850

 68 H s       :     0.794410  s :     0.794410

 69 H s       :     0.807608  s :     0.807608

 70 H s       :     0.784307  s :     0.784307

 71 H s       :     0.808068  s :     0.808068

 72 H s       :     0.798921  s :     0.798921


------------------------
MULLIKEN OVERLAP CHARGES
------------------------
B(  0-C ,  1-C ) :   0.5252 B(  0-C ,  2-C ) :  -0.1800 B(  0-C ,  3-H ) :  -0.0795 
B(  0-C ,  4-H ) :  -0.0863 B(  0-C ,  5-C ) :   0.4155 B(  0-C ,  6-C ) :  -0.1424 
B(  0-C , 14-C ) :   0.9500 B(  0-C , 15-C ) :  -0.2019 B(  0-C , 18-C ) :  -0.1864 
B(  0-C , 19-H ) :  -0.0749 B(  1-C ,  2-C ) :   0.5263 B(  1-C ,  3-H ) :   0.8089 
B(  1-C ,  4-H ) :   0.7736 B(  1-C ,  5-C ) :  -0.1413 B(  1-C ,  7-C ) :  -0.1576 
B(  1-C , 12-O ) :  -0.1099 B(  1-C , 13-H ) :  -0.0573 B(  1-C , 14-C ) :  -0.1138 
B(  2-C ,  3-H ) :  -0.0591 B(  2-C ,  4-H ) :  -0.0536 B(  2-C ,  6-C ) :  -0.1577 
B(  2-C ,  7-C ) :   0.5149 B(  2-C , 10-H ) :  -0.0624 B(  2-C , 11-H ) :  -0.0698 
B(  2-C , 12-O ) :   0.6968 B(  2-C , 13-H ) :   0.8215 B(  2-C , 35-H ) :  -0.1151 
B(  5-C ,  6-C ) :   0.5307 B(  5-C ,  7-C ) :  -0.1577 B(  5-C ,  8-H ) :  -0.0728 
B(  5-C ,  9-H ) :  -0.0939 B(  5-C , 14-C ) :  -0.1989 B(  5-C , 15-C ) :   1.0632 
B(  5-C , 16-H ) :  -0.0996 B(  5-C , 17-H ) :  -0.0951 B(  6-C ,  7-C ) :   0.5528 
B(  6-C ,  8-H ) :   0.8228 B(  6-C ,  9-H ) :   0.7937 B(  6-C , 10-H ) :  -0.0743 
B(  6-C , 11-H ) :  -0.0561 B(  6-C , 15-C ) :  -0.1297 B(  7-C ,  9-H ) :  -0.0777 
B(  7-C , 10-H ) :   0.7762 B(  7-C , 11-H ) :   0.8042 B(  7-C , 12-O ) :  -0.1078 
B(  7-C , 13-H ) :  -0.0827 B( 12-O , 35-H ) :   0.6663 B( 14-C , 18-C ) :   0.6112 
B( 14-C , 19-H ) :   0.8211 B( 14-C , 20-C ) :  -0.1943 B( 14-C , 21-H ) :  -0.0739 
B( 15-C , 16-H ) :   0.8137 B( 15-C , 17-H ) :   0.8066 B( 18-C , 19-H ) :  -0.0600 
B( 18-C , 20-C ) :   0.9178 B( 18-C , 21-H ) :   0.8330 B( 18-C , 22-C ) :  -0.1506 
B( 18-C , 32-C ) :  -0.1496 B( 20-C , 21-H ) :  -0.0833 B( 20-C , 22-C ) :   0.5327 
B( 20-C , 23-C ) :  -0.1715 B( 20-C , 24-H ) :  -0.0670 B( 20-C , 25-H ) :  -0.0922 
B( 20-C , 29-C ) :  -0.1236 B( 20-C , 32-C ) :   0.5188 B( 20-C , 33-H ) :  -0.0916 
[...]
        0.0000         1.1754        0.0000
        0.0000         0.0000        1.1754

 Diagonalized JT*J matrix:
 
 J[55,60](FC)             1.175            1.175            1.175  iso=      1.175
                ---------------  ---------------  ---------------  ---------------
 J[55,60](Total)          1.175            1.175            1.175  iso=      1.175



-----------------------------------------------------------
 NUCLEUS A = C   56 NUCLEUS B = C   59 
 ( 13C  gnA =  1.405  13C  gnB =  1.405) r(AB) =     1.5322
-----------------------------------------------------------

Fermi-contact contribution to J (Hz):
       27.1109         0.0000        0.0000
        0.0000        27.1109        0.0000
        0.0000         0.0000       27.1109

Total spin-spin coupling tensor J (Hz):
       27.1109         0.0000        0.0000
        0.0000        27.1109        0.0000
        0.0000         0.0000       27.1109

 Diagonalized JT*J matrix:
 
 J[56,59](FC)            27.111           27.111           27.111  iso=     27.111
                ---------------  ---------------  ---------------  ---------------
 J[56,59](Total)         27.111           27.111           27.111  iso=     27.111



-----------------------------------------------------------
 NUCLEUS A = C   56 NUCLEUS B = C   60 
 ( 13C  gnA =  1.405  13C  gnB =  1.405) r(AB) =     1.5321
-----------------------------------------------------------

Fermi-contact contribution to J (Hz):
       26.4709         0.0000        0.0000
        0.0000        26.4709        0.0000
        0.0000         0.0000       26.4709

Total spin-spin coupling tensor J (Hz):
       26.4709         0.0000        0.0000
        0.0000        26.4709        0.0000
        0.0000         0.0000       26.4709

 Diagonalized JT*J matrix:
 
 J[56,60](FC)            26.471           26.471           26.471  iso=     26.471
                ---------------  ---------------  ---------------  ---------------
 J[56,60](Total)         26.471           26.471           26.471  iso=     26.471



-----------------------------------------------------------
 NUCLEUS A = C   59 NUCLEUS B = C   60 
 ( 13C  gnA =  1.405  13C  gnB =  1.405) r(AB) =     2.5012
-----------------------------------------------------------

Fermi-contact contribution to J (Hz):
       -0.9559         0.0000        0.0000
        0.0000        -0.9559        0.0000
        0.0000         0.0000       -0.9559

Total spin-spin coupling tensor J (Hz):
       -0.9559         0.0000        0.0000
        0.0000        -0.9559        0.0000
        0.0000         0.0000       -0.9559

 Diagonalized JT*J matrix:
 
 J[59,60](FC)            -0.956           -0.956           -0.956  iso=     -0.956
                ---------------  ---------------  ---------------  ---------------
 J[59,60](Total)         -0.956           -0.956           -0.956  iso=     -0.956



-----------------------------------------------------------------------------
                SUMMARY OF ISOTROPIC COUPLING CONSTANTS J (Hz)                
-----------------------------------------------------------------------------
                  0 C        1 C        2 C        5 C        6 C        7 C  
      0 C        0.000     33.147     -3.777     41.231     -0.911      2.281
      1 C       33.147      0.000     23.391     -1.208      1.451     -0.670
      2 C       -3.777     23.391      0.000      2.269     -2.778     25.881
      5 C       41.231     -1.208      2.269      0.000     30.345     -2.787
      6 C       -0.911      1.451     -2.778     30.345      0.000     24.791
      7 C        2.281     -0.670     25.881     -2.787     24.791      0.000
     14 C       69.345     -0.370      2.831     -3.000      2.174     -0.622
     15 C       -3.406      2.413     -0.870     64.641     -1.094      2.597
     18 C       -2.385      4.172     -1.111      3.177     -0.820      0.193
     20 C        6.813     -1.102      1.101     -1.374      0.609     -0.103
     22 C       -0.924      0.327     -0.333      0.421     -0.183      0.038
     23 C        0.800     -0.279      0.277     -0.331      0.150      0.000
     26 C       -0.090      0.038      0.000      0.047      0.000      0.000
     29 C        1.143     -0.361      0.000     -0.439      0.205      0.000
     32 C       -1.126      0.547     -0.381      0.471     -0.217      0.045
     34 C        0.020     -0.014      0.012     -0.015      0.006     -0.001
     36 C       -0.015      0.000      0.000      0.016     -0.008      0.000
     39 C       -0.074      0.000      0.000      0.031      0.000      0.000
     43 C        0.000      0.000      0.000      0.000      0.000      0.000
     44 C        0.010     -0.003      0.000     -0.003     -0.003      0.000
     49 C        0.000      0.000      0.000      0.000      0.000      0.000
     50 C        0.000      0.000      0.000      0.000      0.000      0.000
     51 C        0.000      0.000      0.000      0.000      0.000      0.000
     54 C        0.000      0.000      0.000      0.000      0.000      0.000
     55 C        0.000      0.000      0.000      0.000      0.000      0.000
     56 C        0.000      0.000      0.000      0.000      0.000      0.000
     59 C        0.000      0.000      0.000      0.000      0.000      0.000
     60 C        0.000      0.000      0.000      0.000      0.000      0.000
                 14 C       15 C       18 C       20 C       22 C       23 C  
      0 C       69.345     -3.406     -2.385      6.813     -0.924      0.800
      1 C       -0.370      2.413      4.172     -1.102      0.327     -0.279
      2 C        2.831     -0.870     -1.111      1.101     -0.333      0.277
      5 C       -3.000     64.641      3.177     -1.374      0.421     -0.331
      6 C        2.174     -1.094     -0.820      0.609     -0.183      0.150
      7 C       -0.622      2.597      0.193     -0.103      0.038      0.000
     14 C        0.000      3.095     54.171     -2.632      3.777     -0.889
     15 C        3.095      0.000     -1.146      1.006     -0.271      0.245
     18 C       54.171     -1.146      0.000     69.940     -2.152      2.353
     20 C       -2.632      1.006     69.940      0.000     32.141     -2.910
     22 C        3.777     -0.271     -2.152     32.141      0.000     24.309
     23 C       -0.889      0.245      2.353     -2.910     24.309      0.000
     26 C        0.131     -0.033     -0.351      1.027     -1.923     25.415
     29 C       -1.110      0.324      2.268     -2.393      1.075     -2.196
     32 C        4.379     -0.317     -1.292     36.881     -0.219      1.532
     34 C        0.074      0.003      2.501     -1.318      1.601     -0.260
     36 C        0.012     -0.014     -0.148      3.491      0.073      0.163
     39 C        0.260     -0.023     -0.053      2.918     -0.335      2.539
     43 C        0.011      0.016      0.279      0.210     -0.004     -0.108
     44 C        0.005      0.024     -0.052      0.697     -0.136      0.613
     49 C       -0.002      0.000     -0.009     -0.031      0.144      0.050
     50 C        0.000      0.000      0.003      0.218     -0.007      0.116
     51 C        0.000      0.000      0.000      0.065     -0.003      0.002
     54 C        0.000      0.000      0.000      0.000      0.000      0.000
     55 C        0.000      0.000      0.000      0.000      0.000      0.000
     56 C        0.000      0.000      0.000      0.000      0.000      0.000
     59 C        0.000      0.000      0.000      0.000      0.000      0.000
     60 C        0.000      0.000      0.000      0.000      0.000      0.000
                 26 C       29 C       32 C       34 C       36 C       39 C  
      0 C       -0.090      1.143     -1.126      0.020     -0.015     -0.074
      1 C        0.038     -0.361      0.547     -0.014      0.000      0.000
      2 C        0.000      0.000     -0.381      0.012      0.000      0.000
      5 C        0.047     -0.439      0.471     -0.015      0.016      0.031
      6 C        0.000      0.205     -0.217      0.006     -0.008      0.000
      7 C        0.000      0.000      0.045     -0.001      0.000      0.000
     14 C        0.131     -1.110      4.379      0.074      0.012      0.260
     15 C       -0.033      0.324     -0.317      0.003     -0.014     -0.023
     18 C       -0.351      2.268     -1.292      2.501     -0.148     -0.053
     20 C        1.027     -2.393     36.881     -1.318      3.491      2.918
     22 C       -1.923      1.075     -0.219      1.601      0.073     -0.335
     23 C       25.415     -2.196      1.532     -0.260      0.163      2.539
     26 C        0.000     27.829     -0.906      2.293      3.037     -0.547
     29 C       27.829      0.000     23.115      0.936      0.695     28.058
     32 C       -0.906     23.115      0.000     28.062      1.255      3.415
     34 C        2.293      0.936     28.062      0.000     26.098      0.020
     36 C        3.037      0.695      1.255     26.098      0.000     26.449
     39 C       -0.547     28.058      3.415      0.020     26.449      0.000
     43 C       -0.019     -0.682      2.836      1.534     -0.050     27.747
     44 C       -0.554     27.206     -0.981      0.810      0.276     -1.269
     49 C        0.432      0.117      0.001      0.060      3.261     -1.024
     50 C       -0.074      3.042      0.019      0.103      1.443     -2.760
     51 C       -0.016      0.160      0.149     -0.036      0.070      2.799
     54 C       -0.002      0.097     -0.036      0.014      0.001     -0.830
     55 C        0.001     -0.005      0.001     -0.002     -0.007      0.062
     56 C       -0.005      0.052      0.000     -0.007      0.031      1.158
     59 C       -0.000      0.005      0.000      0.000     -0.004      0.065
     60 C        0.000      0.000      0.000      0.000      0.002     -0.013
                 43 C       44 C       49 C       50 C       51 C       54 C  
      0 C        0.000      0.010      0.000      0.000      0.000      0.000
      1 C        0.000     -0.003      0.000      0.000      0.000      0.000
      2 C        0.000      0.000      0.000      0.000      0.000      0.000
      5 C        0.000     -0.003      0.000      0.000      0.000      0.000
      6 C        0.000     -0.003      0.000      0.000      0.000      0.000
      7 C        0.000      0.000      0.000      0.000      0.000      0.000
     14 C        0.011      0.005     -0.002      0.000      0.000      0.000
     15 C        0.016      0.024      0.000      0.000      0.000      0.000
     18 C        0.279     -0.052     -0.009      0.003      0.000      0.000
     20 C        0.210      0.697     -0.031      0.218      0.065      0.000
     22 C       -0.004     -0.136      0.144     -0.007     -0.003      0.000
     23 C       -0.108      0.613      0.050      0.116      0.002      0.000
     26 C       -0.019     -0.554      0.432     -0.074     -0.016     -0.002
     29 C       -0.682     27.206      0.117      3.042      0.160      0.097
     32 C        2.836     -0.981      0.001      0.019      0.149     -0.036
     34 C        1.534      0.810      0.060      0.103     -0.036      0.014
     36 C       -0.050      0.276      3.261      1.443      0.070      0.001
     39 C       27.747     -1.269     -1.024     -2.760      2.799     -0.830
     43 C        0.000      1.417     27.427     35.995     -1.300      3.428
     44 C        1.417      0.000     -0.037     -0.107      0.081      0.007
     49 C       27.427     -0.037      0.000     -1.980      3.142      0.006
     50 C       35.995     -0.107     -1.980      0.000     68.873     -1.509
     51 C       -1.300      0.081      3.142     68.873      0.000     36.622
     54 C        3.428      0.007      0.006     -1.509     36.622      0.000
     55 C       -0.044     -0.001      0.118      3.018     -1.868     28.015
     56 C       -0.855      0.003      0.047      2.821     -2.716     25.329
     59 C       -0.025      0.000      0.001      0.133      1.675     -0.853
     60 C        0.169      0.000     -0.007      0.059      2.938     -0.679
                 55 C       56 C       59 C       60 C  
      0 C        0.000      0.000      0.000      0.000
      1 C        0.000      0.000      0.000      0.000
      2 C        0.000      0.000      0.000      0.000
      5 C        0.000      0.000      0.000      0.000
      6 C        0.000      0.000      0.000      0.000
      7 C        0.000      0.000      0.000      0.000
     14 C        0.000      0.000      0.000      0.000
     15 C        0.000      0.000      0.000      0.000
     18 C        0.000      0.000      0.000      0.000
     20 C        0.000      0.000      0.000      0.000
     22 C        0.000      0.000      0.000      0.000
     23 C        0.000      0.000      0.000      0.000
     26 C        0.001     -0.005     -0.000      0.000
     29 C       -0.005      0.052      0.005      0.000
     32 C        0.001      0.000      0.000      0.000
     34 C       -0.002     -0.007      0.000      0.000
     36 C       -0.007      0.031     -0.004      0.002
     39 C        0.062      1.158      0.065     -0.013
     43 C       -0.044     -0.855     -0.025      0.169
     44 C       -0.001      0.003      0.000      0.000
     49 C        0.118      0.047      0.001     -0.007
     50 C        3.018      2.821      0.133      0.059
     51 C       -1.868     -2.716      1.675      2.938
     54 C       28.015     25.329     -0.853     -0.679
     55 C        0.000     -0.783      2.672      1.175
     56 C       -0.783      0.000     27.111     26.471
     59 C        2.672     27.111      0.000     -0.956
     60 C        1.175     26.471     -0.956      0.000

NMR spin-spin coupling calculation done in   0.3 sec 

Maximum memory used throughout the entire PROP-calculation: 34.0 MB

--------------------------------
SUGGESTED CITATIONS FOR THIS RUN
--------------------------------

Below you find a list of papers that are relevant to this ORCA run
We neither can nor want to force you to cite these papers, but we appreciate if you do
You receive ORCA, which is the product of decades of hard work by many enthusiastic individuals, for free
The only thing we kindly ask in return is that you cite our papers,
We deeply appreciate it, if you show your appreciation for ORCA by not just citing the generic ORCA reference.

Please note that relegating all ORCA citations to the supporting information does *not* help us.
SI sections are not indexed - citations you put there will not count into any citation statistics
But we need these citations in order to attract the funding resources that allow us to do what we are doing

Therefore, if you are a happy ORCA user, please consider citing a few of the papers listed below in the main body of your paper

In addition to the list printed below, the program has created the file inpJ.bibtex that contains the list in bibtex format
You can import this file easily into all common literature databanks and citation aid programs


List of essential papers. We consider these as the minimum necessary citations

  1. Neese,F.
     Software update: the ORCA program system, version 5.0
     WIRES Comput. Molec. Sci., 2022 12(1)e1606
     doi.org/10.1002/wcms.1606

List of papers to cite with high priority. The work reported in these papers was absolutely
necessary for this run to complete.
Our perspective: the developers of density functionals and basis sets usually get cited in chemistry papers
Good! But without the algorithms to do something with them, the functionals or basis sets would not do anything.
Hence, in our opinion, the algorithm design and method developments papers are equally worthy of getting cited

  1. Neese,F.
     An improvement of the resolution of the identity approximation for the formation of the Coulomb matrix
     J. Comp. Chem., 2003 24(14)1740-1747
     doi.org/10.1002/jcc.10318
  2. Neese,F.; Wennmohs,F.; Hansen,A.; Becker,U.
     Efficient, approximate and parallel Hartree-Fock and hybrid DFT calculations. A 'chain-of-spheres' algorithm for the Hartree-Fock exchange
     Chem. Phys., 2009 356(1-3)98-109
     doi.org/10.1016/j.chemphys.2008.10.036
  3. Stoychev,G.L.; Auer,A.A.; Izsak,R.; Neese,F.
     Self-Consistent Field Calculation of Nuclear Magnetic Resonance Chemical Shielding Constants Using Gauge-Including Atomic Orbitals and Approximate Two-Electron Integrals
     J. Chem. Theory Comput., 2018 14(2)619-637
     doi.org/10.1021/acs.jctc.7b01006
  4. Garcia-Rates,M.; Neese,F.
     Effect of the Solute Cavity on the Solvation Energy and its Derivatives within the Framework of the Gaussian Charge Scheme
     J. Comput. Chem., 2020 41 922-939
     doi.org/10.1002/jcc.26139
  5. Helmich-Paris,B.; de Souza,B.; Neese,F.; Izsák,R.
     An improved chain of spheres for exchange algorithm
     J. Chem. Phys., 2021 155 104109
     doi.org/doi: 10.1063/5.0058766.
  6. Neese,F.
     The SHARK Integral Generation and Digestion System
     J. Comp. Chem., 2022  1-16
     doi.org/10.1002/jcc.26942
  7. Grimme,S.; Bannwarth,C.; Dohm,S.; Hansen,A.; Pisarek,J.; Pracht,P.; Seibert,J.; Neese,F.
     Fully Automated Quantum-Chemistry-Based Computation of Spin-Spin-Coupled Nuclear Magnetic Resonance Spectra
     Angew. Chem., Int. Ed., 2017 56 14763-14769
     doi.org/10.1002/anie.201708266
  8. Caldeweyher,E.; Bannwarth,C.; Grimme,S.
     Extension of the D3 dispersion coefficient model
     J. Chem. Phys., 2017 147 034112-XXXX
     doi.org/10.1063/1.4993215
  9. Caldeweyher,E.; Ehlert,S.; Hansen,A.; Neugebauer,H.; Spicher,S.; Bannwarth,C.; Grimme,S.
     A generally applicable atomic-charge dependent London dispersion correction
     J. Chem. Phys., 2019 150 154122-XXXX
     doi.org/10.1063/1.5090222
 10. Caldeweyher,E.; Mewes,J.; Ehlert,S.; Grimme,S.
     Extension and evaluation of the D4 London-dispersion model for periodic systems
     Phys. Chem. Chem. Phys., 2020 22(16)8499-8512
     doi.org/10.1039/D0CP00502A

List of suggested additional citations. These are papers that are important in the 'surrounding' of 
of this run, or papers that preceded the highly important papers. If you like your results we are grateful for a citation.

  1. Izsak,R.; Neese,F.
     An overlap fitted chain of spheres exchange method
     J. Chem. Phys., 2011 135 144105
     doi.org/10.1063/1.3646921
  2. Izsak,R.; Hansen,A.; Neese,F.
     The resolution of identity and chain of spheres approximations for the LPNO-CCSD singles Fock term
     Molec. Phys., 2012 110 2413-2417
     doi.org/10.1080/00268976.2012.687466
  3. Neese,F.
     The ORCA program system
     WIRES Comput. Molec. Sci., 2012 2(1)73-78
     doi.org/10.1002/wcms.81
  4. Izsak,R.; Neese,F.; Klopper,W.
     Robust fitting techniques in the chain of spheres approximation to the Fock exchange: The role of the complementary space
     J. Chem. Phys., 2013 139 
     doi.org/10.1063/1.4819264
  5. Neese,F.
     Software update: the ORCA program system, version 4.0
     WIRES Comput. Molec. Sci., 2018 8(1)1-6
     doi.org/10.1002/wcms.1327
  6. Neese,F.; Wennmohs,F.; Becker,U.; Riplinger,C.
     The ORCA quantum chemistry program package
     J. Chem. Phys., 2020 152 Art. No. L224108
     doi.org/10.1063/5.0004608

Timings for individual modules:

Sum of individual times          ...      132.590 sec (=   2.210 min)
Startup calculation              ...        3.994 sec (=   0.067 min)   3.0 %
SCF iterations                   ...       18.996 sec (=   0.317 min)  14.3 %
Property integrals               ...        0.663 sec (=   0.011 min)   0.5 %
SCF Response                     ...      108.330 sec (=   1.805 min)  81.7 %
Property calculations            ...        0.607 sec (=   0.010 min)   0.5 %
                             ****ORCA TERMINATED NORMALLY****
TOTAL RUN TIME: 0 days 0 hours 2 minutes 12 seconds 900 msec
