
                                 *****************
                                 * O   R   C   A *
                                 *****************

                                            #,                                       
                                            ###                                      
                                            ####                                     
                                            #####                                    
                                            ######                                   
                                           ########,                                 
                                     ,,################,,,,,                         
                               ,,#################################,,                 
                          ,,##########################################,,             
                       ,#########################################, ''#####,          
                    ,#############################################,,   '####,        
                  ,##################################################,,,,####,       
                ,###########''''           ''''###############################       
              ,#####''   ,,,,##########,,,,          '''####'''          '####       
            ,##' ,,,,###########################,,,                        '##       
           ' ,,###''''                  '''############,,,                           
         ,,##''                                '''############,,,,        ,,,,,,###''
      ,#''                                            '''#######################'''  
     '                                                          ''''####''''         
             ,#######,   #######,   ,#######,      ##                                
            ,#'     '#,  ##    ##  ,#'     '#,    #''#        ,####,   ,####,        
            ##       ##  ##   ,#'  ##            #'  '#       #'       #'  '#        
            ##       ##  #######   ##           ,######,      #####,   #    #        
            '#,     ,#'  ##    ##  '#,     ,#' ,#      #,     #,   #   #,  ,#        
             '#######'   ##     ##  '#######'  #'      '#     '####' # '####'        



                #########################################################
                #                        -***-                          #
                #          Department of theory and spectroscopy        #
                #                                                       #
                #                      Frank Neese                      #
                #                                                       #
                #     Directorship, Architecture, Infrastructure        #
                #                    SHARK, DRIVERS                     #
                #        Core code/Algorithms in most modules           #
                #                                                       #
                #        Max Planck Institute fuer Kohlenforschung      #
                #                Kaiser Wilhelm Platz 1                 #
                #                 D-45470 Muelheim/Ruhr                 #
                #                      Germany                          #
                #                                                       #
                #                  All rights reserved                  #
                #                        -***-                          #
                #########################################################


                         Program Version 6.0.0  -   RELEASE  -


 With contributions from (in alphabetic order):
   Daniel Aravena         : Magnetic Suceptibility
   Michael Atanasov       : Ab Initio Ligand Field Theory (pilot matlab implementation)
   Alexander A. Auer      : GIAO ZORA, VPT2 properties, NMR spectrum
   Ute Becker             : All parallelization in ORCA, NUMFREQ, NUMCALC
   Giovanni Bistoni       : ED, misc. LED, open-shell LED, HFLD
   Martin Brehm           : Molecular dynamics
   Dmytro Bykov           : pre 5.0 version of the SCF Hessian
   Marcos Casanova-Páez   : Triplet and SCS-CIS(D). UHF-(DLPNO)-IP/EA/STEOM-CCSD. UHF-CVS-IP/STEOM-CCSD
   Vijay G. Chilkuri      : MRCI spin determinant printing, contributions to CSF-ICE
   Pauline Colinet        : FMM embedding
   Dipayan Datta          : RHF DLPNO-CCSD density
   Achintya Kumar Dutta   : EOM-CC, STEOM-CC
   Nicolas Foglia         : Exact transition moments, OPA infrastructure, MCD improvements
   Dmitry Ganyushin       : Spin-Orbit,Spin-Spin,Magnetic field MRCI
   Miquel Garcia          : C-PCM and meta-GGA Hessian, CCSD/C-PCM, Gaussian charge scheme
   Tiago L. C. Gouveia    : GS-ROHF, GS-ROCIS
   Yang Guo               : DLPNO-NEVPT2, F12-NEVPT2, CIM, IAO-localization
   Andreas Hansen         : Spin unrestricted coupled pair/coupled cluster methods
   Ingolf Harden          : AUTO-CI MPn and infrastructure 
   Benjamin Helmich-Paris : MC-RPA, TRAH-(SCF,CASSCF), AVAS, COSX integrals, SCF dyn. polar.
   Lee Huntington         : MR-EOM, pCC
   Robert Izsak           : Overlap fitted RIJCOSX, COSX-SCS-MP3, EOM
   Riya Kayal             : Wick's Theorem for AUTO-CI, AUTO-CI UHF-CCSDT
   Emily Kempfer          : AUTO-CI, RHF CISDT and CCSDT
   Christian Kollmar      : KDIIS, OOCD, Brueckner-CCSD(T), CCSD density, CASPT2, CASPT2-K, improved NEVPT2
   Axel Koslowski         : Symmetry handling
   Simone Kossmann        : Meta GGA functionals, TD-DFT gradient, OOMP2, (MP2 Hessian; deprecated post 5.0)
   Lucas Lang             : DCDCAS
   Marvin Lechner         : AUTO-CI (C++ implementation), FIC-MRCC
   Spencer Leger          : CASSCF response
   Dagmar Lenk            : GEPOL surface, SMD, ORCA-2-JSON
   Dimitrios Liakos       : Extrapolation schemes; Compound Job, initial MDCI parallelization
   Dimitrios Manganas     : Further ROCIS development; embedding schemes. LFT, Crystal Embedding
   Dimitrios Pantazis     : SARC Basis sets
   Anastasios Papadopoulos: AUTO-CI, single reference methods and gradients
   Taras Petrenko         : pre 6.0 DFT Hessian and TD-DFT gradient, (ASA, deprecated), ECA, 1-Electron XAS/XES, NRVS
   Peter Pinski           : DLPNO-MP2, DLPNO-MP2 Gradient
   Christoph Reimann      : Effective Core Potentials
   Marius Retegan         : Local ZFS, SOC
   Christoph Riplinger    : Optimizer, TS searches, QM/MM, DLPNO-CCSD(T), (RO)-DLPNO pert. Triples
   Michael Roemelt        : Original ROCIS implementation
   Masaaki Saitow         : Open-shell DLPNO-CCSD energy and density
   Barbara Sandhoefer     : DKH picture change effects
   Kantharuban Sivalingam : CASSCF convergence/infrastructure, NEVPT2 and variants, FIC-MRCI
   Bernardo de Souza      : ESD, SOC TD-DFT
   Georgi Stoychev        : AutoAux, RI-MP2 NMR, DLPNO-MP2 response, X2C
   Van Anh Tran           : RI-MP2 g-tensors
   Willem Van den Heuvel  : Paramagnetic NMR
   Zikuan Wang            : NOTCH, Electric field optimization 
   Frank Wennmohs         : Technical directorship and infrastructure
   Hang Xu                : AUTO-CI-Response properties 


 We gratefully acknowledge several colleagues who have allowed us to
 interface, adapt or use parts of their codes:
   Stefan Grimme, W. Hujo, H. Kruse, P. Pracht,  : VdW corrections, initial TS optimization,
                  C. Bannwarth, S. Ehlert,         DFT functionals, gCP, sTDA/sTD-DF
                  L. Wittmann, M. Mueller
   Ed Valeev, F. Pavosevic, A. Kumar             : LibInt (2-el integral package), F12 methods
   Garnet Chan, S. Sharma, J. Yang, R. Olivares  : DMRG
   Ulf Ekstrom                                   : XCFun DFT Library
   Mihaly Kallay                                 : mrcc  (arbitrary order and MRCC methods)
   Frank Weinhold                                : gennbo (NPA and NBO analysis)
   Simon Mueller                                 : openCOSMO-RS
   Christopher J. Cramer and Donald G. Truhlar   : smd solvation model
   Lars Goerigk                                  : TD-DFT with DH, B97 family of functionals
   V. Asgeirsson, H. Jonsson                     : NEB implementation
   FAccTs GmbH                                   : IRC, NEB, NEB-TS, DLPNO-Multilevel, CI-OPT
                                                   MM, QMMM, 2- and 3-layer-ONIOM, Crystal-QMMM,
                                                   LR-CPCM, SF, NACMEs, symmetry and pop. for TD-DFT,
                                                   nearIR, NL-DFT gradient (VV10), updates on ESD,
                                                   ML-optimized integration grids, MBIS, APM,
                                                   GOAT, DOCKER, SOLVATOR, interface openCOSMO-RS
   S Lehtola, MJT Oliveira, MAL Marques          : LibXC Library
   Liviu Ungur et al                             : ANISO software


 Your calculation uses the libint2 library for the computation of 2-el integrals
 For citations please refer to: http://libint.valeyev.net

 Your ORCA version has been built with support for libXC version: 6.2.2
 For citations please refer to: https://libxc.gitlab.io

 This ORCA versions uses:
   CBLAS   interface :  Fast vector & matrix operations
   LAPACKE interface :  Fast linear algebra routines
   SCALAPACK package :  Parallel linear algebra routines
   Shared memory     :  Shared parallel matrices
   BLAS/LAPACK       :  OpenBLAS 0.3.27  USE64BITINT DYNAMIC_ARCH NO_AFFINITY Zen SINGLE_THREADED
        Core in use  :  Zen
   Copyright (c) 2011-2014, The OpenBLAS Project


NOTE: MaxCore=8000 MB was set to SCF,MP2,MDCI,CIPSI,MRCI and CIS
      => If you want to overwrite this, your respective input block should be placed after the MaxCore statement
Your calculation utilizes the atom-pairwise dispersion correction
based on EEQ partial charges (D4)


================================================================================

----- Orbital basis set information -----
Your calculation utilizes the basis: def2-SVP
   F. Weigend and R. Ahlrichs, Phys. Chem. Chem. Phys. 7, 3297 (2005).

----- AuxJ basis set information -----
Your calculation utilizes the auxiliary basis: def2/J
   F. Weigend, Phys. Chem. Chem. Phys. 8, 1057 (2006).

================================================================================
                                        WARNINGS
                       Please study these warnings very carefully!
================================================================================

WARNING: Old DensityContainer found on disk!
         Will remove this file - 
         If you want to keep old densities, please start your calculation with a different basename. 


================================================================================
                                       INPUT FILE
================================================================================
NAME = inpS
|  1> ! wb97x-d4
|  2> ! def2-svp
|  3> ! def2/J RIJCOSX
|  4> ! DEFGRID2
|  5> ! scfconv7
|  6> ! smallprint printgap noloewdin
|  7> ! NOSOSCF
|  8> %MaxCore 8000
|  9> %output
| 10>        print[P_BondOrder_M] 1
| 11>        print[P_Mayer] 1
| 12>        print[P_basis] 2
| 13> end
| 14> %pal
| 15>     nprocs 4
| 16> end
| 17> ! CPCM(chloroform)
| 18> *xyz 0 1
| 19> C   -4.9733518300   0.2565731700  -0.4616985000
| 20> C   -6.4283704300  -0.1389887500  -0.5461280100
| 21> C   -7.2900732700   0.8009031100   0.3070035400
| 22> H   -6.5686634700  -1.1757190800  -0.2196529500
| 23> H   -6.7757575100  -0.0615615900  -1.5870781900
| 24> C   -4.7178648400   1.6734235600  -0.8044761000
| 25> C   -5.6034317700   2.6588342000  -0.0744560700
| 26> C   -7.0825860900   2.2514984000  -0.1311903000
| 27> H   -5.4655475700   3.6661639300  -0.4816329500
| 28> H   -5.2871955900   2.6924950600   0.9792719300
| 29> H   -7.4527748100   2.3573115800  -1.1600716500
| 30> H   -7.6803635900   2.9148881500   0.5045049800
| 31> O   -7.0058199900   0.6209599200   1.7044175600
| 32> H   -8.3475521500   0.5323561800   0.1923876000
| 33> C   -4.0314047500  -0.6165745400  -0.0319518300
| 34> C   -3.8124970600   2.0564857700  -1.7110678900
| 35> H   -3.1983463700   1.3313487400  -2.2383796500
| 36> H   -3.6732512300   3.1076053500  -1.9526890200
| 37> C   -2.6339776100  -0.3217784600   0.1850220900
| 38> H   -4.3765276000  -1.6241962900   0.1966202200
| 39> C   -1.6736039400  -1.2003426900   0.5438581500
| 40> H   -2.3445275300   0.7184752200   0.0552328400
| 41> C   -1.8696816400  -2.6791120000   0.7618187000
| 42> C   -0.8873054900  -3.5154509000  -0.0804244600
| 43> H   -2.8952915900  -2.9976058500   0.5565369600
| 44> H   -1.6739157300  -2.8913407900   1.8250632900
| 45> C    0.5689990000  -3.0591270200   0.0821629300
| 46> H   -1.1791399200  -3.4553976000  -1.1365194600
| 47> H   -0.9755418500  -4.5703053700   0.2071205000
| 48> C    0.7326206600  -1.5586115800  -0.1986943400
| 49> H    1.2036956200  -3.6607797800  -0.5763005900
| 50> H    0.8984102000  -3.2566081900   1.1133506400
| 51> C   -0.2461622700  -0.7986519200   0.7540546100
| 52> H    0.0297174500  -1.1470668900   1.7664633300
| 53> C    0.1841928100   0.6600528700   0.6444694600
| 54> H   -6.0458667100   0.5448896500   1.8012913000
| 55> C    1.7226636400   0.5752868700   0.4919840700
| 56> H   -0.1252771400   1.2485580900   1.5144471000
| 57> H   -0.2612103100   1.1312382900  -0.2389328300
| 58> C    2.0787369800  -0.9235037400   0.2500485800
| 59> H    2.2396488100   0.9559970000   1.3783860500
| 60> H    2.0587878700   1.1863545500  -0.3543842600
| 61> H    2.3331578500  -1.3832953500   1.2184901900
| 62> C    3.3216937000  -1.0855509300  -0.6587252000
| 63> C    0.4325187700  -1.2350266900  -1.6677714000
| 64> H    0.6545905500  -0.1898536500  -1.9063785400
| 65> H   -0.6215543300  -1.4062796000  -1.9075292800
| 66> H    1.0352003100  -1.8624475200  -2.3334688200
| 67> H    3.0837555600  -0.5885873000  -1.6140488900
| 68> C    3.6744365500  -2.5415974800  -0.9557574800
| 69> C    4.4694507600  -0.3162370200  -0.0457584500
| 70> C    5.5947109200  -0.8351619500   0.4485268200
| 71> H    4.3224006800   0.7617445000   0.0048919100
| 72> H    5.7381182000  -1.9136731800   0.4062279800
| 73> C    6.7340072000  -0.0632855500   1.0691953400
| 74> C    6.3526457100   1.3700876900   1.4446719900
| 75> C    7.9931698200  -0.1065158200   0.1575146700
| 76> H    7.0111051300  -0.5963269700   1.9955519500
| 77> H    7.7343764200   0.4343089400  -0.7667693800
| 78> C    8.3829097900  -1.5399326400  -0.2182031600
| 79> C    9.1898719700   0.5921767800   0.8109579000
| 80> H    6.2233117700   1.9929502100   0.5511820000
| 81> H    7.1215074700   1.8342418600   2.0672484500
| 82> H    5.4131561300   1.3870177900   2.0069003900
| 83> H    7.6149295600  -2.0342453500  -0.8201062000
| 84> H    8.5488034700  -2.1433444600   0.6839315800
| 85> H    9.3128164000  -1.5428377800  -0.7970871600
| 86> H    9.0168730200   1.6605211800   0.9664534700
| 87> H    10.0809568800   0.4891962800   0.1821150300
| 88> H    9.4133552900   0.1373347600   1.7849308300
| 89> H    2.9083429300  -3.0143312700  -1.5733150800
| 90> H    3.7734733600  -3.1275242900  -0.0342176900
| 91> H    4.6235947800  -2.6040618900  -1.4993738600
| 92> *
| 93> %eprnmr
| 94>  Nuclei = all C { shift }
| 95>  origin giao
| 96>  giao_2el giao_2el_same_as_scf
| 97>  giao_1el giao_1el_analytic
| 98> end
| 99> 
|100>                          ****END OF INPUT****
================================================================================

                       ****************************
                       * Single Point Calculation *
                       ****************************

---------------------------------
CARTESIAN COORDINATES (ANGSTROEM)
---------------------------------
  C     -4.973352    0.256573   -0.461699
  C     -6.428370   -0.138989   -0.546128
  C     -7.290073    0.800903    0.307004
  H     -6.568663   -1.175719   -0.219653
  H     -6.775758   -0.061562   -1.587078
  C     -4.717865    1.673424   -0.804476
  C     -5.603432    2.658834   -0.074456
  C     -7.082586    2.251498   -0.131190
  H     -5.465548    3.666164   -0.481633
  H     -5.287196    2.692495    0.979272
  H     -7.452775    2.357312   -1.160072
  H     -7.680364    2.914888    0.504505
  O     -7.005820    0.620960    1.704418
  H     -8.347552    0.532356    0.192388
  C     -4.031405   -0.616575   -0.031952
  C     -3.812497    2.056486   -1.711068
  H     -3.198346    1.331349   -2.238380
  H     -3.673251    3.107605   -1.952689
  C     -2.633978   -0.321778    0.185022
  H     -4.376528   -1.624196    0.196620
  C     -1.673604   -1.200343    0.543858
  H     -2.344528    0.718475    0.055233
  C     -1.869682   -2.679112    0.761819
  C     -0.887305   -3.515451   -0.080424
  H     -2.895292   -2.997606    0.556537
  H     -1.673916   -2.891341    1.825063
  C      0.568999   -3.059127    0.082163
  H     -1.179140   -3.455398   -1.136519
  H     -0.975542   -4.570305    0.207121
  C      0.732621   -1.558612   -0.198694
  H      1.203696   -3.660780   -0.576301
  H      0.898410   -3.256608    1.113351
  C     -0.246162   -0.798652    0.754055
  H      0.029717   -1.147067    1.766463
  C      0.184193    0.660053    0.644469
  H     -6.045867    0.544890    1.801291
  C      1.722664    0.575287    0.491984
  H     -0.125277    1.248558    1.514447
  H     -0.261210    1.131238   -0.238933
  C      2.078737   -0.923504    0.250049
  H      2.239649    0.955997    1.378386
  H      2.058788    1.186355   -0.354384
  H      2.333158   -1.383295    1.218490
  C      3.321694   -1.085551   -0.658725
  C      0.432519   -1.235027   -1.667771
  H      0.654591   -0.189854   -1.906379
  H     -0.621554   -1.406280   -1.907529
  H      1.035200   -1.862448   -2.333469
  H      3.083756   -0.588587   -1.614049
  C      3.674437   -2.541597   -0.955757
  C      4.469451   -0.316237   -0.045758
  C      5.594711   -0.835162    0.448527
  H      4.322401    0.761745    0.004892
  H      5.738118   -1.913673    0.406228
  C      6.734007   -0.063286    1.069195
  C      6.352646    1.370088    1.444672
  C      7.993170   -0.106516    0.157515
  H      7.011105   -0.596327    1.995552
  H      7.734376    0.434309   -0.766769
  C      8.382910   -1.539933   -0.218203
  C      9.189872    0.592177    0.810958
  H      6.223312    1.992950    0.551182
  H      7.121507    1.834242    2.067248
  H      5.413156    1.387018    2.006900
  H      7.614930   -2.034245   -0.820106
  H      8.548803   -2.143344    0.683932
  H      9.312816   -1.542838   -0.797087
  H      9.016873    1.660521    0.966453
  H     10.080957    0.489196    0.182115
  H      9.413355    0.137335    1.784931
  H      2.908343   -3.014331   -1.573315
  H      3.773473   -3.127524   -0.034218
  H      4.623595   -2.604062   -1.499374

----------------------------
CARTESIAN COORDINATES (A.U.)
----------------------------
  NO LB      ZA    FRAG     MASS         X           Y           Z
   0 C     6.0000    0    12.011   -9.398273    0.484853   -0.872484
   1 C     6.0000    0    12.011  -12.147860   -0.262651   -1.032032
   2 C     6.0000    0    12.011  -13.776242    1.513488    0.580153
   3 H     1.0000    0     1.008  -12.412975   -2.221787   -0.415084
   4 H     1.0000    0     1.008  -12.804326   -0.116335   -2.999143
   5 C     6.0000    0    12.011   -8.915472    3.162312   -1.520240
   6 C     6.0000    0    12.011  -10.588951    5.024468   -0.140702
   7 C     6.0000    0    12.011  -13.384148    4.254715   -0.247914
   8 H     1.0000    0     1.008  -10.328388    6.928046   -0.910154
   9 H     1.0000    0     1.008   -9.991352    5.088078    1.850556
  10 H     1.0000    0     1.008  -14.083703    4.454673   -2.192218
  11 H     1.0000    0     1.008  -14.513784    5.508340    0.953376
  12 O     8.0000    0    15.999  -13.239081    1.173444    3.220882
  13 H     1.0000    0     1.008  -15.774587    1.006007    0.363560
  14 C     6.0000    0    12.011   -7.618251   -1.165157   -0.060380
  15 C     6.0000    0    12.011   -7.204575    3.886195   -3.233450
  16 H     1.0000    0     1.008   -6.043999    2.515885   -4.229925
  17 H     1.0000    0     1.008   -6.941439    5.872523   -3.690047
  18 C     6.0000    0    12.011   -4.977496   -0.608073    0.349641
  19 H     1.0000    0     1.008   -8.270439   -3.069286    0.371558
  20 C     6.0000    0    12.011   -3.162653   -2.268319    1.027743
  21 H     1.0000    0     1.008   -4.430515    1.357721    0.104375
  22 C     6.0000    0    12.011   -3.533186   -5.062788    1.439629
  23 C     6.0000    0    12.011   -1.676764   -6.643239   -0.151980
  24 H     1.0000    0     1.008   -5.471308   -5.664654    1.051702
  25 H     1.0000    0     1.008   -3.163242   -5.463842    3.448870
  26 C     6.0000    0    12.011    1.075252   -5.780912    0.155265
  27 H     1.0000    0     1.008   -2.228252   -6.529755   -2.147711
  28 H     1.0000    0     1.008   -1.843507   -8.636625    0.391401
  29 C     6.0000    0    12.011    1.384452   -2.945349   -0.375478
  30 H     1.0000    0     1.008    2.274655   -6.917871   -1.089050
  31 H     1.0000    0     1.008    1.697749   -6.154098    2.103928
  32 C     6.0000    0    12.011   -0.465179   -1.509233    1.424957
  33 H     1.0000    0     1.008    0.056158   -2.167642    3.338132
  34 C     6.0000    0    12.011    0.348074    1.247319    1.217871
  35 H     1.0000    0     1.008  -11.425032    1.029692    3.403947
  36 C     6.0000    0    12.011    3.255363    1.087135    0.929715
  37 H     1.0000    0     1.008   -0.236739    2.359433    2.861890
  38 H     1.0000    0     1.008   -0.493616    2.137731   -0.451518
  39 C     6.0000    0    12.011    3.928244   -1.745169    0.472523
  40 H     1.0000    0     1.008    4.232323    1.806573    2.604772
  41 H     1.0000    0     1.008    3.890545    2.241885   -0.669689
  42 H     1.0000    0     1.008    4.409029   -2.614049    2.302613
  43 C     6.0000    0    12.011    6.277091   -2.051394   -1.244810
  44 C     6.0000    0    12.011    0.817342   -2.333862   -3.151631
  45 H     1.0000    0     1.008    1.236997   -0.358771   -3.602533
  46 H     1.0000    0     1.008   -1.174567   -2.657483   -3.604708
  47 H     1.0000    0     1.008    1.956245   -3.519516   -4.409617
  48 H     1.0000    0     1.008    5.827453   -1.112269   -3.050110
  49 C     6.0000    0    12.011    6.943679   -4.802923   -1.806120
  50 C     6.0000    0    12.011    8.446038   -0.597601   -0.086471
  51 C     6.0000    0    12.011   10.572471   -1.578227    0.847593
  52 H     1.0000    0     1.008    8.168154    1.439488    0.009244
  53 H     1.0000    0     1.008   10.843472   -3.616318    0.767660
  54 C     6.0000    0    12.011   12.725429   -0.119592    2.020486
  55 C     6.0000    0    12.011   12.004761    2.589091    2.730034
  56 C     6.0000    0    12.011   15.104902   -0.201286    0.297660
  57 H     1.0000    0     1.008   13.249069   -1.126895    3.771047
  58 H     1.0000    0     1.008   14.615853    0.820725   -1.448984
  59 C     6.0000    0    12.011   15.841404   -2.910051   -0.412344
  60 C     6.0000    0    12.011   17.366341    1.119052    1.532488
  61 H     1.0000    0     1.008   11.760355    3.766130    1.041583
  62 H     1.0000    0     1.008   13.457699    3.466215    3.906533
  63 H     1.0000    0     1.008   10.229383    2.621084    3.792492
  64 H     1.0000    0     1.008   14.390131   -3.844167   -1.549776
  65 H     1.0000    0     1.008   16.154897   -4.050334    1.292443
  66 H     1.0000    0     1.008   17.598673   -2.915541   -1.506276
  67 H     1.0000    0     1.008   17.039421    3.137930    1.826332
  68 H     1.0000    0     1.008   19.050248    0.924447    0.344148
  69 H     1.0000    0     1.008   17.788663    0.259525    3.373030
  70 H     1.0000    0     1.008    5.495972   -5.696261   -2.973135
  71 H     1.0000    0     1.008    7.130831   -5.910164   -0.064662
  72 H     1.0000    0     1.008    8.737328   -4.920964   -2.833406

--------------------------------
INTERNAL COORDINATES (ANGSTROEM)
--------------------------------
 C      0   0   0     0.000000000000     0.00000000     0.00000000
 C      1   0   0     1.510190948542     0.00000000     0.00000000
 C      2   1   0     1.534197488775   110.46231333     0.00000000
 H      2   1   3     1.095936986791   110.76029052   237.87284912
 H      2   1   3     1.100113642175   109.79785102   118.75733453
 C      1   2   3     1.479944293804   113.83717778   305.86080556
 C      6   1   2     1.512677150332   114.25636881    50.32107481
 C      3   2   1     1.529474245173   110.21368149    56.60660544
 H      7   6   1     1.095225204768   110.24486429   188.39808155
 H      7   6   1     1.100673009127   108.28471291    71.70479317
 H      8   3   2     1.098559488537   108.29842832    64.68186292
 H      8   3   2     1.096144328510   109.50310848   181.65381796
 O      3   2   1     1.437339703101   110.66221197   292.49872330
 H      3   2   1     1.097048699448   109.47177017   177.04181189
 C      1   2   3     1.354375658883   121.26208264   122.28054288
 C      6   1   2     1.337286860583   123.23886223   232.29575041
 H     16   6   1     1.086766982632   121.35949516   359.01736027
 H     16   6   1     1.087484502462   120.94282475   178.40486963
 C     15   1   2     1.444570878272   126.07782047   184.96923433
 H     15   1   2     1.089337667900   116.26743849     3.02928010
 C     19  15   1     1.350168882111   126.52784905   183.81621121
 H     19  15   1     1.087545087333   115.76855029     4.67405686
 C     21  19  15     1.507551636924   125.74609765     1.37335914
 C     23  21  19     1.540746311470   111.74576298   126.17956215
 H     23  21  19     1.093368508237   112.37041170     2.33825973
 H     23  21  19     1.101750611067   107.78022275   244.73773579
 C     24  23  21     1.534760212685   112.68730072    50.71212886
 H     24  23  21     1.097319635475   109.07662881   288.55426237
 H     24  23  21     1.096898223231   109.11219143   172.61977923
 C     27  24  23     1.535317374165   111.85945360   306.23666396
 H     27  24  23     1.094714597612   108.84534917   182.67444790
 H     27  24  23     1.100390223714   109.26698428    66.21546958
 C     21  19  15     1.497707497395   122.73168964   180.35375338
 H     33  21  19     1.105655474169   106.36786477   125.92141120
 C     33  21  19     1.524806238298   121.02989143     3.39180394
 H     13   3   2     0.967823076426   107.65648582    42.57056831
 C     35  33  21     1.548331218984   103.60005210   196.80649462
 H     35  33  21     1.094975405212   112.16606230    74.78986805
 H     35  33  21     1.095809858189   110.76696485   315.14480240
 C     30  27  24     1.554593620098   116.02426203   166.31404748
 H     37  35  33     1.094496386121   111.74888750   249.18910682
 H     37  35  33     1.096687082791   110.48969856   130.61549202
 H     40  30  27     1.101824602964   106.44967395   320.84136770
 C     40  30  27     1.548247552168   118.87908570    81.13496607
 C     30  27  24     1.533934722743   111.13186578   294.47187558
 H     45  30  27     1.094822326350   111.74196883   186.42813787
 H     45  30  27     1.094477729490   111.42057187    66.43458491
 H     45  30  27     1.095461086287   110.70379093   306.37178862
 H     44  40  30     1.102828527326   106.74346741    62.13570650
 C     44  40  30     1.527326831217   113.53735261   303.10772333
 C     44  40  30     1.511594653836   108.55948505   176.70415048
 C     51  44  40     1.334095738243   126.35038278   114.09649383
 H     51  44  40     1.089143398482   114.83885168   295.69318930
 H     52  51  44     1.088825657788   118.81507561     1.10636556
 C     52  51  44     1.509641878797   126.15637766   180.48764351
 C     55  52  51     1.530025537662   113.06584123    15.78066921
 C     55  52  51     1.555159478607   110.84289138   249.30869885
 H     55  52  51     1.104107325914   106.70863157   134.36240767
 H     57  55  52     1.101710692513   106.73714657    65.32156319
 C     57  55  52     1.532235266483   112.06767057   306.96891104
 C     57  55  52     1.532075533367   111.69843944   183.77312998
 H     56  55  52     1.096817828578   111.19154801   288.71027460
 H     56  55  52     1.092789525968   111.24484951   168.53195423
 H     56  55  52     1.095001403187   110.75306379    48.74555775
 H     60  57  55     1.093812579238   112.27890355    64.01257818
 H     60  57  55     1.097940629859   110.55429200   303.26547787
 H     60  57  55     1.095372735016   110.36542711   184.18218701
 H     61  57  55     1.093374257060   112.49920015   296.28380797
 H     61  57  55     1.095481928358   110.34423475   176.12292553
 H     61  57  55     1.097929563246   110.39081873    57.14091053
 H     50  44  40     1.091674887560   111.14731058    67.29188623
 H     50  44  40     1.096519083721   111.52018097   306.83831851
 H     50  44  40     1.095592039355   110.54460336   186.72698608

---------------------------
INTERNAL COORDINATES (A.U.)
---------------------------
 C      0   0   0     0.000000000000     0.00000000     0.00000000
 C      1   0   0     2.853847302672     0.00000000     0.00000000
 C      2   1   0     2.899213089135   110.46231333     0.00000000
 H      2   1   3     2.071020765070   110.76029052   237.87284912
 H      2   1   3     2.078913499901   109.79785102   118.75733453
 C      1   2   3     2.796689408750   113.83717778   305.86080556
 C      6   1   2     2.858545543168   114.25636881    50.32107481
 C      3   2   1     2.890287452263   110.21368149    56.60660544
 H      7   6   1     2.069675691978   110.24486429   188.39808155
 H      7   6   1     2.079970550249   108.28471291    71.70479317
 H      8   3   2     2.075976575156   108.29842832    64.68186292
 H      8   3   2     2.071412584136   109.50310848   181.65381796
 O      3   2   1     2.716178400273   110.66221197   292.49872330
 H      3   2   1     2.073121597531   109.47177017   177.04181189
 C      1   2   3     2.559399077738   121.26208264   122.28054288
 C      6   1   2     2.527105928993   123.23886223   232.29575041
 H     16   6   1     2.053691968562   121.35949516   359.01736027
 H     16   6   1     2.055047884536   120.94282475   178.40486963
 C     15   1   2     2.729843340973   126.07782047   184.96923433
 H     15   1   2     2.058549859696   116.26743849     3.02928010
 C     19  15   1     2.551449421733   126.52784905   183.81621121
 H     19  15   1     2.055162373350   115.76855029     4.67405686
 C     21  19  15     2.848859726531   125.74609765     1.37335914
 C     23  21  19     2.911588570528   111.74576298   126.17956215
 H     23  21  19     2.066167044022   112.37041170     2.33825973
 H     23  21  19     2.082006922798   107.78022275   244.73773579
 C     24  23  21     2.900276483212   112.68730072    50.71212886
 H     24  23  21     2.073633592422   109.07662881   288.55426237
 H     24  23  21     2.072837238691   109.11219143   172.61977923
 C     27  24  23     2.901329365822   111.85945360   306.23666396
 H     27  24  23     2.068710784293   108.84534917   182.67444790
 H     27  24  23     2.079436163264   109.26698428    66.21546958
 C     21  19  15     2.830256998796   122.73168964   180.35375338
 H     33  21  19     2.089386044650   106.36786477   125.92141120
 C     33  21  19     2.881466197677   121.02989143     3.39180394
 H     13   3   2     1.828920560534   107.65648582    42.57056831
 C     35  33  21     2.925921968480   103.60005210   196.80649462
 H     35  33  21     2.069203639231   112.16606230    74.78986805
 H     35  33  21     2.070780526828   110.76696485   315.14480240
 C     30  27  24     2.937756191527   116.02426203   166.31404748
 H     37  35  33     2.068298424336   111.74888750   249.18910682
 H     37  35  33     2.072438241084   110.48969856   130.61549202
 H     40  30  27     2.082146747219   106.44967395   320.84136770
 C     40  30  27     2.925763861112   118.87908570    81.13496607
 C     30  27  24     2.898716533296   111.13186578   294.47187558
 H     45  30  27     2.068914362104   111.74196883   186.42813787
 H     45  30  27     2.068263168412   111.42057187    66.43458491
 H     45  30  27     2.070121443450   110.70379093   306.37178862
 H     44  40  30     2.084043889322   106.74346741    62.13570650
 C     44  40  30     2.886229427990   113.53735261   303.10772333
 C     44  40  30     2.856499921249   108.55948505   176.70415048
 C     51  44  40     2.521075581710   126.35038278   114.09649383
 H     51  44  40     2.058182743700   114.83885168   295.69318930
 H     52  51  44     2.057582300807   118.81507561     1.10636556
 C     52  51  44     2.852809711225   126.15637766   180.48764351
 C     55  52  51     2.891329244087   113.06584123    15.78066921
 C     55  52  51     2.938825509139   110.84289138   249.30869885
 H     55  52  51     2.086460468433   106.70863157   134.36240767
 H     57  55  52     2.081931487662   106.73714657    65.32156319
 C     57  55  52     2.895505026389   112.06767057   306.96891104
 C     57  55  52     2.895203174545   111.69843944   183.77312998
 H     56  55  52     2.072685314815   111.19154801   288.71027460
 H     56  55  52     2.065072926097   111.24484951   168.53195423
 H     56  55  52     2.069252768283   110.75306379    48.74555775
 H     60  57  55     2.067006216598   112.27890355    64.01257818
 H     60  57  55     2.074807101738   110.55429200   303.26547787
 H     60  57  55     2.069954483744   110.36542711   184.18218701
 H     61  57  55     2.066177907724   112.49920015   296.28380797
 H     61  57  55     2.070160829257   110.34423475   176.12292553
 H     61  57  55     2.074786188870   110.39081873    57.14091053
 H     50  44  40     2.062966564769   111.14731058    67.29188623
 H     50  44  40     2.072120768852   111.52018097   306.83831851
 H     50  44  40     2.070368908885   110.54460336   186.72698608

---------------------
BASIS SET INFORMATION
---------------------
There are 3 groups of distinct atoms

 Group   1 Type C   : 7s4p1d contracted to 3s2p1d pattern {511/31/1}
 Group   2 Type H   : 4s1p contracted to 2s1p pattern {31/1}
 Group   3 Type O   : 7s4p1d contracted to 3s2p1d pattern {511/31/1}

Atom   0C    basis set group =>   1
Atom   1C    basis set group =>   1
Atom   2C    basis set group =>   1
Atom   3H    basis set group =>   2
Atom   4H    basis set group =>   2
Atom   5C    basis set group =>   1
Atom   6C    basis set group =>   1
Atom   7C    basis set group =>   1
Atom   8H    basis set group =>   2
Atom   9H    basis set group =>   2
Atom  10H    basis set group =>   2
Atom  11H    basis set group =>   2
Atom  12O    basis set group =>   3
Atom  13H    basis set group =>   2
Atom  14C    basis set group =>   1
Atom  15C    basis set group =>   1
Atom  16H    basis set group =>   2
Atom  17H    basis set group =>   2
Atom  18C    basis set group =>   1
Atom  19H    basis set group =>   2
Atom  20C    basis set group =>   1
Atom  21H    basis set group =>   2
Atom  22C    basis set group =>   1
Atom  23C    basis set group =>   1
Atom  24H    basis set group =>   2
Atom  25H    basis set group =>   2
Atom  26C    basis set group =>   1
Atom  27H    basis set group =>   2
Atom  28H    basis set group =>   2
Atom  29C    basis set group =>   1
Atom  30H    basis set group =>   2
Atom  31H    basis set group =>   2
Atom  32C    basis set group =>   1
Atom  33H    basis set group =>   2
Atom  34C    basis set group =>   1
Atom  35H    basis set group =>   2
Atom  36C    basis set group =>   1
Atom  37H    basis set group =>   2
Atom  38H    basis set group =>   2
Atom  39C    basis set group =>   1
Atom  40H    basis set group =>   2
Atom  41H    basis set group =>   2
Atom  42H    basis set group =>   2
Atom  43C    basis set group =>   1
Atom  44C    basis set group =>   1
Atom  45H    basis set group =>   2
Atom  46H    basis set group =>   2
Atom  47H    basis set group =>   2
Atom  48H    basis set group =>   2
Atom  49C    basis set group =>   1
Atom  50C    basis set group =>   1
Atom  51C    basis set group =>   1
Atom  52H    basis set group =>   2
Atom  53H    basis set group =>   2
Atom  54C    basis set group =>   1
Atom  55C    basis set group =>   1
Atom  56C    basis set group =>   1
Atom  57H    basis set group =>   2
Atom  58H    basis set group =>   2
Atom  59C    basis set group =>   1
Atom  60C    basis set group =>   1
Atom  61H    basis set group =>   2
Atom  62H    basis set group =>   2
Atom  63H    basis set group =>   2
Atom  64H    basis set group =>   2
Atom  65H    basis set group =>   2
Atom  66H    basis set group =>   2
Atom  67H    basis set group =>   2
Atom  68H    basis set group =>   2
Atom  69H    basis set group =>   2
Atom  70H    basis set group =>   2
Atom  71H    basis set group =>   2
Atom  72H    basis set group =>   2

-------------------------
BASIS SET IN INPUT FORMAT
-------------------------

 # Basis set for element : H 
 NewGTO H 
 S 3 
   1      13.0107010000      0.0334854848
   2       1.9622572000      0.2347218709
   3       0.4445379600      0.8137702853
 S 1 
   1       0.1219496200      1.0000000000
 P 1 
   1       0.8000000000      1.0000000000
  end;

 # Basis set for element : C 
 NewGTO C 
 S 5 
   1    1238.4016938000      0.0055173650
   2     186.2900499200      0.0410888285
   3      42.2511763460      0.1822538213
   4      11.6765579320      0.4682845944
   5       3.5930506482      0.4457581734
 S 1 
   1       0.4024514736      1.0000000000
 S 1 
   1       0.1309018267      1.0000000000
 P 3 
   1       9.4680970621      0.0568883320
   2       2.0103545142      0.3129405934
   3       0.5477100471      0.7606501651
 P 1 
   1       0.1526861379      1.0000000000
 D 1 
   1       0.8000000000      1.0000000000
  end;

 # Basis set for element : O 
 NewGTO O 
 S 5 
   1    2266.1767785000     -0.0053893504
   2     340.8701019100     -0.0402347214
   3      77.3631351670     -0.1800818421
   4      21.4796449400     -0.4682885766
   5       6.6589433124     -0.4469261716
 S 1 
   1       0.8097597567      1.0000000000
 S 1 
   1       0.2553077223      1.0000000000
 P 3 
   1      17.7215043170      0.0626302488
   2       3.8635505440      0.3333113849
   3       1.0480920883      0.7414863830
 P 1 
   1       0.2764154441      1.0000000000
 D 1 
   1       1.2000000000      1.0000000000
  end;

---------------------------------
AUXILIARY/J BASIS SET INFORMATION
---------------------------------
There are 3 groups of distinct atoms

 Group   1 Type C   : 12s5p4d2f1g contracted to 6s4p3d1f1g pattern {711111/2111/211/2/1}
 Group   2 Type H   : 5s2p1d contracted to 3s1p1d pattern {311/2/1}
 Group   3 Type O   : 12s5p4d2f1g contracted to 6s4p3d1f1g pattern {711111/2111/211/2/1}

Atom   0C    basis set group =>   1
Atom   1C    basis set group =>   1
Atom   2C    basis set group =>   1
Atom   3H    basis set group =>   2
Atom   4H    basis set group =>   2
Atom   5C    basis set group =>   1
Atom   6C    basis set group =>   1
Atom   7C    basis set group =>   1
Atom   8H    basis set group =>   2
Atom   9H    basis set group =>   2
Atom  10H    basis set group =>   2
Atom  11H    basis set group =>   2
Atom  12O    basis set group =>   3
Atom  13H    basis set group =>   2
Atom  14C    basis set group =>   1
Atom  15C    basis set group =>   1
Atom  16H    basis set group =>   2
Atom  17H    basis set group =>   2
Atom  18C    basis set group =>   1
Atom  19H    basis set group =>   2
Atom  20C    basis set group =>   1
Atom  21H    basis set group =>   2
Atom  22C    basis set group =>   1
Atom  23C    basis set group =>   1
Atom  24H    basis set group =>   2
Atom  25H    basis set group =>   2
Atom  26C    basis set group =>   1
Atom  27H    basis set group =>   2
Atom  28H    basis set group =>   2
Atom  29C    basis set group =>   1
Atom  30H    basis set group =>   2
Atom  31H    basis set group =>   2
Atom  32C    basis set group =>   1
Atom  33H    basis set group =>   2
Atom  34C    basis set group =>   1
Atom  35H    basis set group =>   2
Atom  36C    basis set group =>   1
Atom  37H    basis set group =>   2
Atom  38H    basis set group =>   2
Atom  39C    basis set group =>   1
Atom  40H    basis set group =>   2
Atom  41H    basis set group =>   2
Atom  42H    basis set group =>   2
Atom  43C    basis set group =>   1
Atom  44C    basis set group =>   1
Atom  45H    basis set group =>   2
Atom  46H    basis set group =>   2
Atom  47H    basis set group =>   2
Atom  48H    basis set group =>   2
Atom  49C    basis set group =>   1
Atom  50C    basis set group =>   1
Atom  51C    basis set group =>   1
Atom  52H    basis set group =>   2
Atom  53H    basis set group =>   2
Atom  54C    basis set group =>   1
Atom  55C    basis set group =>   1
Atom  56C    basis set group =>   1
Atom  57H    basis set group =>   2
Atom  58H    basis set group =>   2
Atom  59C    basis set group =>   1
Atom  60C    basis set group =>   1
Atom  61H    basis set group =>   2
Atom  62H    basis set group =>   2
Atom  63H    basis set group =>   2
Atom  64H    basis set group =>   2
Atom  65H    basis set group =>   2
Atom  66H    basis set group =>   2
Atom  67H    basis set group =>   2
Atom  68H    basis set group =>   2
Atom  69H    basis set group =>   2
Atom  70H    basis set group =>   2
Atom  71H    basis set group =>   2
Atom  72H    basis set group =>   2

-------------------------------------
AUXILIARY/J BASIS SET IN INPUT FORMAT
-------------------------------------

 # Auxiliary/J basis set for element : H 
 NewAuxJGTO H 
 S 3 
   1      15.6752927000      0.1007184237
   2       3.6063578000      0.3404257499
   3       1.2080016000      0.6491996172
 S 1 
   1       0.4726794000      1.0000000000
 S 1 
   1       0.2018100000      1.0000000000
 P 2 
   1       2.0281365000      0.5596620919
   2       0.5358730000      0.5596620919
 D 1 
   1       2.2165124000      1.0000000000
  end;

 # Auxiliary/J basis set for element : C 
 NewAuxJGTO C 
 S 7 
   1    1861.0916331000      0.0134602335
   2     642.9939764000      0.0299160374
   3     235.1105725000      0.1008649584
   4      90.7028894000      0.2370970548
   5      36.7794552000      0.3924037254
   6      15.6046273000      0.3195862154
   7       6.8907294000      0.0530104441
 S 1 
   1       3.1478850000     -1.0000000000
 S 1 
   1       1.4777287000      1.0000000000
 S 1 
   1       0.7076466000      1.0000000000
 S 1 
   1       0.3430122000      1.0000000000
 S 1 
   1       0.1669453000      1.0000000000
 P 2 
   1      13.5472892000     -0.6769313712
   2       5.4669419000     -0.3779500978
 P 1 
   1       2.1751721000      1.0000000000
 P 1 
   1       0.8582194000      1.0000000000
 P 1 
   1       0.3376720000      1.0000000000
 D 2 
   1       5.9287253000     -0.3533329857
   2       1.9809209000     -0.7456525731
 D 1 
   1       0.8055417000     -1.0000000000
 D 1 
   1       0.3531244000     -1.0000000000
 F 2 
   1       1.6755626000      0.6311076882
   2       0.5997536000      0.4968166032
 G 1 
   1       1.0024600000     -1.0000000000
  end;

 # Auxiliary/J basis set for element : O 
 NewAuxJGTO O 
 S 7 
   1    2876.8216605000      0.0168151159
   2    1004.7443032000      0.0340137548
   3     369.7579954000      0.1194951309
   4     142.9442404000      0.2664627624
   5      57.8366425000      0.4202764046
   6      24.3864983000      0.2765077335
   7      10.6622662000      0.0057008815
 S 1 
   1       4.8070437000     -1.0000000000
 S 1 
   1       2.2210770000      1.0000000000
 S 1 
   1       1.0447795000      1.0000000000
 S 1 
   1       0.4968425000      1.0000000000
 S 1 
   1       0.2371384000      1.0000000000
 P 2 
   1      64.2613382000     -0.2731534179
   2      16.3006076000     -0.8168011598
 P 1 
   1       4.3550542000      1.0000000000
 P 1 
   1       1.2019554000      1.0000000000
 P 1 
   1       0.3354196000      1.0000000000
 D 2 
   1       9.2146611000     -0.4661230638
   2       2.8435251000     -0.6600908911
 D 1 
   1       0.9955759000     -1.0000000000
 D 1 
   1       0.3649441000     -1.0000000000
 F 2 
   1       2.6420115000      0.5931563945
   2       0.7345613000      0.5931563945
 G 1 
   1       1.3931000000     -1.0000000000
  end;


Checking for AutoStart:
The File: inpS.gbw exists
Trying to determine its content:
     ... Fine, the file contains calculation information
     ... Fine, the calculation information was read
     ... Fine, the file contains a basis set
     ... Fine, the basis set was read
     ... Fine, the file contains a geometry
     ... Fine, the geometry was read
     ... Fine, the file contains a set of orbitals
     ... Fine, the orbitals can be read
     => possible old guess file was deleted
     => GBW file was renamed to GES file
     => GES file is set as startup file
     => Guess is set to MORead
     ... now leaving AutoStart



           ************************************************************
           *        Program running with 4 parallel MPI-processes     *
           *              working on a common directory               *
           ************************************************************
------------------------------------------------------------------------------
                             ORCA STARTUP CALCULATIONS
                           -- RI-GTO INTEGRALS CHOSEN --
------------------------------------------------------------------------------
------------------------------------------------------------------------------
                   ___                                                        
                  /   \      - P O W E R E D   B Y -                         
                 /     \                                                     
                 |  |  |   _    _      __       _____    __    __             
                 |  |  |  | |  | |    /  \     |  _  \  |  |  /  |          
                  \  \/   | |  | |   /    \    | | | |  |  | /  /          
                 / \  \   | |__| |  /  /\  \   | |_| |  |  |/  /          
                |  |  |   |  __  | /  /__\  \  |    /   |      \           
                |  |  |   | |  | | |   __   |  |    \   |  |\   \          
                \     /   | |  | | |  |  |  |  | |\  \  |  | \   \       
                 \___/    |_|  |_| |__|  |__|  |_| \__\ |__|  \__/        
                                                                              
                      - O R C A' S   B I G   F R I E N D -                    
                                      &                                       
                       - I N T E G R A L  F E E D E R -                       
                                                                              
 v1 FN, 2020, v2 2021, v3 2022-2024                                           
------------------------------------------------------------------------------


----------------------
SHARK INTEGRAL PACKAGE
----------------------

Number of atoms                             ...     73
Number of basis functions                   ...    626
Number of shells                            ...    306
Maximum angular momentum                    ...      2
Integral batch strategy                     ... SHARK/LIBINT Hybrid
RI-J (if used) integral strategy            ... SPLIT-RIJ (Revised 2003 algorithm where possible)
Printlevel                                  ...      1
Contraction scheme used                     ... SEGMENTED contraction
Prescreening option                         ... SCHWARTZ
   Thresh                                   ... 3.000e-11
   Tcut                                     ... 1.000e-12
   Tpresel                                  ... 1.000e-12 
Coulomb Range Separation                    ... NOT USED
Exchange Range Separation                   ... Long Range
   Mu parameter                             ... 3.000e-01
   Scaling (regular/separated)              ... 1.670e-01 8.330e-01
Multipole approximations                    ... NOT USED
Finite Nucleus Model                        ... NOT USED
CABS basis                                  ... NOT available
Auxiliary Coulomb fitting basis             ... AVAILABLE
   # of basis functions in Aux-J            ...   1905
   # of shells in Aux-J                     ...    655
   Maximum angular momentum in Aux-J        ...      4
Auxiliary J/K fitting basis                 ... NOT available
Auxiliary Correlation fitting basis         ... NOT available
Auxiliary 'external' fitting basis          ... NOT available

Checking pre-screening integrals            ... done (  0.0 sec) Dimension = 306
Check shell pair data                       ... done (  0.0 sec)
Shell pair information
Shell pair cut-off parameter TPreSel        ...   1.0e-12
Total number of shell pairs                 ...     46971
Shell pairs after pre-screening             ...     27163
Total number of primitive shell pairs       ...    162105
Primitive shell pairs kept                  ...     60145
          la=0 lb=0:   9496 shell pairs
          la=1 lb=0:  10415 shell pairs
          la=1 lb=1:   2880 shell pairs
          la=2 lb=0:   2720 shell pairs
          la=2 lb=1:   1457 shell pairs
          la=2 lb=2:    195 shell pairs

Calculating one electron integrals          ... done (  0.1 sec)
Calculating RI/J V-Matrix + Cholesky decomp.... done (  0.2 sec)
Calculating Nuclear repulsion               ... done (  0.0 sec) ENN=   2766.651020861877 Eh

Diagonalization of the overlap matrix:
Smallest eigenvalue                        ... 4.406e-04
Time for diagonalization                   ...    0.050 sec
Threshold for overlap eigenvalues          ... 1.000e-07
Number of eigenvalues below threshold      ... 0
Time for construction of square roots      ...    0.030 sec
Total time needed                          ...    0.082 sec

-------------------
DFT GRID GENERATION
-------------------

General Integration Accuracy     IntAcc      ... 4.388
Radial Grid Type                 RadialGrid  ... OptM3 with GC (2021)
Angular Grid (max. ang.)         AngularGrid ... 4 (Lebedev-302)
Angular grid pruning method      GridPruning ... 4 (adaptive)
Weight generation scheme         WeightScheme... mBecke (2022)
Basis function cutoff            BFCut       ... 1.0000e-11
Integration weight cutoff        WCut        ... 1.0000e-14
Partially contracted basis set               ... off
Rotationally invariant grid construction     ... off
Angular grids for H and He will be reduced by one unit

Total number of grid points                  ...   309905
Total number of batches                      ...     4881
Average number of points per batch           ...       63
Average number of grid points per atom       ...     4245

--------------------
COSX GRID GENERATION
--------------------

GRIDX 1
-------
General Integration Accuracy     IntAcc      ... 3.816
Radial Grid Type                 RadialGrid  ... OptM3 with GC (2021)
Angular Grid (max. ang.)         AngularGrid ... 1 (Lebedev-50)
Angular grid pruning method      GridPruning ... 4 (adaptive)
Weight generation scheme         WeightScheme... mBecke (2022)
Basis function cutoff            BFCut       ... 1.0000e-11
Integration weight cutoff        WCut        ... 1.0000e-14
Partially contracted basis set               ... on
Rotationally invariant grid construction     ... off
Angular grids for H and He will be reduced by one unit

Total number of grid points                  ...    39420
Total number of batches                      ...      352
Average number of points per batch           ...      111
Average number of grid points per atom       ...      540
UseSFitting                                  ... on

GRIDX 2
-------
General Integration Accuracy     IntAcc      ... 4.020
Radial Grid Type                 RadialGrid  ... OptM3 with GC (2021)
Angular Grid (max. ang.)         AngularGrid ... 2 (Lebedev-110)
Angular grid pruning method      GridPruning ... 4 (adaptive)
Weight generation scheme         WeightScheme... mBecke (2022)
Basis function cutoff            BFCut       ... 1.0000e-11
Integration weight cutoff        WCut        ... 1.0000e-14
Partially contracted basis set               ... on
Rotationally invariant grid construction     ... off
Angular grids for H and He will be reduced by one unit

Total number of grid points                  ...    81400
Total number of batches                      ...      675
Average number of points per batch           ...      120
Average number of grid points per atom       ...     1115
UseSFitting                                  ... on

GRIDX 3
-------
General Integration Accuracy     IntAcc      ... 4.338
Radial Grid Type                 RadialGrid  ... OptM3 with GC (2021)
Angular Grid (max. ang.)         AngularGrid ... 3 (Lebedev-194)
Angular grid pruning method      GridPruning ... 4 (adaptive)
Weight generation scheme         WeightScheme... mBecke (2022)
Basis function cutoff            BFCut       ... 1.0000e-11
Integration weight cutoff        WCut        ... 1.0000e-14
Partially contracted basis set               ... on
Rotationally invariant grid construction     ... off
Angular grids for H and He will be reduced by one unit

Total number of grid points                  ...   176434
Total number of batches                      ...     1420
Average number of points per batch           ...      124
Average number of grid points per atom       ...     2417
UseSFitting                                  ... on
Initializing property integral containers    ... done (  0.0 sec)

SHARK setup successfully completed in   4.3 seconds

Maximum memory used throughout the entire STARTUP-calculation: 95.4 MB


           ************************************************************
           *        Program running with 4 parallel MPI-processes     *
           *              working on a common directory               *
           ************************************************************
-------------------------------------------------------------------------------
                                 ORCA GUESS
                   Start orbitals & Density for SCF / CASSCF
-------------------------------------------------------------------------------

------------
SCF SETTINGS
------------
Hamiltonian:
 Density Functional     Method          .... DFT(GTOs)
 Exchange Functional    Exchange        .... WB97X-V
 Correlation Functional Correlation     .... WB97X-V
 Gradients option       PostSCFGGA      .... off
 Hybrid DFT is turned on
   Fraction HF Exchange ScalHFX         ....  0.167000
   Scaling of DF-GGA-X  ScalDFX         ....  0.000000
   Scaling of DF-GGA-C  ScalDFC         ....  1.000000
   Scaling of DF-LDA-C  ScalLDAC        ....  1.000000
   Perturbative correction              ....  0.000000
 Long-range corrected/Screened/Range-Separated Hybrid DFT is turned on
   Amount of maximum screened exact exchange              ....  0.833000
   Range separation parameter mu (erf(mu*r12)/r12)        ....  0.300000
 RI-approximation to the Coulomb term is turned on
   Number of AuxJ basis functions       .... 1905
   RIJ-COSX (HFX calculated with COS-X)).... on


General Settings:
 Integral files         IntName         .... inpS
 Hartree-Fock type      HFTyp           .... RHF
 Total Charge           Charge          ....    0
 Multiplicity           Mult            ....    1
 Number of Electrons    NEL             ....  220
 Basis Dimension        Dim             ....  626
 Nuclear Repulsion      ENuc            ....   2766.6510208619 Eh

Convergence Acceleration:
 AO-DIIS                CNVDIIS         .... on
   Start iteration      DIISMaxIt       ....    12
   Startup error        DIISStart       ....  0.200000
   # of expansion vecs  DIISMaxEq       ....     5
   Bias factor          DIISBfac        ....   1.050
   Max. coefficient     DIISMaxC        ....  10.000
 MO-DIIS                CNVKDIIS        .... off
 Trust-Rad. Augm. Hess. CNVTRAH         .... auto
   Auto Start mean grad. ratio tolernc. ....  1.125000
   Auto Start start iteration           ....     1
   Auto Start num. interpolation iter.  ....    10
   Max. Number of Micro iterations      ....    24
   Max. Number of Macro iterations      .... Maxiter - #DIIS iter
   Number of Davidson start vectors     ....     2
   Converg. threshold    (grad. norm)   ....   1.000e-04
   Grad. Scal. Fac. for Micro threshold ....   0.100
   Minimum threshold for Micro iter.    ....   1.000e-02
   NR start threshold (gradient norm)   ....   1.000e-04
   Initial trust radius                 ....   0.400
   Minimum AH scaling param. (alpha)    ....   1.000
   Maximum AH scaling param. (alpha)    .... 1000.000
   Quad. conv. algorithm                .... NR
   White noise on init. David. guess    .... on
   Maximum white noise                  ....   0.010
   Pseudo random numbers                .... off
   Inactive MOs                         .... canonical
   Orbital update algorithm             .... Taylor
   Preconditioner                       .... Diag
   Full preconditioner red. dimension   ....   250
 SOSCF                  CNVSOSCF        .... off
 Level Shifting         CNVShift        .... on
   Level shift para.    LevelShift      ....    0.2500
   Turn off err/grad.   ShiftErr        ....    0.0010
 Zerner damping         CNVZerner       .... off
 Static damping         CNVDamp         .... on
   Fraction old density DampFac         ....    0.7000
   Max. Damping (<1)    DampMax         ....    0.9800
   Min. Damping (>=0)   DampMin         ....    0.0000
   Turn off err/grad.   DampErr         ....    0.1000

SCF Procedure:
 Maximum # iterations   MaxIter         ....   125
 SCF integral mode      SCFMode         .... Direct
   Integral package                     .... SHARK and LIBINT hybrid scheme
 Reset frequency        DirectResetFreq ....    20
 Integral Threshold     Thresh          ....  3.000e-11 Eh
 Primitive CutOff       TCut            ....  1.000e-12 Eh

Convergence Tolerance:
 Convergence Check Mode ConvCheckMode   .... Total+1el-Energy
 Convergence forced     ConvForced      .... 0
 Energy Change          TolE            ....  1.000e-07 Eh
 1-El. energy change                    ....  1.000e-04 Eh
 DIIS Error             TolErr          ....  1.000e-07

---------------------
INITIAL GUESS: MOREAD
---------------------
Guess MOs are being read from file: inpS.ges
Input Geometry matches current geometry (good)
Input basis set matches current basis set (good)
Occupation numbers will be reassigned to an Aufbau configuration
MOs were renormalized
MOs were reorthogonalized (Cholesky)
                      ------------------
                      INITIAL GUESS DONE (   0.2 sec)
                      ------------------
             **** ENERGY FILE WAS UPDATED (inpS.en.tmp) ****
Finished Guess after   0.4 sec
Maximum memory used throughout the entire GUESS-calculation: 52.1 MB


           ************************************************************
           *        Program running with 4 parallel MPI-processes     *
           *              working on a common directory               *
           ************************************************************

-------------------------------------------------------------------------------------------
                                      ORCA LEAN-SCF
                              memory conserving SCF solver
-------------------------------------------------------------------------------------------

--------------------
CPCM SOLVATION MODEL
--------------------
CPCM parameters:
  Epsilon                                         ...       4.8030
  Refrac                                          ...       1.4459
  Rsolv                                           ...       1.3000
  Surface type                                    ... GAUSSIAN VDW
  Discretization scheme                           ... Constant charge density
    Threshold for H atoms                         ...       5.0000 (charges/Ang^2)
    Threshold for non-H atoms                     ...       5.0000 (charges/Ang^2)
  Epsilon function type                           ...         CPCM
Solvent:                                          ... CHLOROFORM
Radii:
  Scheme                                          ... Element-dependent radii
  Radius for C  used is    3.8550 Bohr (=   2.0400 Ang.)
  Radius for H  used is    2.4944 Bohr (=   1.3200 Ang.)
  Radius for O  used is    3.4469 Bohr (=   1.8240 Ang.)
Calculating surface                               ...        done! (  0.0s)
Cavity surface points                             ...         5355
Cavity Volume                                     ...    3607.1751
Cavity Surface-area                               ...    1786.4187
Calculating surface distance matrix               ...        done! (  0.2s)
Performing Cholesky decomposition & store         ...        done! (  0.9s)
Overall time for CPCM initialization              ...                 1.1s

----------------------------------------D-I-I-S--------------------------------------------
Iteration    Energy (Eh)           Delta-E    RMSDP     MaxDP     DIISErr   Damp  Time(sec)
-------------------------------------------------------------------------------------------
               ***  Starting incremental Fock matrix formation  ***
    1    -1168.3604215656419001     0.00e+00  3.19e-08  2.12e-06  4.36e-06  0.700  23.3

  HOMO= 109 E= -7.965 eV LUMO=  8.072 eV gap=  16.037 eV
    2    -1168.3604215593377376     6.30e-09  2.75e-08  1.35e-06  2.61e-06  0.700   4.8
                 **** Energy Check signals convergence ****

  HOMO= 109 E= -7.965 eV LUMO=  8.072 eV gap=  16.037 eV

               *****************************************************
               *                     SUCCESS                       *
               *           SCF CONVERGED AFTER   2 CYCLES          *
               *****************************************************

Recomputing exchange energy using gridx3       ... done (   40.733 sec)
Old exchange energy                            :    -56.782917743 Eh
New exchange energy                            :    -56.782912433 Eh
Exchange energy change after final integration :      0.000005309 Eh
Total energy after final integration           :  -1168.360416250 Eh
             **** ENERGY FILE WAS UPDATED (inpS.en.tmp) ****

----------------
TOTAL SCF ENERGY
----------------

Total Energy       :      -1168.36041624993641 Eh          -31792.70324 eV

Components:
Nuclear Repulsion  :       2766.65102086187744 Eh           75284.40166 eV
Electronic Energy  :      -3935.00213931444887 Eh         -107076.85189 eV
One Electron Energy:      -7078.30861859312972 Eh         -192610.56964 eV
Two Electron Energy:       3143.30647927868085 Eh           85533.71775 eV
CPCM Dielectric    :         -0.00930310676638 Eh              -0.25315 eV

Virial components:
Potential Energy   :      -2321.67307224823435 Eh          -63175.93610 eV
Kinetic Energy     :       1153.31265599829794 Eh           31383.23286 eV
Virial Ratio       :          2.01304742488810

DFT components:
N(Alpha)           :      110.000141447890 electrons
N(Beta)            :      110.000141447890 electrons
N(Total)           :      220.000282895780 electrons
E(X)               :     -111.770413486747 Eh       
E(C)               :       -8.952662317940 Eh       
E(XC)              :     -120.723075804686 Eh       

CPCM Solvation Model Properties:
Surface-charge          :         -0.04218980113176
Corrected charge        :         -0.00000000000000
Outlying charge corr.   :          0.00006205954737 Eh               0.00169 eV
Free-energy (cav+disp)  :  This term is not implemented in the current solvation scheme

---------------
SCF CONVERGENCE
---------------

  Last Energy change         ...   -6.3042e-09  Tolerance :   1.0000e-07
  Last MAX-Density change    ...    1.3514e-06  Tolerance :   1.0000e-05
  Last RMS-Density change    ...    2.7456e-08  Tolerance :   1.0000e-06
  Last DIIS Error            ...    2.6059e-06  Tolerance :   1.0000e-07


----------------
ORBITAL ENERGIES
----------------

  NO   OCC          E(Eh)            E(eV) 
   0   2.0000     -19.212370      -522.7952 
   1   2.0000     -10.330376      -281.1038 
   2   2.0000     -10.294304      -280.1223 
   3   2.0000     -10.292128      -280.0630 
   4   2.0000     -10.287787      -279.9449 
   5   2.0000     -10.286823      -279.9187 
   6   2.0000     -10.285473      -279.8819 
   7   2.0000     -10.284219      -279.8478 
   8   2.0000     -10.283320      -279.8234 
   9   2.0000     -10.283006      -279.8148 
  10   2.0000     -10.282616      -279.8042 
  11   2.0000     -10.282330      -279.7964 
  12   2.0000     -10.279350      -279.7153 
  13   2.0000     -10.278933      -279.7040 
  14   2.0000     -10.278142      -279.6825 
  15   2.0000     -10.277910      -279.6762 
  16   2.0000     -10.277325      -279.6602 
  17   2.0000     -10.276996      -279.6513 
  18   2.0000     -10.273061      -279.5442 
  19   2.0000     -10.272536      -279.5299 
  20   2.0000     -10.272101      -279.5181 
  21   2.0000     -10.272003      -279.5154 
  22   2.0000     -10.271512      -279.5021 
  23   2.0000     -10.271495      -279.5016 
  24   2.0000     -10.268426      -279.4181 
  25   2.0000     -10.268310      -279.4149 
  26   2.0000     -10.268237      -279.4129 
  27   2.0000     -10.268205      -279.4121 
  28   2.0000     -10.267664      -279.3973 
  29   2.0000      -1.130851       -30.7720 
  30   2.0000      -0.999014       -27.1845 
  31   2.0000      -0.977414       -26.5968 
  32   2.0000      -0.957566       -26.0567 
  33   2.0000      -0.943137       -25.6641 
  34   2.0000      -0.918007       -24.9802 
  35   2.0000      -0.911475       -24.8025 
  36   2.0000      -0.890366       -24.2281 
  37   2.0000      -0.888064       -24.1655 
  38   2.0000      -0.873165       -23.7600 
  39   2.0000      -0.854025       -23.2392 
  40   2.0000      -0.835362       -22.7313 
  41   2.0000      -0.826191       -22.4818 
  42   2.0000      -0.810366       -22.0512 
  43   2.0000      -0.799215       -21.7478 
  44   2.0000      -0.797381       -21.6978 
  45   2.0000      -0.792012       -21.5518 
  46   2.0000      -0.762372       -20.7452 
  47   2.0000      -0.758510       -20.6401 
  48   2.0000      -0.727391       -19.7933 
  49   2.0000      -0.713212       -19.4075 
  50   2.0000      -0.705472       -19.1969 
  51   2.0000      -0.698789       -19.0150 
  52   2.0000      -0.689968       -18.7750 
  53   2.0000      -0.676338       -18.4041 
  54   2.0000      -0.648919       -17.6580 
  55   2.0000      -0.632287       -17.2054 
  56   2.0000      -0.623924       -16.9778 
  57   2.0000      -0.619968       -16.8702 
  58   2.0000      -0.607556       -16.5324 
  59   2.0000      -0.605130       -16.4664 
  60   2.0000      -0.596424       -16.2295 
  61   2.0000      -0.586272       -15.9533 
  62   2.0000      -0.570346       -15.5199 
  63   2.0000      -0.567911       -15.4536 
  64   2.0000      -0.562276       -15.3003 
  65   2.0000      -0.556288       -15.1374 
  66   2.0000      -0.554375       -15.0853 
  67   2.0000      -0.553192       -15.0531 
  68   2.0000      -0.549865       -14.9626 
  69   2.0000      -0.546017       -14.8579 
  70   2.0000      -0.538603       -14.6561 
  71   2.0000      -0.534650       -14.5486 
  72   2.0000      -0.527048       -14.3417 
  73   2.0000      -0.523489       -14.2449 
  74   2.0000      -0.518935       -14.1209 
  75   2.0000      -0.512282       -13.9399 
  76   2.0000      -0.507721       -13.8158 
  77   2.0000      -0.502518       -13.6742 
  78   2.0000      -0.500709       -13.6250 
  79   2.0000      -0.492667       -13.4061 
  80   2.0000      -0.488960       -13.3053 
  81   2.0000      -0.486688       -13.2434 
  82   2.0000      -0.484145       -13.1743 
  83   2.0000      -0.476846       -12.9756 
  84   2.0000      -0.468689       -12.7537 
  85   2.0000      -0.464077       -12.6282 
  86   2.0000      -0.463355       -12.6085 
  87   2.0000      -0.461261       -12.5516 
  88   2.0000      -0.454951       -12.3798 
  89   2.0000      -0.453697       -12.3457 
  90   2.0000      -0.447688       -12.1822 
  91   2.0000      -0.447612       -12.1801 
  92   2.0000      -0.437747       -11.9117 
  93   2.0000      -0.434737       -11.8298 
  94   2.0000      -0.429217       -11.6796 
  95   2.0000      -0.426317       -11.6007 
  96   2.0000      -0.422806       -11.5051 
  97   2.0000      -0.419162       -11.4060 
  98   2.0000      -0.417632       -11.3643 
  99   2.0000      -0.416098       -11.3226 
 100   2.0000      -0.410117       -11.1598 
 101   2.0000      -0.408886       -11.1264 
 102   2.0000      -0.405090       -11.0230 
 103   2.0000      -0.404044       -10.9946 
 104   2.0000      -0.392918       -10.6918 
 105   2.0000      -0.382570       -10.4103 
 106   2.0000      -0.372838       -10.1454 
 107   2.0000      -0.355574        -9.6757 
 108   2.0000      -0.335696        -9.1348 
 109   2.0000      -0.292700        -7.9648 
 110   0.0000       0.046653         1.2695 
 111   0.0000       0.099323         2.7027 
 112   0.0000       0.111368         3.0305 
 113   0.0000       0.132077         3.5940 
 114   0.0000       0.143969         3.9176 
 115   0.0000       0.145056         3.9472 
 116   0.0000       0.151108         4.1118 
 117   0.0000       0.153312         4.1718 
 118   0.0000       0.161091         4.3835 
 119   0.0000       0.164707         4.4819 
 120   0.0000       0.167026         4.5450 
*Only the first 10 virtual orbitals were printed.

                    ********************************
                    * MULLIKEN POPULATION ANALYSIS *
                    ********************************

-----------------------
MULLIKEN ATOMIC CHARGES
-----------------------
   0 C :   -0.174170
   1 C :    0.141660
   2 C :    0.068942
   3 H :    0.017412
   4 H :    0.030538
   5 C :   -0.171823
   6 C :    0.096376
   7 C :    0.023940
   8 H :    0.013608
   9 H :    0.027180
  10 H :    0.019852
  11 H :    0.022709
  12 O :   -0.359493
  13 H :    0.018161
  14 C :   -0.007498
  15 C :   -0.045242
  16 H :    0.034955
  17 H :    0.029307
  18 C :   -0.063520
  19 H :   -0.003214
  20 C :   -0.112874
  21 H :    0.003062
  22 C :    0.114899
  23 C :   -0.002341
  24 H :    0.014409
  25 H :    0.017662
  26 C :    0.106690
  27 H :    0.013214
  28 H :    0.015494
  29 C :   -0.406006
  30 H :    0.008738
  31 H :   -0.002031
  32 C :   -0.046501
  33 H :    0.012260
  34 C :    0.126118
  35 H :    0.179056
  36 C :    0.043534
  37 H :    0.007984
  38 H :    0.015286
  39 C :   -0.051050
  40 H :    0.014578
  41 H :    0.011353
  42 H :   -0.010688
  43 C :   -0.003828
  44 C :    0.091449
  45 H :    0.019454
  46 H :    0.024429
  47 H :    0.019122
  48 H :    0.002304
  49 C :    0.059979
  50 C :   -0.083250
  51 C :   -0.092055
  52 H :    0.013289
  53 H :    0.015597
  54 C :   -0.039466
  55 C :    0.040948
  56 C :   -0.177837
  57 H :    0.004419
  58 H :    0.006526
  59 C :    0.027314
  60 C :    0.033105
  61 H :    0.021724
  62 H :    0.024179
  63 H :    0.020649
  64 H :    0.025067
  65 H :    0.013386
  66 H :    0.018064
  67 H :    0.024269
  68 H :    0.018391
  69 H :    0.012840
  70 H :    0.028562
  71 H :    0.019026
  72 H :    0.019815
Sum of atomic charges:   -0.0000000

--------------------------------
MULLIKEN REDUCED ORBITAL CHARGES
--------------------------------
  0 C s       :     3.102393  s :     3.102393
      pz      :     1.015929  p :     3.028729
      px      :     1.003403
      py      :     1.009397
      dz2     :     0.004955  d :     0.043048
      dxz     :     0.006686
      dyz     :     0.005775
      dx2y2   :     0.014034
      dxy     :     0.011599

  1 C s       :     2.939889  s :     2.939889
      pz      :     0.988332  p :     2.884054
      px      :     0.931042
      py      :     0.964680
      dz2     :     0.007565  d :     0.034397
      dxz     :     0.006856
      dyz     :     0.004179
      dx2y2   :     0.009879
      dxy     :     0.005917

  2 C s       :     3.084715  s :     3.084715
      pz      :     0.740816  p :     2.775687
      px      :     1.042424
      py      :     0.992447
      dz2     :     0.022638  d :     0.070656
      dxz     :     0.011408
      dyz     :     0.017821
      dx2y2   :     0.011692
      dxy     :     0.007097

  3 H s       :     0.959936  s :     0.959936
      pz      :     0.005182  p :     0.022652
      px      :     0.003709
      py      :     0.013761

  4 H s       :     0.946152  s :     0.946152
      pz      :     0.014073  p :     0.023310
      px      :     0.004859
      py      :     0.004377

  5 C s       :     3.109245  s :     3.109245
      pz      :     0.976425  p :     3.017750
      px      :     0.985066
      py      :     1.056258
      dz2     :     0.009969  d :     0.044827
      dxz     :     0.005466
      dyz     :     0.009443
      dx2y2   :     0.010552
      dxy     :     0.009397

  6 C s       :     2.954666  s :     2.954666
      pz      :     1.000331  p :     2.913502
      px      :     0.949182
      py      :     0.963989
      dz2     :     0.008367  d :     0.035456
      dxz     :     0.006485
      dyz     :     0.004667
      dx2y2   :     0.008855
      dxy     :     0.007083

  7 C s       :     3.002302  s :     3.002302
      pz      :     0.985368  p :     2.938971
      px      :     0.981060
      py      :     0.972542
      dz2     :     0.007126  d :     0.034788
      dxz     :     0.006494
      dyz     :     0.004825
      dx2y2   :     0.008644
      dxy     :     0.007699

  8 H s       :     0.963561  s :     0.963561
      pz      :     0.005857  p :     0.022831
      px      :     0.003760
      py      :     0.013213

  9 H s       :     0.949430  s :     0.949430
      pz      :     0.014166  p :     0.023390
      px      :     0.004814
      py      :     0.004409

 10 H s       :     0.957320  s :     0.957320
      pz      :     0.013791  p :     0.022828
      px      :     0.004930
      py      :     0.004107

 11 H s       :     0.954661  s :     0.954661
      pz      :     0.008157  p :     0.022631
      px      :     0.006924
      py      :     0.007549

 12 O s       :     3.713613  s :     3.713613
      pz      :     1.417115  p :     4.633747
      px      :     1.329719
      py      :     1.886913
      dz2     :     0.005417  d :     0.012133
      dxz     :     0.001390
      dyz     :     0.001636
      dx2y2   :     0.003157
      dxy     :     0.000531

 13 H s       :     0.961492  s :     0.961492
      pz      :     0.001778  p :     0.020347
      px      :     0.014277
      py      :     0.004292

 14 C s       :     3.194295  s :     3.194295
      pz      :     0.993002  p :     2.776837
      px      :     0.871138
      py      :     0.912697
      dz2     :     0.003798  d :     0.036365
      dxz     :     0.007726
      dyz     :     0.003228
      dx2y2   :     0.011112
      dxy     :     0.010501

 15 C s       :     3.123026  s :     3.123026
      pz      :     1.005700  p :     2.895948
      px      :     0.985623
      py      :     0.904624
      dz2     :     0.005682  d :     0.026268
      dxz     :     0.004094
      dyz     :     0.005049
      dx2y2   :     0.006095
      dxy     :     0.005348

 16 H s       :     0.940502  s :     0.940502
      pz      :     0.006985  p :     0.024543
      px      :     0.008080
      py      :     0.009478

 17 H s       :     0.946074  s :     0.946074
      pz      :     0.004903  p :     0.024619
      px      :     0.004452
      py      :     0.015265

 18 C s       :     3.201244  s :     3.201244
      pz      :     1.034213  p :     2.827098
      px      :     0.878210
      py      :     0.914675
      dz2     :     0.003467  d :     0.035179
      dxz     :     0.006784
      dyz     :     0.003109
      dx2y2   :     0.012039
      dxy     :     0.009779

 19 H s       :     0.978888  s :     0.978888
      pz      :     0.004890  p :     0.024325
      px      :     0.004800
      py      :     0.014636

 20 C s       :     3.099501  s :     3.099501
      pz      :     0.956829  p :     2.969256
      px      :     0.988279
      py      :     1.024147
      dz2     :     0.004503  d :     0.044117
      dxz     :     0.007116
      dyz     :     0.006775
      dx2y2   :     0.014116
      dxy     :     0.011606

 21 H s       :     0.972334  s :     0.972334
      pz      :     0.004790  p :     0.024604
      px      :     0.004402
      py      :     0.015412

 22 C s       :     2.924895  s :     2.924895
      pz      :     1.005295  p :     2.924690
      px      :     0.975954
      py      :     0.943441
      dz2     :     0.009984  d :     0.035516
      dxz     :     0.003770
      dyz     :     0.005451
      dx2y2   :     0.009773
      dxy     :     0.006537

 23 C s       :     3.001627  s :     3.001627
      pz      :     1.008738  p :     2.964254
      px      :     0.965636
      py      :     0.989879
      dz2     :     0.009769  d :     0.036460
      dxz     :     0.007111
      dyz     :     0.003411
      dx2y2   :     0.010008
      dxy     :     0.006161

 24 H s       :     0.962384  s :     0.962384
      pz      :     0.004805  p :     0.023207
      px      :     0.013662
      py      :     0.004740

 25 H s       :     0.959049  s :     0.959049
      pz      :     0.014108  p :     0.023289
      px      :     0.004787
      py      :     0.004393

 26 C s       :     2.970082  s :     2.970082
      pz      :     0.970457  p :     2.887910
      px      :     0.974644
      py      :     0.942809
      dz2     :     0.007490  d :     0.035318
      dxz     :     0.006211
      dyz     :     0.005402
      dx2y2   :     0.008434
      dxy     :     0.007781

 27 H s       :     0.963919  s :     0.963919
      pz      :     0.013948  p :     0.022867
      px      :     0.004368
      py      :     0.004552

 28 H s       :     0.961857  s :     0.961857
      pz      :     0.005106  p :     0.022649
      px      :     0.003798
      py      :     0.013745

 29 C s       :     3.254013  s :     3.254013
      pz      :     1.051385  p :     3.101056
      px      :     0.998817
      py      :     1.050854
      dz2     :     0.012099  d :     0.050936
      dxz     :     0.009960
      dyz     :     0.009380
      dx2y2   :     0.010446
      dxy     :     0.009052

 30 H s       :     0.968183  s :     0.968183
      pz      :     0.008400  p :     0.023079
      px      :     0.007728
      py      :     0.006951

 31 H s       :     0.979482  s :     0.979482
      pz      :     0.013542  p :     0.022549
      px      :     0.004866
      py      :     0.004141

 32 C s       :     3.034963  s :     3.034963
      pz      :     0.991803  p :     2.967782
      px      :     0.947653
      py      :     1.028326
      dz2     :     0.009263  d :     0.043755
      dxz     :     0.006889
      dyz     :     0.007246
      dx2y2   :     0.011120
      dxy     :     0.009237

 33 H s       :     0.966455  s :     0.966455
      pz      :     0.012969  p :     0.021286
      px      :     0.004152
      py      :     0.004164

 34 C s       :     2.891908  s :     2.891908
      pz      :     0.990009  p :     2.947124
      px      :     0.976621
      py      :     0.980494
      dz2     :     0.005441  d :     0.034850
      dxz     :     0.005935
      dyz     :     0.008183
      dx2y2   :     0.008986
      dxy     :     0.006305

 35 H s       :     0.752165  s :     0.752165
[...]
 Total          141.818          174.453          191.146  iso=     169.139

 Orientation: 
  X           0.2624747   -0.5738641    0.7757493
  Y          -0.0498804   -0.8109306   -0.5830125
  Z           0.9636488    0.1143313   -0.2414734

 --------------
 Nucleus  39C :
 --------------

Diamagnetic contribution to the shielding tensor (ppm) : 
           263.903          3.047        -6.858
             4.083        260.408         5.787
            -6.440          5.425       263.635

Paramagnetic contribution to the shielding tensor (ppm): 
           -98.503          0.084         8.166
             3.504       -129.488        -1.615
            11.695         -4.777      -137.968

Total shielding tensor (ppm): 
           165.400          3.131         1.308
             7.587        130.920         4.172
             5.254          0.648       125.667


 Diagonalized sT*s matrix:
 
 sDSO           260.041          264.003          263.903  iso=     262.649
 sPSO          -135.347         -133.239          -97.374  iso=    -121.987
        ---------------  ---------------  ---------------
 Total          124.694          130.764          166.529  iso=     140.662

 Orientation: 
  X          -0.0277751   -0.1654321   -0.9858300
  Y          -0.3446384    0.9273274   -0.1459048
  Z           0.9383245    0.3357023   -0.0827709

 --------------
 Nucleus  43C :
 --------------

Diamagnetic contribution to the shielding tensor (ppm) : 
           257.396         -1.628        -5.758
            -2.874        248.931        11.353
            -6.133          3.551       251.576

Paramagnetic contribution to the shielding tensor (ppm): 
           -93.536         -1.829        -2.226
             4.682        -91.444        -9.080
            -1.546          1.220       -90.330

Total shielding tensor (ppm): 
           163.860         -3.457        -7.984
             1.808        157.487         2.274
            -7.679          4.771       161.246


 Diagonalized sT*s matrix:
 
 sDSO           243.889          251.013          263.001  iso=     252.634
 sPSO           -90.546          -92.886          -91.877  iso=     -91.770
        ---------------  ---------------  ---------------
 Total          153.342          158.127          171.124  iso=     160.865

 Orientation: 
  X          -0.4860154    0.4869455   -0.7257225
  Y           0.5058238    0.8339045    0.2207839
  Z          -0.7126930    0.2597833    0.6515991

 --------------
 Nucleus  44C :
 --------------

Diamagnetic contribution to the shielding tensor (ppm) : 
           249.276          0.827         1.753
            -0.261        254.391         0.572
            -0.073          4.020       273.096

Paramagnetic contribution to the shielding tensor (ppm): 
           -69.972         -5.129        -2.191
            -2.432        -74.518        -2.446
            -0.127         -6.280       -79.275

Total shielding tensor (ppm): 
           179.304         -4.303        -0.438
            -2.693        179.873        -1.874
            -0.201         -2.260       193.822


 Diagonalized sT*s matrix:
 
 sDSO           252.566          252.159          272.039  iso=     258.921
 sPSO           -76.638          -69.212          -77.915  iso=     -74.588
        ---------------  ---------------  ---------------
 Total          175.928          182.947          194.124  iso=     184.333

 Orientation: 
  X           0.7221566    0.6916009    0.0133440
  Y           0.6855398   -0.7129865   -0.1472595
  Z           0.0923307   -0.1154923    0.9890079

 --------------
 Nucleus  49C :
 --------------

Diamagnetic contribution to the shielding tensor (ppm) : 
           243.123         -5.544        -1.827
           -16.409        256.826        10.911
            -7.628          6.086       250.712

Paramagnetic contribution to the shielding tensor (ppm): 
           -63.047          2.905        -3.641
            12.840        -73.199        -6.595
             0.531         -3.050       -75.534

Total shielding tensor (ppm): 
           180.076         -2.638        -5.468
            -3.569        183.628         4.316
            -7.097          3.036       175.178


 Diagonalized sT*s matrix:
 
 sDSO           244.176          239.167          267.318  iso=     250.220
 sPSO           -73.438          -59.717          -78.625  iso=     -70.593
        ---------------  ---------------  ---------------
 Total          170.738          179.450          188.693  iso=     179.627

 Orientation: 
  X           0.5268403   -0.6238349    0.5772949
  Y          -0.1136141   -0.7247906   -0.6795369
  Z           0.8423367    0.2924186   -0.4527253

 --------------
 Nucleus  50C :
 --------------

Diamagnetic contribution to the shielding tensor (ppm) : 
           273.051         -1.292        10.831
             7.035        266.179        -4.975
            13.837         -3.291       254.893

Paramagnetic contribution to the shielding tensor (ppm): 
          -190.339        -21.237       -61.394
           -20.917       -302.440       -21.375
           -52.571        -22.455      -110.597

Total shielding tensor (ppm): 
            82.712        -22.529       -50.563
           -13.882        -36.261       -26.350
           -38.734        -25.746       144.296


 Diagonalized sT*s matrix:
 
 sDSO           268.790          276.106          249.227  iso=     264.708
 sPSO          -309.968         -212.777          -80.632  iso=    -201.125
        ---------------  ---------------  ---------------
 Total          -41.177           63.329          168.596  iso=      63.583

 Orientation: 
  X          -0.3660240    0.8285631   -0.4236857
  Y          -0.9038046   -0.4249798   -0.0502929
  Z          -0.2217287    0.3645206    0.9044120

 --------------
 Nucleus  51C :
 --------------

Diamagnetic contribution to the shielding tensor (ppm) : 
           269.377         -0.731        13.453
           -11.274        276.671        11.917
            16.826          7.825       247.099

Paramagnetic contribution to the shielding tensor (ppm): 
          -186.225        -22.374       -61.710
            -1.523       -311.127       -37.749
           -59.707        -33.816      -100.287

Total shielding tensor (ppm): 
            83.152        -23.105       -48.257
           -12.796        -34.456       -25.832
           -42.881        -25.991       146.812


 Diagonalized sT*s matrix:
 
 sDSO           276.814          278.014          238.318  iso=     264.382
 sPSO          -315.778         -215.087          -66.774  iso=    -199.213
        ---------------  ---------------  ---------------
 Total          -38.963           62.928          171.545  iso=      65.170

 Orientation: 
  X          -0.3742417    0.8189818   -0.4349851
  Y          -0.8970048   -0.4386847   -0.0542045
  Z          -0.2352138    0.3698981    0.8988047

 --------------
 Nucleus  54C :
 --------------

Diamagnetic contribution to the shielding tensor (ppm) : 
           254.173          1.999        -3.843
             6.446        263.065         7.910
             4.089          8.797       243.810

Paramagnetic contribution to the shielding tensor (ppm): 
           -88.818         -1.232        -0.171
            -4.789       -117.205        -9.557
           -12.171         -7.305       -82.056

Total shielding tensor (ppm): 
           165.355          0.768        -4.015
             1.657        145.860        -1.647
            -8.083          1.492       161.753


 Diagonalized sT*s matrix:
 
 sDSO           262.021          248.693          250.334  iso=     253.683
 sPSO          -116.242          -91.412          -80.426  iso=     -96.027
        ---------------  ---------------  ---------------
 Total          145.779          157.281          169.907  iso=     157.656

 Orientation: 
  X           0.0661482    0.5884590   -0.8058166
  Y          -0.9974683    0.0601236   -0.0379745
  Z           0.0261022    0.8062885    0.5909463

 --------------
 Nucleus  55C :
 --------------

Diamagnetic contribution to the shielding tensor (ppm) : 
           244.324         -1.297        -2.468
            19.899        263.480         3.331
            11.547          5.579       248.788

Paramagnetic contribution to the shielding tensor (ppm): 
           -65.206         -2.292        -2.357
           -25.186        -77.585         2.078
           -19.241         -2.964       -73.761

Total shielding tensor (ppm): 
           179.118         -3.589        -4.825
            -5.287        185.895         5.409
            -7.694          2.615       175.027


 Diagonalized sT*s matrix:
 
 sDSO           250.691          255.922          249.978  iso=     252.197
 sPSO           -80.236          -77.178          -59.137  iso=     -72.184
        ---------------  ---------------  ---------------
 Total          170.455          178.744          190.841  iso=     180.013

 Orientation: 
  X           0.5647207   -0.6526578    0.5051023
  Y          -0.0525102   -0.6392114   -0.7672363
  Z           0.8236099    0.4067512   -0.3952471

 --------------
 Nucleus  56C :
 --------------

Diamagnetic contribution to the shielding tensor (ppm) : 
           253.074          0.776        -4.285
            -1.152        234.607         6.514
            -1.069         10.031       227.446

Paramagnetic contribution to the shielding tensor (ppm): 
           -82.046         -4.419        -3.170
            -2.067        -82.329        -9.807
            -7.634        -12.144       -66.183

Total shielding tensor (ppm): 
           171.028         -3.644        -7.456
            -3.219        152.278        -3.293
            -8.703         -2.113       161.263


 Diagonalized sT*s matrix:
 
 sDSO           240.132          224.957          250.038  iso=     238.376
 sPSO           -90.326          -65.901          -74.331  iso=     -76.853
        ---------------  ---------------  ---------------
 Total          149.806          159.056          175.707  iso=     161.523

 Orientation: 
  X          -0.2960019    0.3784474   -0.8770179
  Y          -0.8621909   -0.5010315    0.0747945
  Z          -0.4111079    0.7782962    0.4746003

 --------------
 Nucleus  59C :
 --------------

Diamagnetic contribution to the shielding tensor (ppm) : 
           244.606         -5.153        -2.097
           -30.339        244.458         0.225
            -5.820          5.120       226.627

Paramagnetic contribution to the shielding tensor (ppm): 
           -73.831         -2.112        -1.456
            27.463        -54.747         9.656
             1.969          0.180       -60.186

Total shielding tensor (ppm): 
           170.775         -7.265        -3.553
            -2.876        189.711         9.882
            -3.851          5.300       166.441


 Diagonalized sT*s matrix:
 
 sDSO           228.329          234.335          253.028  iso=     238.564
 sPSO           -64.870          -64.382          -59.512  iso=     -62.921
        ---------------  ---------------  ---------------
 Total          163.459          169.953          193.515  iso=     175.642

 Orientation: 
  X           0.3224697   -0.9136683    0.2474338
  Y          -0.2123397   -0.3245582   -0.9217233
  Z           0.9224560    0.2446879   -0.2986683

 --------------
 Nucleus  60C :
 --------------

Diamagnetic contribution to the shielding tensor (ppm) : 
           251.073          4.751         4.733
            18.172        219.948         4.367
            14.655         -1.843       219.275

Paramagnetic contribution to the shielding tensor (ppm): 
           -65.619          8.006         2.273
           -10.210        -50.223         1.848
            -6.984         12.278       -49.045

Total shielding tensor (ppm): 
           185.454         12.757         7.006
             7.962        169.725         6.215
             7.672         10.434       170.230


 Diagonalized sT*s matrix:
 
 sDSO           218.327          217.471          254.497  iso=     230.098
 sPSO           -57.036          -48.317          -59.534  iso=     -54.962
        ---------------  ---------------  ---------------
 Total          161.291          169.154          194.963  iso=     175.136

 Orientation: 
  X           0.1572754    0.5841437    0.7962667
  Y          -0.7774736   -0.4239315    0.4645609
  Z           0.6089328   -0.6921404    0.3874823



--------------------------------
CHEMICAL SHIELDING SUMMARY (ppm)
--------------------------------


  Nucleus  Element    Isotropic     Anisotropy
  -------  -------  ------------   ------------
      0       C           61.290        151.922 
      1       C          154.457         12.087 
      2       C          132.290         50.712 
      5       C           50.655        177.656 
      6       C          167.856         31.985 
      7       C          164.846         17.264 
     14       C           72.027        133.220 
     15       C           84.060        119.241 
     18       C           80.222        133.938 
     20       C           52.064        175.595 
     22       C          169.328          6.878 
     23       C          174.321         13.182 
     26       C          158.743         23.964 
     29       C          153.891         17.733 
     32       C          143.268         27.561 
     34       C          174.675         23.744 
     36       C          169.139         33.011 
     39       C          140.662         38.800 
     43       C          160.865         15.389 
     44       C          184.333         14.686 
     49       C          179.627         13.599 
     50       C           63.583        157.520 
     51       C           65.170        159.562 
     54       C          157.656         18.377 
     55       C          180.013         16.241 
     56       C          161.523         21.276 
     59       C          175.642         26.809 
     60       C          175.136         29.741 


NMR shielding tensor and spin rotation calculation done in   1.0 sec 

Maximum memory used throughout the entire PROP-calculation: 51.5 MB

--------------------------------
SUGGESTED CITATIONS FOR THIS RUN
--------------------------------

Below you find a list of papers that are relevant to this ORCA run
We neither can nor want to force you to cite these papers, but we appreciate if you do
You receive ORCA, which is the product of decades of hard work by many enthusiastic individuals, for free
The only thing we kindly ask in return is that you cite our papers,
We deeply appreciate it, if you show your appreciation for ORCA by not just citing the generic ORCA reference.

Please note that relegating all ORCA citations to the supporting information does *not* help us.
SI sections are not indexed - citations you put there will not count into any citation statistics
But we need these citations in order to attract the funding resources that allow us to do what we are doing

Therefore, if you are a happy ORCA user, please consider citing a few of the papers listed below in the main body of your paper

In addition to the list printed below, the program has created the file inpS.bibtex that contains the list in bibtex format
You can import this file easily into all common literature databanks and citation aid programs


List of essential papers. We consider these as the minimum necessary citations

  1. Neese,F.
     Software update: the ORCA program system, version 5.0
     WIRES Comput. Molec. Sci., 2022 12(1)e1606
     doi.org/10.1002/wcms.1606

List of papers to cite with high priority. The work reported in these papers was absolutely
necessary for this run to complete.
Our perspective: the developers of density functionals and basis sets usually get cited in chemistry papers
Good! But without the algorithms to do something with them, the functionals or basis sets would not do anything.
Hence, in our opinion, the algorithm design and method developments papers are equally worthy of getting cited

  1. Neese,F.
     An improvement of the resolution of the identity approximation for the formation of the Coulomb matrix
     J. Comp. Chem., 2003 24(14)1740-1747
     doi.org/10.1002/jcc.10318
  2. Neese,F.; Wennmohs,F.; Hansen,A.; Becker,U.
     Efficient, approximate and parallel Hartree-Fock and hybrid DFT calculations. A 'chain-of-spheres' algorithm for the Hartree-Fock exchange
     Chem. Phys., 2009 356(1-3)98-109
     doi.org/10.1016/j.chemphys.2008.10.036
  3. Stoychev,G.L.; Auer,A.A.; Izsak,R.; Neese,F.
     Self-Consistent Field Calculation of Nuclear Magnetic Resonance Chemical Shielding Constants Using Gauge-Including Atomic Orbitals and Approximate Two-Electron Integrals
     J. Chem. Theory Comput., 2018 14(2)619-637
     doi.org/10.1021/acs.jctc.7b01006
  4. Garcia-Rates,M.; Neese,F.
     Effect of the Solute Cavity on the Solvation Energy and its Derivatives within the Framework of the Gaussian Charge Scheme
     J. Comput. Chem., 2020 41 922-939
     doi.org/10.1002/jcc.26139
  5. Helmich-Paris,B.; de Souza,B.; Neese,F.; Izsák,R.
     An improved chain of spheres for exchange algorithm
     J. Chem. Phys., 2021 155 104109
     doi.org/doi: 10.1063/5.0058766.
  6. Neese,F.
     The SHARK Integral Generation and Digestion System
     J. Comp. Chem., 2022  1-16
     doi.org/10.1002/jcc.26942
  7. Caldeweyher,E.; Bannwarth,C.; Grimme,S.
     Extension of the D3 dispersion coefficient model
     J. Chem. Phys., 2017 147 034112-XXXX
     doi.org/10.1063/1.4993215
  8. Caldeweyher,E.; Ehlert,S.; Hansen,A.; Neugebauer,H.; Spicher,S.; Bannwarth,C.; Grimme,S.
     A generally applicable atomic-charge dependent London dispersion correction
     J. Chem. Phys., 2019 150 154122-XXXX
     doi.org/10.1063/1.5090222
  9. Caldeweyher,E.; Mewes,J.; Ehlert,S.; Grimme,S.
     Extension and evaluation of the D4 London-dispersion model for periodic systems
     Phys. Chem. Chem. Phys., 2020 22(16)8499-8512
     doi.org/10.1039/D0CP00502A

List of suggested additional citations. These are papers that are important in the 'surrounding' of 
of this run, or papers that preceded the highly important papers. If you like your results we are grateful for a citation.

  1. Izsak,R.; Neese,F.
     An overlap fitted chain of spheres exchange method
     J. Chem. Phys., 2011 135 144105
     doi.org/10.1063/1.3646921
  2. Izsak,R.; Hansen,A.; Neese,F.
     The resolution of identity and chain of spheres approximations for the LPNO-CCSD singles Fock term
     Molec. Phys., 2012 110 2413-2417
     doi.org/10.1080/00268976.2012.687466
  3. Neese,F.
     The ORCA program system
     WIRES Comput. Molec. Sci., 2012 2(1)73-78
     doi.org/10.1002/wcms.81
  4. Izsak,R.; Neese,F.; Klopper,W.
     Robust fitting techniques in the chain of spheres approximation to the Fock exchange: The role of the complementary space
     J. Chem. Phys., 2013 139 
     doi.org/10.1063/1.4819264
  5. Neese,F.
     Software update: the ORCA program system, version 4.0
     WIRES Comput. Molec. Sci., 2018 8(1)1-6
     doi.org/10.1002/wcms.1327
  6. Neese,F.; Wennmohs,F.; Becker,U.; Riplinger,C.
     The ORCA quantum chemistry program package
     J. Chem. Phys., 2020 152 Art. No. L224108
     doi.org/10.1063/5.0004608

Timings for individual modules:

Sum of individual times          ...      176.117 sec (=   2.935 min)
Startup calculation              ...        4.474 sec (=   0.075 min)   2.5 %
SCF iterations                   ...       71.379 sec (=   1.190 min)  40.5 %
Property integrals               ...       60.202 sec (=   1.003 min)  34.2 %
SCF Response                     ...       38.763 sec (=   0.646 min)  22.0 %
Property calculations            ...        1.299 sec (=   0.022 min)   0.7 %
                             ****ORCA TERMINATED NORMALLY****
TOTAL RUN TIME: 0 days 0 hours 2 minutes 56 seconds 404 msec
