
                                 *****************
                                 * O   R   C   A *
                                 *****************

                                            #,                                       
                                            ###                                      
                                            ####                                     
                                            #####                                    
                                            ######                                   
                                           ########,                                 
                                     ,,################,,,,,                         
                               ,,#################################,,                 
                          ,,##########################################,,             
                       ,#########################################, ''#####,          
                    ,#############################################,,   '####,        
                  ,##################################################,,,,####,       
                ,###########''''           ''''###############################       
              ,#####''   ,,,,##########,,,,          '''####'''          '####       
            ,##' ,,,,###########################,,,                        '##       
           ' ,,###''''                  '''############,,,                           
         ,,##''                                '''############,,,,        ,,,,,,###''
      ,#''                                            '''#######################'''  
     '                                                          ''''####''''         
             ,#######,   #######,   ,#######,      ##                                
            ,#'     '#,  ##    ##  ,#'     '#,    #''#        ,####,   ,####,        
            ##       ##  ##   ,#'  ##            #'  '#       #'       #'  '#        
            ##       ##  #######   ##           ,######,      #####,   #    #        
            '#,     ,#'  ##    ##  '#,     ,#' ,#      #,     #,   #   #,  ,#        
             '#######'   ##     ##  '#######'  #'      '#     '####' # '####'        



                #########################################################
                #                        -***-                          #
                #          Department of theory and spectroscopy        #
                #                                                       #
                #                      Frank Neese                      #
                #                                                       #
                #     Directorship, Architecture, Infrastructure        #
                #                    SHARK, DRIVERS                     #
                #        Core code/Algorithms in most modules           #
                #                                                       #
                #        Max Planck Institute fuer Kohlenforschung      #
                #                Kaiser Wilhelm Platz 1                 #
                #                 D-45470 Muelheim/Ruhr                 #
                #                      Germany                          #
                #                                                       #
                #                  All rights reserved                  #
                #                        -***-                          #
                #########################################################


                         Program Version 6.0.0  -   RELEASE  -


 With contributions from (in alphabetic order):
   Daniel Aravena         : Magnetic Suceptibility
   Michael Atanasov       : Ab Initio Ligand Field Theory (pilot matlab implementation)
   Alexander A. Auer      : GIAO ZORA, VPT2 properties, NMR spectrum
   Ute Becker             : All parallelization in ORCA, NUMFREQ, NUMCALC
   Giovanni Bistoni       : ED, misc. LED, open-shell LED, HFLD
   Martin Brehm           : Molecular dynamics
   Dmytro Bykov           : pre 5.0 version of the SCF Hessian
   Marcos Casanova-Páez   : Triplet and SCS-CIS(D). UHF-(DLPNO)-IP/EA/STEOM-CCSD. UHF-CVS-IP/STEOM-CCSD
   Vijay G. Chilkuri      : MRCI spin determinant printing, contributions to CSF-ICE
   Pauline Colinet        : FMM embedding
   Dipayan Datta          : RHF DLPNO-CCSD density
   Achintya Kumar Dutta   : EOM-CC, STEOM-CC
   Nicolas Foglia         : Exact transition moments, OPA infrastructure, MCD improvements
   Dmitry Ganyushin       : Spin-Orbit,Spin-Spin,Magnetic field MRCI
   Miquel Garcia          : C-PCM and meta-GGA Hessian, CCSD/C-PCM, Gaussian charge scheme
   Tiago L. C. Gouveia    : GS-ROHF, GS-ROCIS
   Yang Guo               : DLPNO-NEVPT2, F12-NEVPT2, CIM, IAO-localization
   Andreas Hansen         : Spin unrestricted coupled pair/coupled cluster methods
   Ingolf Harden          : AUTO-CI MPn and infrastructure 
   Benjamin Helmich-Paris : MC-RPA, TRAH-(SCF,CASSCF), AVAS, COSX integrals, SCF dyn. polar.
   Lee Huntington         : MR-EOM, pCC
   Robert Izsak           : Overlap fitted RIJCOSX, COSX-SCS-MP3, EOM
   Riya Kayal             : Wick's Theorem for AUTO-CI, AUTO-CI UHF-CCSDT
   Emily Kempfer          : AUTO-CI, RHF CISDT and CCSDT
   Christian Kollmar      : KDIIS, OOCD, Brueckner-CCSD(T), CCSD density, CASPT2, CASPT2-K, improved NEVPT2
   Axel Koslowski         : Symmetry handling
   Simone Kossmann        : Meta GGA functionals, TD-DFT gradient, OOMP2, (MP2 Hessian; deprecated post 5.0)
   Lucas Lang             : DCDCAS
   Marvin Lechner         : AUTO-CI (C++ implementation), FIC-MRCC
   Spencer Leger          : CASSCF response
   Dagmar Lenk            : GEPOL surface, SMD, ORCA-2-JSON
   Dimitrios Liakos       : Extrapolation schemes; Compound Job, initial MDCI parallelization
   Dimitrios Manganas     : Further ROCIS development; embedding schemes. LFT, Crystal Embedding
   Dimitrios Pantazis     : SARC Basis sets
   Anastasios Papadopoulos: AUTO-CI, single reference methods and gradients
   Taras Petrenko         : pre 6.0 DFT Hessian and TD-DFT gradient, (ASA, deprecated), ECA, 1-Electron XAS/XES, NRVS
   Peter Pinski           : DLPNO-MP2, DLPNO-MP2 Gradient
   Christoph Reimann      : Effective Core Potentials
   Marius Retegan         : Local ZFS, SOC
   Christoph Riplinger    : Optimizer, TS searches, QM/MM, DLPNO-CCSD(T), (RO)-DLPNO pert. Triples
   Michael Roemelt        : Original ROCIS implementation
   Masaaki Saitow         : Open-shell DLPNO-CCSD energy and density
   Barbara Sandhoefer     : DKH picture change effects
   Kantharuban Sivalingam : CASSCF convergence/infrastructure, NEVPT2 and variants, FIC-MRCI
   Bernardo de Souza      : ESD, SOC TD-DFT
   Georgi Stoychev        : AutoAux, RI-MP2 NMR, DLPNO-MP2 response, X2C
   Van Anh Tran           : RI-MP2 g-tensors
   Willem Van den Heuvel  : Paramagnetic NMR
   Zikuan Wang            : NOTCH, Electric field optimization 
   Frank Wennmohs         : Technical directorship and infrastructure
   Hang Xu                : AUTO-CI-Response properties 


 We gratefully acknowledge several colleagues who have allowed us to
 interface, adapt or use parts of their codes:
   Stefan Grimme, W. Hujo, H. Kruse, P. Pracht,  : VdW corrections, initial TS optimization,
                  C. Bannwarth, S. Ehlert,         DFT functionals, gCP, sTDA/sTD-DF
                  L. Wittmann, M. Mueller
   Ed Valeev, F. Pavosevic, A. Kumar             : LibInt (2-el integral package), F12 methods
   Garnet Chan, S. Sharma, J. Yang, R. Olivares  : DMRG
   Ulf Ekstrom                                   : XCFun DFT Library
   Mihaly Kallay                                 : mrcc  (arbitrary order and MRCC methods)
   Frank Weinhold                                : gennbo (NPA and NBO analysis)
   Simon Mueller                                 : openCOSMO-RS
   Christopher J. Cramer and Donald G. Truhlar   : smd solvation model
   Lars Goerigk                                  : TD-DFT with DH, B97 family of functionals
   V. Asgeirsson, H. Jonsson                     : NEB implementation
   FAccTs GmbH                                   : IRC, NEB, NEB-TS, DLPNO-Multilevel, CI-OPT
                                                   MM, QMMM, 2- and 3-layer-ONIOM, Crystal-QMMM,
                                                   LR-CPCM, SF, NACMEs, symmetry and pop. for TD-DFT,
                                                   nearIR, NL-DFT gradient (VV10), updates on ESD,
                                                   ML-optimized integration grids, MBIS, APM,
                                                   GOAT, DOCKER, SOLVATOR, interface openCOSMO-RS
   S Lehtola, MJT Oliveira, MAL Marques          : LibXC Library
   Liviu Ungur et al                             : ANISO software


 Your calculation uses the libint2 library for the computation of 2-el integrals
 For citations please refer to: http://libint.valeyev.net

 Your ORCA version has been built with support for libXC version: 6.2.2
 For citations please refer to: https://libxc.gitlab.io

 This ORCA versions uses:
   CBLAS   interface :  Fast vector & matrix operations
   LAPACKE interface :  Fast linear algebra routines
   SCALAPACK package :  Parallel linear algebra routines
   Shared memory     :  Shared parallel matrices
   BLAS/LAPACK       :  OpenBLAS 0.3.27  USE64BITINT DYNAMIC_ARCH NO_AFFINITY Zen SINGLE_THREADED
        Core in use  :  Zen
   Copyright (c) 2011-2014, The OpenBLAS Project


NOTE: MaxCore=8000 MB was set to SCF,MP2,MDCI,CIPSI,MRCI and CIS
      => If you want to overwrite this, your respective input block should be placed after the MaxCore statement
Your calculation utilizes the atom-pairwise dispersion correction
based on EEQ partial charges (D4)


================================================================================

----- Orbital basis set information -----
Your calculation utilizes the basis: def2-SVP
   F. Weigend and R. Ahlrichs, Phys. Chem. Chem. Phys. 7, 3297 (2005).

----- AuxJ basis set information -----
Your calculation utilizes the auxiliary basis: def2/J
   F. Weigend, Phys. Chem. Chem. Phys. 8, 1057 (2006).

================================================================================
                                        WARNINGS
                       Please study these warnings very carefully!
================================================================================

WARNING: Old DensityContainer found on disk!
         Will remove this file - 
         If you want to keep old densities, please start your calculation with a different basename. 


================================================================================
                                       INPUT FILE
================================================================================
NAME = inpS
|  1> ! wb97x-d4
|  2> ! def2-svp
|  3> ! def2/J RIJCOSX
|  4> ! DEFGRID2
|  5> ! scfconv7
|  6> ! smallprint printgap noloewdin
|  7> ! NOSOSCF
|  8> %MaxCore 8000
|  9> %output
| 10>        print[P_BondOrder_M] 1
| 11>        print[P_Mayer] 1
| 12>        print[P_basis] 2
| 13> end
| 14> %pal
| 15>     nprocs 4
| 16> end
| 17> ! CPCM(chloroform)
| 18> *xyz 0 1
| 19> C   -5.0041899600   0.2135301100  -0.5091239400
| 20> C   -6.4535318900  -0.1732168500  -0.6870003700
| 21> C   -7.3639808100   0.7780977500   0.0999740400
| 22> H   -6.6211802100  -1.2065932400  -0.3629322700
| 23> H   -6.7309100200  -0.1017069300  -1.7492189100
| 24> C   -4.7155304400   1.6278886400  -0.8348792200
| 25> C   -5.6459820300   2.6239133300  -0.1786672300
| 26> C   -7.1196821800   2.2236252700  -0.3363056100
| 27> H   -5.4737493800   3.6267151200  -0.5839428400
| 28> H   -5.4051895300   2.6661932100   0.8945247300
| 29> H   -7.4165851800   2.3211870900  -1.3894868600
| 30> H   -7.7570168500   2.8957755500   0.2498676300
| 31> O   -7.1712420000   0.6105660300   1.5144435800
| 32> H   -8.4131952800   0.5136307100  -0.0805666200
| 33> C   -4.0956779200  -0.6692055600  -0.0299170200
| 34> C   -3.7409010800   2.0009808500  -1.6715057700
| 35> H   -3.0937210800   1.2692485100  -2.1477144400
| 36> H   -3.5760486800   3.0500439100  -1.9059098900
| 37> C   -2.7126132900  -0.3849324100   0.2770541400
| 38> H   -4.4595424500  -1.6768811500   0.1675688600
| 39> C   -1.7688336600  -1.2810601800   0.6356113300
| 40> H   -2.4201993100   0.6608990400   0.2147844800
| 41> C   -1.9647274300  -2.7719451700   0.7401065300
| 42> C   -0.9563208600  -3.5357611500  -0.1409575300
| 43> H   -2.9827712900  -3.0773905000   0.4836865100
| 44> H   -1.7932241600  -3.0637930500   1.7883628100
| 45> C    0.4935335100  -3.0913683000   0.0963008700
| 46> H   -1.2219464000  -3.3896236800  -1.1956056900
| 47> H   -1.0480467900  -4.6106952800   0.0573561800
| 48> C    0.6579339800  -1.5725655200  -0.0508650900
| 49> H    1.1479445800  -3.6319869100  -0.5955467100
| 50> H    0.7974237200  -3.3768836200   1.1147263700
| 51> C   -0.3519840300  -0.8952560300   0.9309062300
| 52> H   -0.1085220200  -1.3273481800   1.9187944800
| 53> C    0.0793328000   0.5680618400   0.9595705300
| 54> H   -6.2196363600   0.5336339200   1.6728908300
| 55> C    1.6219448300   0.4941154000   0.8535964000
| 56> H   -0.2620454400   1.0797995800   1.8654947400
| 57> H   -0.3359962400   1.1136349500   0.1049632400
| 58> C    1.9891993000  -0.9741491600   0.4834203600
| 59> H    2.1098804000   0.7870338200   1.7885573500
| 60> H    1.9957865200   1.1792237300   0.0837066200
| 61> H    2.2289083800  -1.5206058300   1.4104219500
| 62> C    3.2418735000  -1.0329300200  -0.4147024200
| 63> C    0.4005847000  -1.1262355000  -1.4968151300
| 64> H    0.6217087100  -0.0630551800  -1.6350993700
| 65> H   -0.6434270900  -1.2824852300  -1.7853223000
| 66> H    1.0307986800  -1.6898348100  -2.1935329800
| 67> H    3.0269914600  -0.4787969700  -1.3402810000
| 68> C    3.6618479200  -2.4641335800  -0.7821291200
| 69> C    4.3907168000  -0.3469134900   0.2781365200
| 70> C    5.0314602600   0.7225123300  -0.1939765500
| 71> H    4.6992097800  -0.8002346100   1.2229108900
| 72> H    4.6890630700   1.1349584300  -1.1454984900
| 73> C    6.1972336700   1.4373305100   0.4365089600
| 74> C    6.7516318400   0.7383417400   1.6778103100
| 75> C    5.8804265200   2.9356691800   0.7124795200
| 76> H    7.0012677300   1.4478000400  -0.3190666700
| 77> H    6.7986687400   3.3595954600   1.1468726000
| 78> C    4.7456119300   3.1240907800   1.7208264400
| 79> C    5.5791042200   3.7070133500  -0.5754971600
| 80> H    6.0000096900   0.6450616300   2.4684923900
| 81> H    7.5964958500   1.3052937500   2.0835118200
| 82> H    7.1033973000  -0.2701062500   1.4353467900
| 83> H    4.9627818300   2.6453360600   2.6810040700
| 84> H    3.8129960700   2.6972182300   1.3336172500
| 85> H    4.5760649200   4.1898459200   1.9110427100
| 86> H    6.3507715500   3.5360584900  -1.3352085900
| 87> H    5.5335700300   4.7830995300  -0.3747999000
| 88> H    4.6125087000   3.4122390700  -0.9996030300
| 89> H    2.9299101000  -2.9493297700  -1.4328384800
| 90> H    3.7763356800  -3.0785398200   0.1194832400
| 91> H    4.6227242900  -2.4531569600  -1.3076899100
| 92> *
| 93> %eprnmr
| 94>  Nuclei = all C { shift }
| 95>  origin giao
| 96>  giao_2el giao_2el_same_as_scf
| 97>  giao_1el giao_1el_analytic
| 98> end
| 99> 
|100>                          ****END OF INPUT****
================================================================================

                       ****************************
                       * Single Point Calculation *
                       ****************************

---------------------------------
CARTESIAN COORDINATES (ANGSTROEM)
---------------------------------
  C     -5.004190    0.213530   -0.509124
  C     -6.453532   -0.173217   -0.687000
  C     -7.363981    0.778098    0.099974
  H     -6.621180   -1.206593   -0.362932
  H     -6.730910   -0.101707   -1.749219
  C     -4.715530    1.627889   -0.834879
  C     -5.645982    2.623913   -0.178667
  C     -7.119682    2.223625   -0.336306
  H     -5.473749    3.626715   -0.583943
  H     -5.405190    2.666193    0.894525
  H     -7.416585    2.321187   -1.389487
  H     -7.757017    2.895776    0.249868
  O     -7.171242    0.610566    1.514444
  H     -8.413195    0.513631   -0.080567
  C     -4.095678   -0.669206   -0.029917
  C     -3.740901    2.000981   -1.671506
  H     -3.093721    1.269249   -2.147714
  H     -3.576049    3.050044   -1.905910
  C     -2.712613   -0.384932    0.277054
  H     -4.459542   -1.676881    0.167569
  C     -1.768834   -1.281060    0.635611
  H     -2.420199    0.660899    0.214784
  C     -1.964727   -2.771945    0.740107
  C     -0.956321   -3.535761   -0.140958
  H     -2.982771   -3.077390    0.483687
  H     -1.793224   -3.063793    1.788363
  C      0.493534   -3.091368    0.096301
  H     -1.221946   -3.389624   -1.195606
  H     -1.048047   -4.610695    0.057356
  C      0.657934   -1.572566   -0.050865
  H      1.147945   -3.631987   -0.595547
  H      0.797424   -3.376884    1.114726
  C     -0.351984   -0.895256    0.930906
  H     -0.108522   -1.327348    1.918794
  C      0.079333    0.568062    0.959571
  H     -6.219636    0.533634    1.672891
  C      1.621945    0.494115    0.853596
  H     -0.262045    1.079800    1.865495
  H     -0.335996    1.113635    0.104963
  C      1.989199   -0.974149    0.483420
  H      2.109880    0.787034    1.788557
  H      1.995787    1.179224    0.083707
  H      2.228908   -1.520606    1.410422
  C      3.241873   -1.032930   -0.414702
  C      0.400585   -1.126235   -1.496815
  H      0.621709   -0.063055   -1.635099
  H     -0.643427   -1.282485   -1.785322
  H      1.030799   -1.689835   -2.193533
  H      3.026991   -0.478797   -1.340281
  C      3.661848   -2.464134   -0.782129
  C      4.390717   -0.346913    0.278137
  C      5.031460    0.722512   -0.193977
  H      4.699210   -0.800235    1.222911
  H      4.689063    1.134958   -1.145498
  C      6.197234    1.437331    0.436509
  C      6.751632    0.738342    1.677810
  C      5.880427    2.935669    0.712480
  H      7.001268    1.447800   -0.319067
  H      6.798669    3.359595    1.146873
  C      4.745612    3.124091    1.720826
  C      5.579104    3.707013   -0.575497
  H      6.000010    0.645062    2.468492
  H      7.596496    1.305294    2.083512
  H      7.103397   -0.270106    1.435347
  H      4.962782    2.645336    2.681004
  H      3.812996    2.697218    1.333617
  H      4.576065    4.189846    1.911043
  H      6.350772    3.536058   -1.335209
  H      5.533570    4.783100   -0.374800
  H      4.612509    3.412239   -0.999603
  H      2.929910   -2.949330   -1.432838
  H      3.776336   -3.078540    0.119483
  H      4.622724   -2.453157   -1.307690

----------------------------
CARTESIAN COORDINATES (A.U.)
----------------------------
  NO LB      ZA    FRAG     MASS         X           Y           Z
   0 C     6.0000    0    12.011   -9.456549    0.403513   -0.962105
   1 C     6.0000    0    12.011  -12.195408   -0.327332   -1.298243
   2 C     6.0000    0    12.011  -13.915907    1.470392    0.188924
   3 H     1.0000    0     1.008  -12.512217   -2.280131   -0.685843
   4 H     1.0000    0     1.008  -12.719577   -0.192198   -3.305545
   5 C     6.0000    0    12.011   -8.911061    3.076264   -1.577693
   6 C     6.0000    0    12.011  -10.669360    4.958478   -0.337632
   7 C     6.0000    0    12.011  -13.454249    4.202043   -0.635526
   8 H     1.0000    0     1.008  -10.343887    6.853498   -1.103492
   9 H     1.0000    0     1.008  -10.214328    5.038375    1.690407
  10 H     1.0000    0     1.008  -14.015315    4.386408   -2.625750
  11 H     1.0000    0     1.008  -14.658637    5.472223    0.472181
  12 O     8.0000    0    15.999  -13.551683    1.153803    2.861884
  13 H     1.0000    0     1.008  -15.898635    0.970621   -0.152249
  14 C     6.0000    0    12.011   -7.739710   -1.264615   -0.056535
  15 C     6.0000    0    12.011   -7.069279    3.781306   -3.158688
  16 H     1.0000    0     1.008   -5.846286    2.398532   -4.058592
  17 H     1.0000    0     1.008   -6.757753    5.763748   -3.601648
  18 C     6.0000    0    12.011   -5.126096   -0.727417    0.523556
  19 H     1.0000    0     1.008   -8.427314   -3.168846    0.316659
  20 C     6.0000    0    12.011   -3.342611   -2.420853    1.201131
  21 H     1.0000    0     1.008   -4.573514    1.248918    0.405884
  22 C     6.0000    0    12.011   -3.712797   -5.238217    1.398599
  23 C     6.0000    0    12.011   -1.807185   -6.681620   -0.266371
  24 H     1.0000    0     1.008   -5.636621   -5.815425    0.914035
  25 H     1.0000    0     1.008   -3.388703   -5.789730    3.379516
  26 C     6.0000    0    12.011    0.932643   -5.841839    0.181982
  27 H     1.0000    0     1.008   -2.309144   -6.405460   -2.259367
  28 H     1.0000    0     1.008   -1.980521   -8.712951    0.108387
  29 C     6.0000    0    12.011    1.243315   -2.971718   -0.096121
  30 H     1.0000    0     1.008    2.169301   -6.863461   -1.125420
  31 H     1.0000    0     1.008    1.506912   -6.381385    2.106528
  32 C     6.0000    0    12.011   -0.665153   -1.691789    1.759158
  33 H     1.0000    0     1.008   -0.205077   -2.508325    3.625996
  34 C     6.0000    0    12.011    0.149917    1.073481    1.813326
  35 H     1.0000    0     1.008  -11.753409    1.008422    3.161306
  36 C     6.0000    0    12.011    3.065032    0.933743    1.613063
  37 H     1.0000    0     1.008   -0.495194    2.040525    3.525274
  38 H     1.0000    0     1.008   -0.634941    2.104465    0.198352
  39 C     6.0000    0    12.011    3.759042   -1.840875    0.913532
  40 H     1.0000    0     1.008    3.987096    1.487278    3.379884
  41 H     1.0000    0     1.008    3.771490    2.228410    0.158183
  42 H     1.0000    0     1.008    4.212026   -2.873529    2.665311
  43 C     6.0000    0    12.011    6.126253   -1.951955   -0.783674
  44 C     6.0000    0    12.011    0.756995   -2.128277   -2.828571
  45 H     1.0000    0     1.008    1.174859   -0.119157   -3.089890
  46 H     1.0000    0     1.008   -1.215901   -2.423546   -3.373770
  47 H     1.0000    0     1.008    1.947927   -3.193325   -4.145177
  48 H     1.0000    0     1.008    5.720185   -0.904795   -2.532764
  49 C     6.0000    0    12.011    6.919890   -4.656538   -1.478010
  50 C     6.0000    0    12.011    8.297252   -0.655571    0.525602
  51 C     6.0000    0    12.011    9.508082    1.365350   -0.366563
  52 H     1.0000    0     1.008    8.880220   -1.512224    2.310967
  53 H     1.0000    0     1.008    8.861045    2.144761   -2.164678
  54 C     6.0000    0    12.011   11.711074    2.716161    0.824882
  55 C     6.0000    0    12.011   12.758735    1.395264    3.170602
  56 C     6.0000    0    12.011   11.112396    5.547611    1.346391
  57 H     1.0000    0     1.008   13.230479    2.735946   -0.602949
  58 H     1.0000    0     1.008   12.847622    6.348715    2.167275
  59 C     6.0000    0    12.011    8.967907    5.903676    3.251891
  60 C     6.0000    0    12.011   10.542979    7.005240   -1.087532
  61 H     1.0000    0     1.008   11.338375    1.218990    4.664775
  62 H     1.0000    0     1.008   14.355297    2.466648    3.937267
  63 H     1.0000    0     1.008   13.423476   -0.510427    2.712412
  64 H     1.0000    0     1.008    9.378299    4.998961    5.066363
  65 H     1.0000    0     1.008    7.205518    5.097004    2.520171
  66 H     1.0000    0     1.008    8.647509    7.917661    3.611347
  67 H     1.0000    0     1.008   12.001219    6.682182   -2.523179
  68 H     1.0000    0     1.008   10.456932    9.038748   -0.708269
  69 H     1.0000    0     1.008    8.716378    6.448197   -1.888976
  70 H     1.0000    0     1.008    5.536728   -5.573426   -2.707672
  71 H     1.0000    0     1.008    7.136240   -5.817597    0.225791
  72 H     1.0000    0     1.008    8.735683   -4.635795   -2.471176

--------------------------------
INTERNAL COORDINATES (ANGSTROEM)
--------------------------------
 C      0   0   0     0.000000000000     0.00000000     0.00000000
 C      1   0   0     1.510564551906     0.00000000     0.00000000
 C      2   1   0     1.534029147734   110.50347115     0.00000000
 H      2   1   3     1.095898196023   110.69407127   237.86753304
 H      2   1   3     1.100163861604   109.81338487   118.76842331
 C      1   2   3     1.479814472263   113.95007095   306.25260951
 C      6   1   2     1.512752299698   114.44540317    49.66698635
 C      3   2   1     1.529565809209   110.17871541    56.71851662
 H      7   6   1     1.095227755225   110.21921989   188.79197265
 H      7   6   1     1.100685967621   108.28150052    72.14338065
 H      8   3   2     1.098572002867   108.31304939    64.42127466
 H      8   3   2     1.096166295678   109.51798853   181.40752597
 O      3   2   1     1.437337540620   110.66984045   292.71021091
 H      3   2   1     1.096990769887   109.49452741   177.19566716
 C      1   2   3     1.354346950412   121.22601549   123.25541885
 C      6   1   2     1.337551558147   123.12221188   231.63307209
 H     16   6   1     1.086760722139   121.34584675   359.01739425
 H     16   6   1     1.087499383501   120.95444932   178.40156697
 C     15   1   2     1.444960306597   126.08737155   185.01563263
 H     15   1   2     1.089407253360   116.29348379     3.03284862
 C     19  15   1     1.349936379489   126.51337067   186.62507809
 H     19  15   1     1.087725548135   115.74141347     7.05468515
 C     21  19  15     1.507325999695   125.74245630     2.27124559
 C     23  21  19     1.541613615517   111.43403052   123.86082202
 H     23  21  19     1.093371564089   112.39954829     0.29200327
 H     23  21  19     1.101557890100   107.92596279   242.40750714
 C     24  23  21     1.534879229031   112.71158005    51.07434851
 H     24  23  21     1.097358569033   108.96301328   288.93342413
 H     24  23  21     1.096916294731   109.11776355   173.02402522
 C     27  24  23     1.534746630182   111.89361786   306.52392553
 H     27  24  23     1.095068675458   108.89882010   183.00711705
 H     27  24  23     1.100481147834   109.19479452    66.55114710
 C     21  19  15     1.497834034249   122.86814272   179.72674005
 H     33  21  19     1.105396114926   106.48990520   128.08668718
 C     33  21  19     1.525829295366   121.20616870     5.40079450
 H     13   3   2     0.967769277597   107.59217165    42.68772206
 C     35  33  21     1.548015008751   103.56761985   196.95908437
 H     35  33  21     1.095040315034   112.06107774    74.93535283
 H     35  33  21     1.095674153179   110.83812403   315.32122608
 C     30  27  24     1.554294191661   116.09081386   166.31727756
 H     37  35  33     1.094547531755   111.89897162   249.81524278
 H     37  35  33     1.096294352063   110.97977327   131.25679331
 H     40  30  27     1.102455116131   106.52509985   321.40674080
 C     40  30  27     1.542489017401   118.73502458    82.24061134
 C     30  27  24     1.534995327956   111.10736905   294.14447581
 H     45  30  27     1.094701215705   111.56307751   186.21636761
 H     45  30  27     1.094354139630   111.51629539    66.19641428
 H     45  30  27     1.095549910013   110.67293640   306.04791558
 H     44  40  30     1.099969743207   108.18569911    60.30673937
 C     44  40  30     1.536139486988   113.37838297   299.59765891
 C     44  40  30     1.506812995752   109.51828601   177.61165084
 C     51  44  40     1.333084587294   124.67024798   240.99127099
 H     51  44  40     1.092367413811   115.09121037    62.04795354
 H     52  51  44     1.092127109556   117.44051487     0.73719258
 C     52  51  44     1.505823579388   127.20286372   181.12258381
 C     55  52  51     1.528650278186   113.80988610     6.39287459
 C     55  52  51     1.556131514460   111.94487666   238.51930894
 H     55  52  51     1.103392456630   106.37525096   124.23326913
 H     57  55  52     1.100717771918   105.72286538   181.24981807
 C     57  55  52     1.529728853130   112.73854566    63.30510977
 C     57  55  52     1.531225288876   112.08156403   298.17960402
 H     56  55  52     1.094904190752   112.11043272   299.81894379
 H     56  55  52     1.095364547652   110.10954454   179.77868760
 H     56  55  52     1.095214520500   110.96195570    60.12470988
 H     60  57  55     1.094673434656   112.15648217    58.07345318
 H     60  57  55     1.096322704813   110.50540997   297.56564704
 H     60  57  55     1.095793062767   110.42626398   178.18454859
 H     61  57  55     1.096292611131   111.45855371   309.95835082
 H     61  57  55     1.095588526509   110.41814404   189.89124124
 H     61  57  55     1.095930912239   111.31996331    70.74096663
 H     50  44  40     1.092964311553   111.89562821    67.33005001
 H     50  44  40     1.097044813417   110.71690773   306.67600771
 H     50  44  40     1.095270755839   110.19921921   187.30263547

---------------------------
INTERNAL COORDINATES (A.U.)
---------------------------
 C      0   0   0     0.000000000000     0.00000000     0.00000000
 C      1   0   0     2.854553310712     0.00000000     0.00000000
 C      2   1   0     2.898894970670   110.50347115     0.00000000
 H      2   1   3     2.070947461141   110.69407127   237.86753304
 H      2   1   3     2.079008400870   109.81338487   118.76842331
 C      1   2   3     2.796444081590   113.95007095   306.25260951
 C      6   1   2     2.858687554890   114.44540317    49.66698635
 C      3   2   1     2.890460483215   110.17871541    56.71851662
 H      7   6   1     2.069680511644   110.21921989   188.79197265
 H      7   6   1     2.079995038254   108.28150052    72.14338065
 H      8   3   2     2.076000223811   108.31304939    64.42127466
 H      8   3   2     2.071454096066   109.51798853   181.40752597
 O      3   2   1     2.716174313775   110.66984045   292.71021091
 H      3   2   1     2.073012126526   109.49452741   177.19566716
 C      1   2   3     2.559344826591   121.22601549   123.25541885
 C      6   1   2     2.527606134898   123.12221188   231.63307209
 H     16   6   1     2.053680137946   121.34584675   359.01739425
 H     16   6   1     2.055076005625   120.95444932   178.40156697
 C     15   1   2     2.730579253854   126.08737155   185.01563263
 H     15   1   2     2.058681357158   116.29348379     3.03284862
 C     19  15   1     2.551010055452   126.51337067   186.62507809
 H     19  15   1     2.055503394844   115.74141347     7.05468515
 C     21  19  15     2.848433333962   125.74245630     2.27124559
 C     23  21  19     2.913227537651   111.43403052   123.86082202
 H     23  21  19     2.066172818746   112.39954829     0.29200327
 H     23  21  19     2.081642732948   107.92596279   242.40750714
 C     24  23  21     2.900501391512   112.71158005    51.07434851
 H     24  23  21     2.073707166184   108.96301328   288.93342413
 H     24  23  21     2.072871388878   109.11776355   173.02402522
 C     27  24  23     2.900250816002   111.89361786   306.52392553
 H     27  24  23     2.069379894451   108.89882010   183.00711705
 H     27  24  23     2.079607984950   109.19479452    66.55114710
 C     21  19  15     2.830496118797   122.86814272   179.72674005
 H     33  21  19     2.088895926710   106.48990520   128.08668718
 C     33  21  19     2.883399495356   121.20616870     5.40079450
 H     13   3   2     1.828818895482   107.59217165    42.68772206
 C     35  33  21     2.925324417739   103.56761985   196.95908437
 H     35  33  21     2.069326301017   112.06107774    74.93535283
 H     35  33  21     2.070524081524   110.83812403   315.32122608
 C     30  27  24     2.937190353784   116.09081386   166.31727756
 H     37  35  33     2.068395075577   111.89897162   249.81524278
 H     37  35  33     2.071696087564   110.97977327   131.25679331
 H     40  30  27     2.083338244429   106.52509985   321.40674080
 C     40  30  27     2.914881807469   118.73502458    82.24061134
 C     30  27  24     2.900720786685   111.10736905   294.14447581
 H     45  30  27     2.068685496153   111.56307751   186.21636761
 H     45  30  27     2.068029617424   111.51629539    66.19641428
 H     45  30  27     2.070289295966   110.67293640   306.04791558
 H     44  40  30     2.078641570262   108.18569911    60.30673937
 C     44  40  30     2.902882933910   113.37838297   299.59765891
 C     44  40  30     2.847463897006   109.51828601   177.61165084
 C     51  44  40     2.519164783337   124.67024798   240.99127099
 H     51  44  40     2.064275249723   115.09121037    62.04795354
 H     52  51  44     2.063821140491   117.44051487     0.73719258
 C     52  51  44     2.845594171045   127.20286372   181.12258381
 C     55  52  51     2.888730380314   113.80988610     6.39287459
 C     55  52  51     2.940662390693   111.94487666   238.51930894
 H     55  52  51     2.085109561266   106.37525096   124.23326913
 H     57  55  52     2.080055139666   105.72286538   181.24981807
 C     57  55  52     2.890768591572   112.73854566    63.30510977
 C     57  55  52     2.893596445311   112.08156403   298.17960402
 H     56  55  52     2.069069063403   112.11043272   299.81894379
 H     56  55  52     2.069939011869   110.10954454   179.77868760
 H     56  55  52     2.069655501640   110.96195570    60.12470988
 H     60  57  55     2.068632997578   112.15648217    58.07345318
 H     60  57  55     2.071749666496   110.50540997   297.56564704
 H     60  57  55     2.070748788081   110.42626398   178.18454859
 H     61  57  55     2.071692797678   111.45855371   309.95835082
 H     61  57  55     2.070362270568   110.41814404   189.89124124
 H     61  57  55     2.071009285831   111.31996331    70.74096663
 H     50  44  40     2.065403222985   111.89562821    67.33005001
 H     50  44  40     2.073114253997   110.71690773   306.67600771
 H     50  44  40     2.069761771029   110.19921921   187.30263547

---------------------
BASIS SET INFORMATION
---------------------
There are 3 groups of distinct atoms

 Group   1 Type C   : 7s4p1d contracted to 3s2p1d pattern {511/31/1}
 Group   2 Type H   : 4s1p contracted to 2s1p pattern {31/1}
 Group   3 Type O   : 7s4p1d contracted to 3s2p1d pattern {511/31/1}

Atom   0C    basis set group =>   1
Atom   1C    basis set group =>   1
Atom   2C    basis set group =>   1
Atom   3H    basis set group =>   2
Atom   4H    basis set group =>   2
Atom   5C    basis set group =>   1
Atom   6C    basis set group =>   1
Atom   7C    basis set group =>   1
Atom   8H    basis set group =>   2
Atom   9H    basis set group =>   2
Atom  10H    basis set group =>   2
Atom  11H    basis set group =>   2
Atom  12O    basis set group =>   3
Atom  13H    basis set group =>   2
Atom  14C    basis set group =>   1
Atom  15C    basis set group =>   1
Atom  16H    basis set group =>   2
Atom  17H    basis set group =>   2
Atom  18C    basis set group =>   1
Atom  19H    basis set group =>   2
Atom  20C    basis set group =>   1
Atom  21H    basis set group =>   2
Atom  22C    basis set group =>   1
Atom  23C    basis set group =>   1
Atom  24H    basis set group =>   2
Atom  25H    basis set group =>   2
Atom  26C    basis set group =>   1
Atom  27H    basis set group =>   2
Atom  28H    basis set group =>   2
Atom  29C    basis set group =>   1
Atom  30H    basis set group =>   2
Atom  31H    basis set group =>   2
Atom  32C    basis set group =>   1
Atom  33H    basis set group =>   2
Atom  34C    basis set group =>   1
Atom  35H    basis set group =>   2
Atom  36C    basis set group =>   1
Atom  37H    basis set group =>   2
Atom  38H    basis set group =>   2
Atom  39C    basis set group =>   1
Atom  40H    basis set group =>   2
Atom  41H    basis set group =>   2
Atom  42H    basis set group =>   2
Atom  43C    basis set group =>   1
Atom  44C    basis set group =>   1
Atom  45H    basis set group =>   2
Atom  46H    basis set group =>   2
Atom  47H    basis set group =>   2
Atom  48H    basis set group =>   2
Atom  49C    basis set group =>   1
Atom  50C    basis set group =>   1
Atom  51C    basis set group =>   1
Atom  52H    basis set group =>   2
Atom  53H    basis set group =>   2
Atom  54C    basis set group =>   1
Atom  55C    basis set group =>   1
Atom  56C    basis set group =>   1
Atom  57H    basis set group =>   2
Atom  58H    basis set group =>   2
Atom  59C    basis set group =>   1
Atom  60C    basis set group =>   1
Atom  61H    basis set group =>   2
Atom  62H    basis set group =>   2
Atom  63H    basis set group =>   2
Atom  64H    basis set group =>   2
Atom  65H    basis set group =>   2
Atom  66H    basis set group =>   2
Atom  67H    basis set group =>   2
Atom  68H    basis set group =>   2
Atom  69H    basis set group =>   2
Atom  70H    basis set group =>   2
Atom  71H    basis set group =>   2
Atom  72H    basis set group =>   2

-------------------------
BASIS SET IN INPUT FORMAT
-------------------------

 # Basis set for element : H 
 NewGTO H 
 S 3 
   1      13.0107010000      0.0334854848
   2       1.9622572000      0.2347218709
   3       0.4445379600      0.8137702853
 S 1 
   1       0.1219496200      1.0000000000
 P 1 
   1       0.8000000000      1.0000000000
  end;

 # Basis set for element : C 
 NewGTO C 
 S 5 
   1    1238.4016938000      0.0055173650
   2     186.2900499200      0.0410888285
   3      42.2511763460      0.1822538213
   4      11.6765579320      0.4682845944
   5       3.5930506482      0.4457581734
 S 1 
   1       0.4024514736      1.0000000000
 S 1 
   1       0.1309018267      1.0000000000
 P 3 
   1       9.4680970621      0.0568883320
   2       2.0103545142      0.3129405934
   3       0.5477100471      0.7606501651
 P 1 
   1       0.1526861379      1.0000000000
 D 1 
   1       0.8000000000      1.0000000000
  end;

 # Basis set for element : O 
 NewGTO O 
 S 5 
   1    2266.1767785000     -0.0053893504
   2     340.8701019100     -0.0402347214
   3      77.3631351670     -0.1800818421
   4      21.4796449400     -0.4682885766
   5       6.6589433124     -0.4469261716
 S 1 
   1       0.8097597567      1.0000000000
 S 1 
   1       0.2553077223      1.0000000000
 P 3 
   1      17.7215043170      0.0626302488
   2       3.8635505440      0.3333113849
   3       1.0480920883      0.7414863830
 P 1 
   1       0.2764154441      1.0000000000
 D 1 
   1       1.2000000000      1.0000000000
  end;

---------------------------------
AUXILIARY/J BASIS SET INFORMATION
---------------------------------
There are 3 groups of distinct atoms

 Group   1 Type C   : 12s5p4d2f1g contracted to 6s4p3d1f1g pattern {711111/2111/211/2/1}
 Group   2 Type H   : 5s2p1d contracted to 3s1p1d pattern {311/2/1}
 Group   3 Type O   : 12s5p4d2f1g contracted to 6s4p3d1f1g pattern {711111/2111/211/2/1}

Atom   0C    basis set group =>   1
Atom   1C    basis set group =>   1
Atom   2C    basis set group =>   1
Atom   3H    basis set group =>   2
Atom   4H    basis set group =>   2
Atom   5C    basis set group =>   1
Atom   6C    basis set group =>   1
Atom   7C    basis set group =>   1
Atom   8H    basis set group =>   2
Atom   9H    basis set group =>   2
Atom  10H    basis set group =>   2
Atom  11H    basis set group =>   2
Atom  12O    basis set group =>   3
Atom  13H    basis set group =>   2
Atom  14C    basis set group =>   1
Atom  15C    basis set group =>   1
Atom  16H    basis set group =>   2
Atom  17H    basis set group =>   2
Atom  18C    basis set group =>   1
Atom  19H    basis set group =>   2
Atom  20C    basis set group =>   1
Atom  21H    basis set group =>   2
Atom  22C    basis set group =>   1
Atom  23C    basis set group =>   1
Atom  24H    basis set group =>   2
Atom  25H    basis set group =>   2
Atom  26C    basis set group =>   1
Atom  27H    basis set group =>   2
Atom  28H    basis set group =>   2
Atom  29C    basis set group =>   1
Atom  30H    basis set group =>   2
Atom  31H    basis set group =>   2
Atom  32C    basis set group =>   1
Atom  33H    basis set group =>   2
Atom  34C    basis set group =>   1
Atom  35H    basis set group =>   2
Atom  36C    basis set group =>   1
Atom  37H    basis set group =>   2
Atom  38H    basis set group =>   2
Atom  39C    basis set group =>   1
Atom  40H    basis set group =>   2
Atom  41H    basis set group =>   2
Atom  42H    basis set group =>   2
Atom  43C    basis set group =>   1
Atom  44C    basis set group =>   1
Atom  45H    basis set group =>   2
Atom  46H    basis set group =>   2
Atom  47H    basis set group =>   2
Atom  48H    basis set group =>   2
Atom  49C    basis set group =>   1
Atom  50C    basis set group =>   1
Atom  51C    basis set group =>   1
Atom  52H    basis set group =>   2
Atom  53H    basis set group =>   2
Atom  54C    basis set group =>   1
Atom  55C    basis set group =>   1
Atom  56C    basis set group =>   1
Atom  57H    basis set group =>   2
Atom  58H    basis set group =>   2
Atom  59C    basis set group =>   1
Atom  60C    basis set group =>   1
Atom  61H    basis set group =>   2
Atom  62H    basis set group =>   2
Atom  63H    basis set group =>   2
Atom  64H    basis set group =>   2
Atom  65H    basis set group =>   2
Atom  66H    basis set group =>   2
Atom  67H    basis set group =>   2
Atom  68H    basis set group =>   2
Atom  69H    basis set group =>   2
Atom  70H    basis set group =>   2
Atom  71H    basis set group =>   2
Atom  72H    basis set group =>   2

-------------------------------------
AUXILIARY/J BASIS SET IN INPUT FORMAT
-------------------------------------

 # Auxiliary/J basis set for element : H 
 NewAuxJGTO H 
 S 3 
   1      15.6752927000      0.1007184237
   2       3.6063578000      0.3404257499
   3       1.2080016000      0.6491996172
 S 1 
   1       0.4726794000      1.0000000000
 S 1 
   1       0.2018100000      1.0000000000
 P 2 
   1       2.0281365000      0.5596620919
   2       0.5358730000      0.5596620919
 D 1 
   1       2.2165124000      1.0000000000
  end;

 # Auxiliary/J basis set for element : C 
 NewAuxJGTO C 
 S 7 
   1    1861.0916331000      0.0134602335
   2     642.9939764000      0.0299160374
   3     235.1105725000      0.1008649584
   4      90.7028894000      0.2370970548
   5      36.7794552000      0.3924037254
   6      15.6046273000      0.3195862154
   7       6.8907294000      0.0530104441
 S 1 
   1       3.1478850000     -1.0000000000
 S 1 
   1       1.4777287000      1.0000000000
 S 1 
   1       0.7076466000      1.0000000000
 S 1 
   1       0.3430122000      1.0000000000
 S 1 
   1       0.1669453000      1.0000000000
 P 2 
   1      13.5472892000     -0.6769313712
   2       5.4669419000     -0.3779500978
 P 1 
   1       2.1751721000      1.0000000000
 P 1 
   1       0.8582194000      1.0000000000
 P 1 
   1       0.3376720000      1.0000000000
 D 2 
   1       5.9287253000     -0.3533329857
   2       1.9809209000     -0.7456525731
 D 1 
   1       0.8055417000     -1.0000000000
 D 1 
   1       0.3531244000     -1.0000000000
 F 2 
   1       1.6755626000      0.6311076882
   2       0.5997536000      0.4968166032
 G 1 
   1       1.0024600000     -1.0000000000
  end;

 # Auxiliary/J basis set for element : O 
 NewAuxJGTO O 
 S 7 
   1    2876.8216605000      0.0168151159
   2    1004.7443032000      0.0340137548
   3     369.7579954000      0.1194951309
   4     142.9442404000      0.2664627624
   5      57.8366425000      0.4202764046
   6      24.3864983000      0.2765077335
   7      10.6622662000      0.0057008815
 S 1 
   1       4.8070437000     -1.0000000000
 S 1 
   1       2.2210770000      1.0000000000
 S 1 
   1       1.0447795000      1.0000000000
 S 1 
   1       0.4968425000      1.0000000000
 S 1 
   1       0.2371384000      1.0000000000
 P 2 
   1      64.2613382000     -0.2731534179
   2      16.3006076000     -0.8168011598
 P 1 
   1       4.3550542000      1.0000000000
 P 1 
   1       1.2019554000      1.0000000000
 P 1 
   1       0.3354196000      1.0000000000
 D 2 
   1       9.2146611000     -0.4661230638
   2       2.8435251000     -0.6600908911
 D 1 
   1       0.9955759000     -1.0000000000
 D 1 
   1       0.3649441000     -1.0000000000
 F 2 
   1       2.6420115000      0.5931563945
   2       0.7345613000      0.5931563945
 G 1 
   1       1.3931000000     -1.0000000000
  end;


Checking for AutoStart:
The File: inpS.gbw exists
Trying to determine its content:
     ... Fine, the file contains calculation information
     ... Fine, the calculation information was read
     ... Fine, the file contains a basis set
     ... Fine, the basis set was read
     ... Fine, the file contains a geometry
     ... Fine, the geometry was read
     ... Fine, the file contains a set of orbitals
     ... Fine, the orbitals can be read
     => possible old guess file was deleted
     => GBW file was renamed to GES file
     => GES file is set as startup file
     => Guess is set to MORead
     ... now leaving AutoStart



           ************************************************************
           *        Program running with 4 parallel MPI-processes     *
           *              working on a common directory               *
           ************************************************************
------------------------------------------------------------------------------
                             ORCA STARTUP CALCULATIONS
                           -- RI-GTO INTEGRALS CHOSEN --
------------------------------------------------------------------------------
------------------------------------------------------------------------------
                   ___                                                        
                  /   \      - P O W E R E D   B Y -                         
                 /     \                                                     
                 |  |  |   _    _      __       _____    __    __             
                 |  |  |  | |  | |    /  \     |  _  \  |  |  /  |          
                  \  \/   | |  | |   /    \    | | | |  |  | /  /          
                 / \  \   | |__| |  /  /\  \   | |_| |  |  |/  /          
                |  |  |   |  __  | /  /__\  \  |    /   |      \           
                |  |  |   | |  | | |   __   |  |    \   |  |\   \          
                \     /   | |  | | |  |  |  |  | |\  \  |  | \   \       
                 \___/    |_|  |_| |__|  |__|  |_| \__\ |__|  \__/        
                                                                              
                      - O R C A' S   B I G   F R I E N D -                    
                                      &                                       
                       - I N T E G R A L  F E E D E R -                       
                                                                              
 v1 FN, 2020, v2 2021, v3 2022-2024                                           
------------------------------------------------------------------------------


----------------------
SHARK INTEGRAL PACKAGE
----------------------

Number of atoms                             ...     73
Number of basis functions                   ...    626
Number of shells                            ...    306
Maximum angular momentum                    ...      2
Integral batch strategy                     ... SHARK/LIBINT Hybrid
RI-J (if used) integral strategy            ... SPLIT-RIJ (Revised 2003 algorithm where possible)
Printlevel                                  ...      1
Contraction scheme used                     ... SEGMENTED contraction
Prescreening option                         ... SCHWARTZ
   Thresh                                   ... 3.000e-11
   Tcut                                     ... 1.000e-12
   Tpresel                                  ... 1.000e-12 
Coulomb Range Separation                    ... NOT USED
Exchange Range Separation                   ... Long Range
   Mu parameter                             ... 3.000e-01
   Scaling (regular/separated)              ... 1.670e-01 8.330e-01
Multipole approximations                    ... NOT USED
Finite Nucleus Model                        ... NOT USED
CABS basis                                  ... NOT available
Auxiliary Coulomb fitting basis             ... AVAILABLE
   # of basis functions in Aux-J            ...   1905
   # of shells in Aux-J                     ...    655
   Maximum angular momentum in Aux-J        ...      4
Auxiliary J/K fitting basis                 ... NOT available
Auxiliary Correlation fitting basis         ... NOT available
Auxiliary 'external' fitting basis          ... NOT available

Checking pre-screening integrals            ... done (  0.0 sec) Dimension = 306
Check shell pair data                       ... done (  0.0 sec)
Shell pair information
Shell pair cut-off parameter TPreSel        ...   1.0e-12
Total number of shell pairs                 ...     46971
Shell pairs after pre-screening             ...     28106
Total number of primitive shell pairs       ...    162105
Primitive shell pairs kept                  ...     61857
          la=0 lb=0:   9856 shell pairs
          la=1 lb=0:  10791 shell pairs
          la=1 lb=1:   2978 shell pairs
          la=2 lb=0:   2799 shell pairs
          la=2 lb=1:   1487 shell pairs
          la=2 lb=2:    195 shell pairs

Calculating one electron integrals          ... done (  0.1 sec)
Calculating RI/J V-Matrix + Cholesky decomp.... done (  0.2 sec)
Calculating Nuclear repulsion               ... done (  0.0 sec) ENN=   2811.893949506711 Eh

Diagonalization of the overlap matrix:
Smallest eigenvalue                        ... 4.327e-04
Time for diagonalization                   ...    0.045 sec
Threshold for overlap eigenvalues          ... 1.000e-07
Number of eigenvalues below threshold      ... 0
Time for construction of square roots      ...    0.025 sec
Total time needed                          ...    0.072 sec

-------------------
DFT GRID GENERATION
-------------------

General Integration Accuracy     IntAcc      ... 4.388
Radial Grid Type                 RadialGrid  ... OptM3 with GC (2021)
Angular Grid (max. ang.)         AngularGrid ... 4 (Lebedev-302)
Angular grid pruning method      GridPruning ... 4 (adaptive)
Weight generation scheme         WeightScheme... mBecke (2022)
Basis function cutoff            BFCut       ... 1.0000e-11
Integration weight cutoff        WCut        ... 1.0000e-14
Partially contracted basis set               ... off
Rotationally invariant grid construction     ... off
Angular grids for H and He will be reduced by one unit

Total number of grid points                  ...   309806
Total number of batches                      ...     4876
Average number of points per batch           ...       63
Average number of grid points per atom       ...     4244

--------------------
COSX GRID GENERATION
--------------------

GRIDX 1
-------
General Integration Accuracy     IntAcc      ... 3.816
Radial Grid Type                 RadialGrid  ... OptM3 with GC (2021)
Angular Grid (max. ang.)         AngularGrid ... 1 (Lebedev-50)
Angular grid pruning method      GridPruning ... 4 (adaptive)
Weight generation scheme         WeightScheme... mBecke (2022)
Basis function cutoff            BFCut       ... 1.0000e-11
Integration weight cutoff        WCut        ... 1.0000e-14
Partially contracted basis set               ... on
Rotationally invariant grid construction     ... off
Angular grids for H and He will be reduced by one unit

Total number of grid points                  ...    39359
Total number of batches                      ...      348
Average number of points per batch           ...      113
Average number of grid points per atom       ...      539
UseSFitting                                  ... on

GRIDX 2
-------
General Integration Accuracy     IntAcc      ... 4.020
Radial Grid Type                 RadialGrid  ... OptM3 with GC (2021)
Angular Grid (max. ang.)         AngularGrid ... 2 (Lebedev-110)
Angular grid pruning method      GridPruning ... 4 (adaptive)
Weight generation scheme         WeightScheme... mBecke (2022)
Basis function cutoff            BFCut       ... 1.0000e-11
Integration weight cutoff        WCut        ... 1.0000e-14
Partially contracted basis set               ... on
Rotationally invariant grid construction     ... off
Angular grids for H and He will be reduced by one unit

Total number of grid points                  ...    81261
Total number of batches                      ...      675
Average number of points per batch           ...      120
Average number of grid points per atom       ...     1113
UseSFitting                                  ... on

GRIDX 3
-------
General Integration Accuracy     IntAcc      ... 4.338
Radial Grid Type                 RadialGrid  ... OptM3 with GC (2021)
Angular Grid (max. ang.)         AngularGrid ... 3 (Lebedev-194)
Angular grid pruning method      GridPruning ... 4 (adaptive)
Weight generation scheme         WeightScheme... mBecke (2022)
Basis function cutoff            BFCut       ... 1.0000e-11
Integration weight cutoff        WCut        ... 1.0000e-14
Partially contracted basis set               ... on
Rotationally invariant grid construction     ... off
Angular grids for H and He will be reduced by one unit

Total number of grid points                  ...   176049
Total number of batches                      ...     1416
Average number of points per batch           ...      124
Average number of grid points per atom       ...     2412
UseSFitting                                  ... on
Initializing property integral containers    ... done (  0.0 sec)

SHARK setup successfully completed in   4.3 seconds

Maximum memory used throughout the entire STARTUP-calculation: 96.4 MB


           ************************************************************
           *        Program running with 4 parallel MPI-processes     *
           *              working on a common directory               *
           ************************************************************
-------------------------------------------------------------------------------
                                 ORCA GUESS
                   Start orbitals & Density for SCF / CASSCF
-------------------------------------------------------------------------------

------------
SCF SETTINGS
------------
Hamiltonian:
 Density Functional     Method          .... DFT(GTOs)
 Exchange Functional    Exchange        .... WB97X-V
 Correlation Functional Correlation     .... WB97X-V
 Gradients option       PostSCFGGA      .... off
 Hybrid DFT is turned on
   Fraction HF Exchange ScalHFX         ....  0.167000
   Scaling of DF-GGA-X  ScalDFX         ....  0.000000
   Scaling of DF-GGA-C  ScalDFC         ....  1.000000
   Scaling of DF-LDA-C  ScalLDAC        ....  1.000000
   Perturbative correction              ....  0.000000
 Long-range corrected/Screened/Range-Separated Hybrid DFT is turned on
   Amount of maximum screened exact exchange              ....  0.833000
   Range separation parameter mu (erf(mu*r12)/r12)        ....  0.300000
 RI-approximation to the Coulomb term is turned on
   Number of AuxJ basis functions       .... 1905
   RIJ-COSX (HFX calculated with COS-X)).... on


General Settings:
 Integral files         IntName         .... inpS
 Hartree-Fock type      HFTyp           .... RHF
 Total Charge           Charge          ....    0
 Multiplicity           Mult            ....    1
 Number of Electrons    NEL             ....  220
 Basis Dimension        Dim             ....  626
 Nuclear Repulsion      ENuc            ....   2811.8939495067 Eh

Convergence Acceleration:
 AO-DIIS                CNVDIIS         .... on
   Start iteration      DIISMaxIt       ....    12
   Startup error        DIISStart       ....  0.200000
   # of expansion vecs  DIISMaxEq       ....     5
   Bias factor          DIISBfac        ....   1.050
   Max. coefficient     DIISMaxC        ....  10.000
 MO-DIIS                CNVKDIIS        .... off
 Trust-Rad. Augm. Hess. CNVTRAH         .... auto
   Auto Start mean grad. ratio tolernc. ....  1.125000
   Auto Start start iteration           ....     1
   Auto Start num. interpolation iter.  ....    10
   Max. Number of Micro iterations      ....    24
   Max. Number of Macro iterations      .... Maxiter - #DIIS iter
   Number of Davidson start vectors     ....     2
   Converg. threshold    (grad. norm)   ....   1.000e-04
   Grad. Scal. Fac. for Micro threshold ....   0.100
   Minimum threshold for Micro iter.    ....   1.000e-02
   NR start threshold (gradient norm)   ....   1.000e-04
   Initial trust radius                 ....   0.400
   Minimum AH scaling param. (alpha)    ....   1.000
   Maximum AH scaling param. (alpha)    .... 1000.000
   Quad. conv. algorithm                .... NR
   White noise on init. David. guess    .... on
   Maximum white noise                  ....   0.010
   Pseudo random numbers                .... off
   Inactive MOs                         .... canonical
   Orbital update algorithm             .... Taylor
   Preconditioner                       .... Diag
   Full preconditioner red. dimension   ....   250
 SOSCF                  CNVSOSCF        .... off
 Level Shifting         CNVShift        .... on
   Level shift para.    LevelShift      ....    0.2500
   Turn off err/grad.   ShiftErr        ....    0.0010
 Zerner damping         CNVZerner       .... off
 Static damping         CNVDamp         .... on
   Fraction old density DampFac         ....    0.7000
   Max. Damping (<1)    DampMax         ....    0.9800
   Min. Damping (>=0)   DampMin         ....    0.0000
   Turn off err/grad.   DampErr         ....    0.1000

SCF Procedure:
 Maximum # iterations   MaxIter         ....   125
 SCF integral mode      SCFMode         .... Direct
   Integral package                     .... SHARK and LIBINT hybrid scheme
 Reset frequency        DirectResetFreq ....    20
 Integral Threshold     Thresh          ....  3.000e-11 Eh
 Primitive CutOff       TCut            ....  1.000e-12 Eh

Convergence Tolerance:
 Convergence Check Mode ConvCheckMode   .... Total+1el-Energy
 Convergence forced     ConvForced      .... 0
 Energy Change          TolE            ....  1.000e-07 Eh
 1-El. energy change                    ....  1.000e-04 Eh
 DIIS Error             TolErr          ....  1.000e-07

---------------------
INITIAL GUESS: MOREAD
---------------------
Guess MOs are being read from file: inpS.ges
Input Geometry matches current geometry (good)
Input basis set matches current basis set (good)
Occupation numbers will be reassigned to an Aufbau configuration
MOs were renormalized
MOs were reorthogonalized (Cholesky)
                      ------------------
                      INITIAL GUESS DONE (   0.2 sec)
                      ------------------
             **** ENERGY FILE WAS UPDATED (inpS.en.tmp) ****
Finished Guess after   0.4 sec
Maximum memory used throughout the entire GUESS-calculation: 53.0 MB


           ************************************************************
           *        Program running with 4 parallel MPI-processes     *
           *              working on a common directory               *
           ************************************************************

-------------------------------------------------------------------------------------------
                                      ORCA LEAN-SCF
                              memory conserving SCF solver
-------------------------------------------------------------------------------------------

--------------------
CPCM SOLVATION MODEL
--------------------
CPCM parameters:
  Epsilon                                         ...       4.8030
  Refrac                                          ...       1.4459
  Rsolv                                           ...       1.3000
  Surface type                                    ... GAUSSIAN VDW
  Discretization scheme                           ... Constant charge density
    Threshold for H atoms                         ...       5.0000 (charges/Ang^2)
    Threshold for non-H atoms                     ...       5.0000 (charges/Ang^2)
  Epsilon function type                           ...         CPCM
Solvent:                                          ... CHLOROFORM
Radii:
  Scheme                                          ... Element-dependent radii
  Radius for C  used is    3.8550 Bohr (=   2.0400 Ang.)
  Radius for H  used is    2.4944 Bohr (=   1.3200 Ang.)
  Radius for O  used is    3.4469 Bohr (=   1.8240 Ang.)
Calculating surface                               ...        done! (  0.0s)
Cavity surface points                             ...         5366
Cavity Volume                                     ...    3609.0515
Cavity Surface-area                               ...    1784.1683
Calculating surface distance matrix               ...        done! (  0.2s)
Performing Cholesky decomposition & store         ...        done! (  0.9s)
Overall time for CPCM initialization              ...                 1.1s

----------------------------------------D-I-I-S--------------------------------------------
Iteration    Energy (Eh)           Delta-E    RMSDP     MaxDP     DIISErr   Damp  Time(sec)
-------------------------------------------------------------------------------------------
               ***  Starting incremental Fock matrix formation  ***
    1    -1168.3633386387155042     0.00e+00  3.22e-08  2.15e-06  4.38e-06  0.700  23.9

  HOMO= 109 E= -7.957 eV LUMO=  8.071 eV gap=  16.028 eV
    2    -1168.3633386233896090     1.53e-08  2.78e-08  1.38e-06  2.52e-06  0.700   4.8
                 **** Energy Check signals convergence ****

  HOMO= 109 E= -7.957 eV LUMO=  8.071 eV gap=  16.028 eV

               *****************************************************
               *                     SUCCESS                       *
               *           SCF CONVERGED AFTER   2 CYCLES          *
               *****************************************************

Recomputing exchange energy using gridx3       ... done (   41.585 sec)
Old exchange energy                            :    -56.782716067 Eh
New exchange energy                            :    -56.782686859 Eh
Exchange energy change after final integration :      0.000029208 Eh
Total energy after final integration           :  -1168.363309416 Eh
             **** ENERGY FILE WAS UPDATED (inpS.en.tmp) ****

----------------
TOTAL SCF ENERGY
----------------

Total Energy       :      -1168.36330941568099 Eh          -31792.78196 eV

Components:
Nuclear Repulsion  :       2811.89394950671067 Eh           76515.52434 eV
Electronic Energy  :      -3980.24817983691128 Eh         -108308.05925 eV
One Electron Energy:      -7168.84055210654788 Eh         -195074.06880 eV
Two Electron Energy:       3188.59237226963660 Eh           86766.00955 eV
CPCM Dielectric    :         -0.00910829318905 Eh              -0.24785 eV

Virial components:
Potential Energy   :      -2321.65578400067716 Eh          -63175.46566 eV
Kinetic Energy     :       1153.29247458499617 Eh           31382.68370 eV
Virial Ratio       :          2.01306766077365

DFT components:
N(Alpha)           :      110.000161504205 electrons
N(Beta)            :      110.000161504205 electrons
N(Total)           :      220.000323008410 electrons
E(X)               :     -111.768818276305 Eh       
E(C)               :       -8.952114098596 Eh       
E(XC)              :     -120.720932374901 Eh       

CPCM Solvation Model Properties:
Surface-charge          :         -0.04147289067852
Corrected charge        :         -0.00000000000000
Outlying charge corr.   :          0.00006098932958 Eh               0.00166 eV
Free-energy (cav+disp)  :  This term is not implemented in the current solvation scheme

---------------
SCF CONVERGENCE
---------------

  Last Energy change         ...   -1.5326e-08  Tolerance :   1.0000e-07
  Last MAX-Density change    ...    1.3797e-06  Tolerance :   1.0000e-05
  Last RMS-Density change    ...    2.7754e-08  Tolerance :   1.0000e-06
  Last DIIS Error            ...    2.5220e-06  Tolerance :   1.0000e-07


----------------
ORBITAL ENERGIES
----------------

  NO   OCC          E(Eh)            E(eV) 
   0   2.0000     -19.212390      -522.7957 
   1   2.0000     -10.330302      -281.1018 
   2   2.0000     -10.294249      -280.1208 
   3   2.0000     -10.291988      -280.0592 
   4   2.0000     -10.287364      -279.9334 
   5   2.0000     -10.286608      -279.9128 
   6   2.0000     -10.285434      -279.8809 
   7   2.0000     -10.284163      -279.8463 
   8   2.0000     -10.282931      -279.8128 
   9   2.0000     -10.282592      -279.8036 
  10   2.0000     -10.281704      -279.7794 
  11   2.0000     -10.281336      -279.7694 
  12   2.0000     -10.279256      -279.7128 
  13   2.0000     -10.278097      -279.6812 
  14   2.0000     -10.277563      -279.6667 
  15   2.0000     -10.277487      -279.6646 
  16   2.0000     -10.277283      -279.6591 
  17   2.0000     -10.277022      -279.6520 
  18   2.0000     -10.273313      -279.5511 
  19   2.0000     -10.272939      -279.5409 
  20   2.0000     -10.272481      -279.5284 
  21   2.0000     -10.272252      -279.5222 
  22   2.0000     -10.270719      -279.4805 
  23   2.0000     -10.269820      -279.4560 
  24   2.0000     -10.269640      -279.4511 
  25   2.0000     -10.269015      -279.4341 
  26   2.0000     -10.268626      -279.4235 
  27   2.0000     -10.267223      -279.3853 
  28   2.0000     -10.266446      -279.3642 
  29   2.0000      -1.130941       -30.7745 
  30   2.0000      -0.998561       -27.1722 
  31   2.0000      -0.977219       -26.5915 
  32   2.0000      -0.957478       -26.0543 
  33   2.0000      -0.942844       -25.6561 
  34   2.0000      -0.917598       -24.9691 
  35   2.0000      -0.910807       -24.7843 
  36   2.0000      -0.889991       -24.2179 
  37   2.0000      -0.888068       -24.1656 
  38   2.0000      -0.873007       -23.7557 
  39   2.0000      -0.853594       -23.2275 
  40   2.0000      -0.834323       -22.7031 
  41   2.0000      -0.828737       -22.5511 
  42   2.0000      -0.809527       -22.0284 
  43   2.0000      -0.800973       -21.7956 
  44   2.0000      -0.796910       -21.6850 
  45   2.0000      -0.791332       -21.5332 
  46   2.0000      -0.760790       -20.7021 
  47   2.0000      -0.757139       -20.6028 
  48   2.0000      -0.724983       -19.7278 
  49   2.0000      -0.712964       -19.4007 
  50   2.0000      -0.704170       -19.1614 
  51   2.0000      -0.697912       -18.9911 
  52   2.0000      -0.688883       -18.7455 
  53   2.0000      -0.676613       -18.4116 
  54   2.0000      -0.651293       -17.7226 
  55   2.0000      -0.634754       -17.2725 
  56   2.0000      -0.630273       -17.1506 
  57   2.0000      -0.619774       -16.8649 
  58   2.0000      -0.607468       -16.5300 
  59   2.0000      -0.597712       -16.2646 
  60   2.0000      -0.590037       -16.0557 
  61   2.0000      -0.580739       -15.8027 
  62   2.0000      -0.578104       -15.7310 
  63   2.0000      -0.569701       -15.5023 
  64   2.0000      -0.563358       -15.3298 
  65   2.0000      -0.557509       -15.1706 
  66   2.0000      -0.555804       -15.1242 
  67   2.0000      -0.552045       -15.0219 
  68   2.0000      -0.549665       -14.9571 
  69   2.0000      -0.542087       -14.7509 
  70   2.0000      -0.538296       -14.6478 
  71   2.0000      -0.531779       -14.4704 
  72   2.0000      -0.526735       -14.3332 
  73   2.0000      -0.521794       -14.1987 
  74   2.0000      -0.519341       -14.1320 
  75   2.0000      -0.512050       -13.9336 
  76   2.0000      -0.507999       -13.8234 
  77   2.0000      -0.501920       -13.6579 
  78   2.0000      -0.499121       -13.5818 
  79   2.0000      -0.494133       -13.4460 
  80   2.0000      -0.488336       -13.2883 
  81   2.0000      -0.486845       -13.2477 
  82   2.0000      -0.484416       -13.1816 
  83   2.0000      -0.477403       -12.9908 
  84   2.0000      -0.471894       -12.8409 
  85   2.0000      -0.466917       -12.7055 
  86   2.0000      -0.462693       -12.5905 
  87   2.0000      -0.461162       -12.5489 
  88   2.0000      -0.454546       -12.3688 
  89   2.0000      -0.451997       -12.2995 
  90   2.0000      -0.450078       -12.2473 
  91   2.0000      -0.445220       -12.1150 
  92   2.0000      -0.439240       -11.9523 
  93   2.0000      -0.433931       -11.8079 
  94   2.0000      -0.427496       -11.6328 
  95   2.0000      -0.425563       -11.5802 
  96   2.0000      -0.422744       -11.5035 
  97   2.0000      -0.419123       -11.4049 
  98   2.0000      -0.416691       -11.3387 
  99   2.0000      -0.414771       -11.2865 
 100   2.0000      -0.410342       -11.1660 
 101   2.0000      -0.409278       -11.1370 
 102   2.0000      -0.405544       -11.0354 
 103   2.0000      -0.401773       -10.9328 
 104   2.0000      -0.392299       -10.6750 
 105   2.0000      -0.381032       -10.3684 
 106   2.0000      -0.372671       -10.1409 
 107   2.0000      -0.355802        -9.6819 
 108   2.0000      -0.336569        -9.1585 
 109   2.0000      -0.292396        -7.9565 
 110   0.0000       0.046611         1.2684 
 111   0.0000       0.099399         2.7048 
 112   0.0000       0.106980         2.9111 
 113   0.0000       0.133999         3.6463 
 114   0.0000       0.141014         3.8372 
 115   0.0000       0.143795         3.9129 
 116   0.0000       0.148534         4.0418 
 117   0.0000       0.158083         4.3016 
 118   0.0000       0.159748         4.3470 
 119   0.0000       0.167381         4.5547 
 120   0.0000       0.168017         4.5720 
*Only the first 10 virtual orbitals were printed.

                    ********************************
                    * MULLIKEN POPULATION ANALYSIS *
                    ********************************

-----------------------
MULLIKEN ATOMIC CHARGES
-----------------------
   0 C :   -0.174434
   1 C :    0.142452
   2 C :    0.068423
   3 H :    0.017134
   4 H :    0.030782
   5 C :   -0.169954
   6 C :    0.095025
   7 C :    0.023928
   8 H :    0.013673
   9 H :    0.027408
  10 H :    0.019934
  11 H :    0.022623
  12 O :   -0.359170
  13 H :    0.018189
  14 C :   -0.008545
  15 C :   -0.047200
  16 H :    0.035561
  17 H :    0.029428
  18 C :   -0.062587
  19 H :   -0.001918
  20 C :   -0.113836
  21 H :    0.003812
  22 C :    0.114556
  23 C :   -0.002189
  24 H :    0.014088
  25 H :    0.016597
  26 C :    0.107298
  27 H :    0.013134
  28 H :    0.015757
  29 C :   -0.414425
  30 H :    0.009004
  31 H :   -0.002417
  32 C :   -0.044469
  33 H :    0.010469
  34 C :    0.132779
  35 H :    0.178936
  36 C :    0.042329
  37 H :    0.006917
  38 H :    0.014101
  39 C :   -0.025787
  40 H :    0.017360
  41 H :    0.010304
  42 H :   -0.009221
  43 C :   -0.038048
  44 C :    0.091052
  45 H :    0.019958
  46 H :    0.024957
  47 H :    0.018798
  48 H :   -0.000186
  49 C :    0.052795
  50 C :   -0.048965
  51 C :   -0.070984
  52 H :    0.005849
  53 H :    0.006008
  54 C :   -0.069967
  55 C :    0.049764
  56 C :   -0.164947
  57 H :    0.016356
  58 H :    0.011823
  59 C :    0.018044
  60 C :    0.025485
  61 H :    0.025224
  62 H :    0.016898
  63 H :    0.021064
  64 H :    0.019029
  65 H :    0.020123
  66 H :    0.017230
  67 H :    0.017041
  68 H :    0.019771
  69 H :    0.020375
  70 H :    0.030632
  71 H :    0.012707
  72 H :    0.016265
Sum of atomic charges:    0.0000000

--------------------------------
MULLIKEN REDUCED ORBITAL CHARGES
--------------------------------
  0 C s       :     3.102604  s :     3.102604
      pz      :     1.015285  p :     3.028824
      px      :     1.005240
      py      :     1.008299
      dz2     :     0.005392  d :     0.043006
      dxz     :     0.006384
      dyz     :     0.005907
      dx2y2   :     0.013814
      dxy     :     0.011509

  1 C s       :     2.939232  s :     2.939232
      pz      :     0.990425  p :     2.883927
      px      :     0.928824
      py      :     0.964678
      dz2     :     0.008159  d :     0.034389
      dxz     :     0.006251
      dyz     :     0.003898
      dx2y2   :     0.009838
      dxy     :     0.006242

  2 C s       :     3.085156  s :     3.085156
      pz      :     0.734222  p :     2.775765
      px      :     1.049009
      py      :     0.992535
      dz2     :     0.023169  d :     0.070657
      dxz     :     0.011200
      dyz     :     0.017642
      dx2y2   :     0.011330
      dxy     :     0.007315

  3 H s       :     0.960211  s :     0.960211
      pz      :     0.005190  p :     0.022655
      px      :     0.003776
      py      :     0.013689

  4 H s       :     0.945907  s :     0.945907
      pz      :     0.014470  p :     0.023312
      px      :     0.004468
      py      :     0.004374

  5 C s       :     3.108713  s :     3.108713
      pz      :     0.974020  p :     3.016451
      px      :     0.986402
      py      :     1.056028
      dz2     :     0.009323  d :     0.044790
      dxz     :     0.005496
      dyz     :     0.008691
      dx2y2   :     0.011090
      dxy     :     0.010189

  6 C s       :     2.955627  s :     2.955627
      pz      :     1.003911  p :     2.913898
      px      :     0.945923
      py      :     0.964064
      dz2     :     0.008980  d :     0.035449
      dxz     :     0.005863
      dyz     :     0.004356
      dx2y2   :     0.008743
      dxy     :     0.007508

  7 C s       :     3.002614  s :     3.002614
      pz      :     0.985055  p :     2.938673
      px      :     0.980968
      py      :     0.972651
      dz2     :     0.007867  d :     0.034784
      dxz     :     0.005875
      dyz     :     0.004475
      dx2y2   :     0.008470
      dxy     :     0.008097

  8 H s       :     0.963493  s :     0.963493
      pz      :     0.005873  p :     0.022834
      px      :     0.003837
      py      :     0.013124

  9 H s       :     0.949191  s :     0.949191
      pz      :     0.014519  p :     0.023401
      px      :     0.004460
      py      :     0.004421

 10 H s       :     0.957242  s :     0.957242
      pz      :     0.014223  p :     0.022824
      px      :     0.004507
      py      :     0.004094

 11 H s       :     0.954749  s :     0.954749
      pz      :     0.007607  p :     0.022628
      px      :     0.007364
      py      :     0.007658

 12 O s       :     3.713620  s :     3.713620
      pz      :     1.392503  p :     4.633406
      px      :     1.352921
      py      :     1.887982
      dz2     :     0.005352  d :     0.012143
      dxz     :     0.001445
      dyz     :     0.001577
      dx2y2   :     0.003188
      dxy     :     0.000581

 13 H s       :     0.961461  s :     0.961461
      pz      :     0.001926  p :     0.020350
      px      :     0.014149
      py      :     0.004275

 14 C s       :     3.194418  s :     3.194418
      pz      :     0.992823  p :     2.777772
      px      :     0.870789
      py      :     0.914161
      dz2     :     0.004302  d :     0.036355
      dxz     :     0.007475
      dyz     :     0.003349
      dx2y2   :     0.010808
      dxy     :     0.010421

 15 C s       :     3.124726  s :     3.124726
      pz      :     1.009849  p :     2.896213
      px      :     0.981687
      py      :     0.904676
      dz2     :     0.005219  d :     0.026262
      dxz     :     0.004108
      dyz     :     0.004355
      dx2y2   :     0.006514
      dxy     :     0.006066

 16 H s       :     0.939901  s :     0.939901
      pz      :     0.006532  p :     0.024538
      px      :     0.008421
      py      :     0.009585

 17 H s       :     0.945960  s :     0.945960
      pz      :     0.004943  p :     0.024612
      px      :     0.004444
      py      :     0.015225

 18 C s       :     3.199503  s :     3.199503
      pz      :     1.029603  p :     2.827912
      px      :     0.882177
      py      :     0.916131
      dz2     :     0.003631  d :     0.035173
      dxz     :     0.006595
      dyz     :     0.003268
      dx2y2   :     0.011979
      dxy     :     0.009700

 19 H s       :     0.977617  s :     0.977617
      pz      :     0.004718  p :     0.024301
      px      :     0.004963
      py      :     0.014620

 20 C s       :     3.100390  s :     3.100390
      pz      :     0.959569  p :     2.969315
      px      :     0.986201
      py      :     1.023546
      dz2     :     0.004440  d :     0.044131
      dxz     :     0.006955
      dyz     :     0.007028
      dx2y2   :     0.014219
      dxy     :     0.011489

 21 H s       :     0.971588  s :     0.971588
      pz      :     0.004602  p :     0.024600
      px      :     0.004471
      py      :     0.015527

 22 C s       :     2.926519  s :     2.926519
      pz      :     1.000988  p :     2.923413
      px      :     0.976110
      py      :     0.946315
      dz2     :     0.009580  d :     0.035512
      dxz     :     0.004171
      dyz     :     0.005681
      dx2y2   :     0.009813
      dxy     :     0.006267

 23 C s       :     3.000937  s :     3.000937
      pz      :     1.012582  p :     2.964801
      px      :     0.964687
      py      :     0.987532
      dz2     :     0.010051  d :     0.036451
      dxz     :     0.007327
      dyz     :     0.002955
      dx2y2   :     0.010259
      dxy     :     0.005859

 24 H s       :     0.962726  s :     0.962726
      pz      :     0.004996  p :     0.023187
      px      :     0.013506
      py      :     0.004684

 25 H s       :     0.960143  s :     0.960143
      pz      :     0.013816  p :     0.023260
      px      :     0.004687
      py      :     0.004757

 26 C s       :     2.968838  s :     2.968838
      pz      :     0.969261  p :     2.888543
      px      :     0.974543
      py      :     0.944739
      dz2     :     0.007217  d :     0.035320
      dxz     :     0.006431
      dyz     :     0.005568
      dx2y2   :     0.008575
      dxy     :     0.007529

 27 H s       :     0.964014  s :     0.964014
      pz      :     0.013867  p :     0.022852
      px      :     0.004231
      py      :     0.004754

 28 H s       :     0.961603  s :     0.961603
      pz      :     0.004694  p :     0.022639
      px      :     0.003787
      py      :     0.014158

 29 C s       :     3.256789  s :     3.256789
      pz      :     1.048898  p :     3.106663
      px      :     1.000318
      py      :     1.057447
      dz2     :     0.011661  d :     0.050973
      dxz     :     0.010448
      dyz     :     0.009396
      dx2y2   :     0.010802
      dxy     :     0.008665

 30 H s       :     0.967951  s :     0.967951
      pz      :     0.008792  p :     0.023045
      px      :     0.007931
      py      :     0.006322

 31 H s       :     0.979882  s :     0.979882
      pz      :     0.013312  p :     0.022536
      px      :     0.004731
      py      :     0.004493

 32 C s       :     3.036219  s :     3.036219
      pz      :     0.989902  p :     2.964522
      px      :     0.944022
      py      :     1.030598
      dz2     :     0.008682  d :     0.043728
      dxz     :     0.007110
      dyz     :     0.007893
      dx2y2   :     0.011132
      dxy     :     0.008910

 33 H s       :     0.968270  s :     0.968270
      pz      :     0.012544  p :     0.021260
      px      :     0.003981
      py      :     0.004736

 34 C s       :     2.887405  s :     2.887405
      pz      :     0.987791  p :     2.944996
      px      :     0.975514
      py      :     0.981691
      dz2     :     0.005475  d :     0.034821
      dxz     :     0.005835
      dyz     :     0.008194
      dx2y2   :     0.008918
      dxy     :     0.006399

 35 H s       :     0.752278  s :     0.752278
[...]
 Total          138.322          174.445          189.432  iso=     167.400

 Orientation: 
  X           0.2283089   -0.4263643    0.8752648
  Y          -0.1603327   -0.9031998   -0.3981501
  Z           0.9602960   -0.0494323   -0.2745687

 --------------
 Nucleus  39C :
 --------------

Diamagnetic contribution to the shielding tensor (ppm) : 
           265.111          3.439        -7.113
             3.121        260.307         9.886
            -6.964          8.096       259.462

Paramagnetic contribution to the shielding tensor (ppm): 
          -100.432          0.941        10.704
             5.078       -124.395        -4.138
            15.180         -5.002      -129.455

Total shielding tensor (ppm): 
           164.679          4.380         3.591
             8.199        135.912         5.748
             8.216          3.094       130.007


 Diagonalized sT*s matrix:
 
 sDSO           253.794          266.701          264.385  iso=     261.627
 sPSO          -126.313         -130.786          -97.183  iso=    -118.094
        ---------------  ---------------  ---------------
 Total          127.481          135.915          167.202  iso=     143.533

 Orientation: 
  X          -0.0680678   -0.2635396   -0.9622441
  Y          -0.4252723    0.8801340   -0.2109681
  Z           0.9025022    0.3948557   -0.1719849

 --------------
 Nucleus  43C :
 --------------

Diamagnetic contribution to the shielding tensor (ppm) : 
           258.983         -1.377        -6.164
            -4.913        245.358        11.029
            -8.629         13.856       244.484

Paramagnetic contribution to the shielding tensor (ppm): 
           -95.476         -1.058         5.941
             8.346        -94.683        -7.874
            10.234        -11.609       -92.281

Total shielding tensor (ppm): 
           163.508         -2.435        -0.222
             3.434        150.675         3.155
             1.605          2.246       152.203


 Diagonalized sT*s matrix:
 
 sDSO           233.088          258.098          257.640  iso=     249.609
 sPSO           -84.454         -103.929          -94.056  iso=     -94.147
        ---------------  ---------------  ---------------
 Total          148.633          154.169          163.584  iso=     155.462

 Orientation: 
  X           0.0073820   -0.0832328   -0.9965028
  Y           0.7967216    0.6027104   -0.0444393
  Z          -0.6043014    0.7936073   -0.0707626

 --------------
 Nucleus  44C :
 --------------

Diamagnetic contribution to the shielding tensor (ppm) : 
           250.924         -0.220         0.841
            -1.483        255.278         0.722
            -0.182          4.563       271.397

Paramagnetic contribution to the shielding tensor (ppm): 
           -71.523         -3.816        -1.950
            -0.754        -75.728        -3.962
            -0.755         -8.300       -78.915

Total shielding tensor (ppm): 
           179.401         -4.036        -1.109
            -2.237        179.549        -3.240
            -0.938         -3.737       192.482


 Diagonalized sT*s matrix:
 
 sDSO           253.908          254.500          269.191  iso=     259.200
 sPSO           -78.187          -72.156          -75.824  iso=     -75.389
        ---------------  ---------------  ---------------
 Total          175.721          182.344          193.367  iso=     183.811

 Orientation: 
  X           0.6688787    0.7431714   -0.0172501
  Y           0.7184317   -0.6522244   -0.2417835
  Z           0.1909375   -0.1493308    0.9701769

 --------------
 Nucleus  49C :
 --------------

Diamagnetic contribution to the shielding tensor (ppm) : 
           243.032         -7.273        -3.088
           -19.612        255.263         5.576
            -8.291          7.159       242.416

Paramagnetic contribution to the shielding tensor (ppm): 
           -69.807          2.038        -2.685
            17.879        -67.593         2.423
             3.997         -1.784       -75.222

Total shielding tensor (ppm): 
           173.226         -5.235        -5.773
            -1.733        187.671         8.000
            -4.294          5.375       167.194


 Diagonalized sT*s matrix:
 
 sDSO           238.814          237.716          264.182  iso=     246.904
 sPSO           -75.274          -64.152          -73.196  iso=     -70.874
        ---------------  ---------------  ---------------
 Total          163.540          173.564          190.986  iso=     176.030

 Orientation: 
  X           0.3978197   -0.8791794    0.2622655
  Y          -0.1968103   -0.3609821   -0.9115688
  Z           0.8961056    0.3110234   -0.3166373

 --------------
 Nucleus  50C :
 --------------

Diamagnetic contribution to the shielding tensor (ppm) : 
           264.870         14.350         7.604
             9.643        260.061         1.500
            16.937        -12.620       253.108

Paramagnetic contribution to the shielding tensor (ppm): 
          -187.226        -34.131       -92.762
           -43.013       -163.080        35.085
           -94.880         56.870      -246.997

Total shielding tensor (ppm): 
            77.644        -19.780       -85.158
           -33.370         96.982        36.585
           -77.943         44.250         6.111


 Diagonalized sT*s matrix:
 
 sDSO           271.585          265.983          240.472  iso=     259.346
 sPSO          -307.507         -211.324          -78.472  iso=    -199.101
        ---------------  ---------------  ---------------
 Total          -35.922           54.659          162.000  iso=      60.245

 Orientation: 
  X          -0.6649686    0.3377837   -0.6661223
  Y          -0.1510550    0.8126266    0.5628679
  Z          -0.7314364   -0.4749106    0.4893473

 --------------
 Nucleus  51C :
 --------------

Diamagnetic contribution to the shielding tensor (ppm) : 
           261.908         14.441         6.478
            14.477        262.841        -5.518
            -4.632         -1.056       268.732

Paramagnetic contribution to the shielding tensor (ppm): 
          -181.166        -39.311       -83.733
           -39.884       -155.877        38.045
           -72.460         34.017      -250.433

Total shielding tensor (ppm): 
            80.742        -24.870       -77.255
           -25.407        106.963        32.527
           -77.092         32.961        18.299


 Diagonalized sT*s matrix:
 
 sDSO           266.594          276.548          250.339  iso=     264.494
 sPSO          -301.608         -196.920          -88.948  iso=    -195.826
        ---------------  ---------------  ---------------
 Total          -35.015           79.628          161.390  iso=      68.668

 Orientation: 
  X          -0.5404152    0.5373714   -0.6474438
  Y           0.0918033    0.8025494    0.5894800
  Z          -0.8363753   -0.2591264    0.4830423

 --------------
 Nucleus  54C :
 --------------

Diamagnetic contribution to the shielding tensor (ppm) : 
           247.503         -0.313         6.191
             4.636        252.294        -4.782
            15.059         -8.272       246.250

Paramagnetic contribution to the shielding tensor (ppm): 
           -86.218         -5.171        -6.995
           -14.006        -88.495         8.698
           -16.616         14.491       -92.815

Total shielding tensor (ppm): 
           161.285         -5.484        -0.804
            -9.370        163.799         3.915
            -1.558          6.219       153.435


 Diagonalized sT*s matrix:
 
 sDSO           249.033          254.504          242.510  iso=     248.683
 sPSO           -98.096          -98.221          -71.211  iso=     -89.176
        ---------------  ---------------  ---------------
 Total          150.937          156.284          171.299  iso=     159.506

 Orientation: 
  X          -0.2419337    0.7626189   -0.5999004
  Y          -0.4722236    0.4475622    0.7594030
  Z           0.8476278    0.4670123    0.2518463

 --------------
 Nucleus  55C :
 --------------

Diamagnetic contribution to the shielding tensor (ppm) : 
           247.701          0.588         6.570
            -3.466        228.677       -12.233
            21.065        -10.729       244.270

Paramagnetic contribution to the shielding tensor (ppm): 
           -70.343         -3.084         5.475
             0.510        -46.418        10.578
            -7.599          5.465       -64.560

Total shielding tensor (ppm): 
           177.358         -2.496        12.044
            -2.956        182.260        -1.655
            13.467         -5.264       179.710


 Diagonalized sT*s matrix:
 
 sDSO           232.139          226.726          261.783  iso=     240.216
 sPSO           -66.420          -46.237          -68.663  iso=     -60.440
        ---------------  ---------------  ---------------
 Total          165.718          180.489          193.120  iso=     179.776

 Orientation: 
  X          -0.7352289   -0.2671857    0.6229369
  Y           0.0158960   -0.9255753   -0.3782298
  Z           0.6776325   -0.2681832    0.6847568

 --------------
 Nucleus  56C :
 --------------

Diamagnetic contribution to the shielding tensor (ppm) : 
           241.694         -4.772        -3.793
             2.691        252.791        -1.977
             0.586         -3.941       250.045

Paramagnetic contribution to the shielding tensor (ppm): 
           -82.736          1.660         9.286
            -1.007        -76.123         0.073
             2.742          6.376       -90.559

Total shielding tensor (ppm): 
           158.957         -3.112         5.493
             1.685        176.669        -1.903
             3.328          2.435       159.486


 Diagonalized sT*s matrix:
 
 sDSO           247.242          244.431          252.857  iso=     248.177
 sPSO           -92.459          -80.798          -76.161  iso=     -83.139
        ---------------  ---------------  ---------------
 Total          154.783          163.633          176.696  iso=     165.037

 Orientation: 
  X           0.7307888    0.6818462   -0.0321479
  Y           0.0223179    0.0232039    0.9994816
  Z          -0.6822386    0.7311275   -0.0017398

 --------------
 Nucleus  59C :
 --------------

Diamagnetic contribution to the shielding tensor (ppm) : 
           246.467         -6.031        -7.931
             9.786        256.797         5.042
             5.601          3.109       258.762

Paramagnetic contribution to the shielding tensor (ppm): 
           -62.143          7.641        -4.141
            -9.693        -82.359        -3.377
           -13.366         -3.275       -73.162

Total shielding tensor (ppm): 
           184.324          1.610       -12.072
             0.093        174.438         1.665
            -7.765         -0.166       185.599


 Diagonalized sT*s matrix:
 
 sDSO           250.604          257.198          254.224  iso=     254.009
 sPSO           -77.044          -81.296          -59.324  iso=     -72.555
        ---------------  ---------------  ---------------
 Total          173.560          175.901          194.900  iso=     181.454

 Orientation: 
  X          -0.4502787   -0.5788558   -0.6798346
  Y           0.7921099   -0.6103584   -0.0049434
  Z          -0.4120812   -0.5407296    0.7333488

 --------------
 Nucleus  60C :
 --------------

Diamagnetic contribution to the shielding tensor (ppm) : 
           239.278         -0.537         2.185
            12.464        248.236        -7.330
            -6.427         -7.657       254.034

Paramagnetic contribution to the shielding tensor (ppm): 
           -74.746         -7.417        -5.305
           -15.338        -76.569        -6.420
            -1.705         -4.747       -64.567

Total shielding tensor (ppm): 
           164.533         -7.954        -3.120
            -2.874        171.667       -13.750
            -8.132        -12.404       189.468


 Diagonalized sT*s matrix:
 
 sDSO           245.085          236.924          259.540  iso=     247.183
 sPSO           -87.938          -64.984          -62.960  iso=     -71.960
        ---------------  ---------------  ---------------
 Total          157.148          171.940          196.580  iso=     175.223

 Orientation: 
  X           0.7161997    0.6921288   -0.0895305
  Y           0.5918020   -0.6703006   -0.4477360
  Z           0.3699033   -0.2676841    0.8896723



--------------------------------
CHEMICAL SHIELDING SUMMARY (ppm)
--------------------------------


  Nucleus  Element    Isotropic     Anisotropy
  -------  -------  ------------   ------------
      0       C           61.463        151.773 
      1       C          154.578         12.247 
      2       C          132.384         50.975 
      5       C           50.847        177.640 
      6       C          168.011         31.804 
      7       C          164.922         17.187 
     14       C           71.717        133.321 
     15       C           83.640        119.656 
     18       C           80.160        133.969 
     20       C           52.240        175.759 
     22       C          169.001          7.464 
     23       C          174.071         13.168 
     26       C          158.758         24.175 
     29       C          154.222         16.861 
     32       C          142.615         28.245 
     34       C          174.854         24.297 
     36       C          167.400         33.049 
     39       C          143.533         35.504 
     43       C          155.462         12.183 
     44       C          183.811         14.334 
     49       C          176.030         22.434 
     50       C           60.245        152.631 
     51       C           68.668        139.083 
     54       C          159.506         17.689 
     55       C          179.776         20.017 
     56       C          165.037         17.488 
     59       C          181.454         20.169 
     60       C          175.223         32.036 


NMR shielding tensor and spin rotation calculation done in   1.1 sec 

Maximum memory used throughout the entire PROP-calculation: 52.5 MB

--------------------------------
SUGGESTED CITATIONS FOR THIS RUN
--------------------------------

Below you find a list of papers that are relevant to this ORCA run
We neither can nor want to force you to cite these papers, but we appreciate if you do
You receive ORCA, which is the product of decades of hard work by many enthusiastic individuals, for free
The only thing we kindly ask in return is that you cite our papers,
We deeply appreciate it, if you show your appreciation for ORCA by not just citing the generic ORCA reference.

Please note that relegating all ORCA citations to the supporting information does *not* help us.
SI sections are not indexed - citations you put there will not count into any citation statistics
But we need these citations in order to attract the funding resources that allow us to do what we are doing

Therefore, if you are a happy ORCA user, please consider citing a few of the papers listed below in the main body of your paper

In addition to the list printed below, the program has created the file inpS.bibtex that contains the list in bibtex format
You can import this file easily into all common literature databanks and citation aid programs


List of essential papers. We consider these as the minimum necessary citations

  1. Neese,F.
     Software update: the ORCA program system, version 5.0
     WIRES Comput. Molec. Sci., 2022 12(1)e1606
     doi.org/10.1002/wcms.1606

List of papers to cite with high priority. The work reported in these papers was absolutely
necessary for this run to complete.
Our perspective: the developers of density functionals and basis sets usually get cited in chemistry papers
Good! But without the algorithms to do something with them, the functionals or basis sets would not do anything.
Hence, in our opinion, the algorithm design and method developments papers are equally worthy of getting cited

  1. Neese,F.
     An improvement of the resolution of the identity approximation for the formation of the Coulomb matrix
     J. Comp. Chem., 2003 24(14)1740-1747
     doi.org/10.1002/jcc.10318
  2. Neese,F.; Wennmohs,F.; Hansen,A.; Becker,U.
     Efficient, approximate and parallel Hartree-Fock and hybrid DFT calculations. A 'chain-of-spheres' algorithm for the Hartree-Fock exchange
     Chem. Phys., 2009 356(1-3)98-109
     doi.org/10.1016/j.chemphys.2008.10.036
  3. Stoychev,G.L.; Auer,A.A.; Izsak,R.; Neese,F.
     Self-Consistent Field Calculation of Nuclear Magnetic Resonance Chemical Shielding Constants Using Gauge-Including Atomic Orbitals and Approximate Two-Electron Integrals
     J. Chem. Theory Comput., 2018 14(2)619-637
     doi.org/10.1021/acs.jctc.7b01006
  4. Garcia-Rates,M.; Neese,F.
     Effect of the Solute Cavity on the Solvation Energy and its Derivatives within the Framework of the Gaussian Charge Scheme
     J. Comput. Chem., 2020 41 922-939
     doi.org/10.1002/jcc.26139
  5. Helmich-Paris,B.; de Souza,B.; Neese,F.; Izsák,R.
     An improved chain of spheres for exchange algorithm
     J. Chem. Phys., 2021 155 104109
     doi.org/doi: 10.1063/5.0058766.
  6. Neese,F.
     The SHARK Integral Generation and Digestion System
     J. Comp. Chem., 2022  1-16
     doi.org/10.1002/jcc.26942
  7. Caldeweyher,E.; Bannwarth,C.; Grimme,S.
     Extension of the D3 dispersion coefficient model
     J. Chem. Phys., 2017 147 034112-XXXX
     doi.org/10.1063/1.4993215
  8. Caldeweyher,E.; Ehlert,S.; Hansen,A.; Neugebauer,H.; Spicher,S.; Bannwarth,C.; Grimme,S.
     A generally applicable atomic-charge dependent London dispersion correction
     J. Chem. Phys., 2019 150 154122-XXXX
     doi.org/10.1063/1.5090222
  9. Caldeweyher,E.; Mewes,J.; Ehlert,S.; Grimme,S.
     Extension and evaluation of the D4 London-dispersion model for periodic systems
     Phys. Chem. Chem. Phys., 2020 22(16)8499-8512
     doi.org/10.1039/D0CP00502A

List of suggested additional citations. These are papers that are important in the 'surrounding' of 
of this run, or papers that preceded the highly important papers. If you like your results we are grateful for a citation.

  1. Izsak,R.; Neese,F.
     An overlap fitted chain of spheres exchange method
     J. Chem. Phys., 2011 135 144105
     doi.org/10.1063/1.3646921
  2. Izsak,R.; Hansen,A.; Neese,F.
     The resolution of identity and chain of spheres approximations for the LPNO-CCSD singles Fock term
     Molec. Phys., 2012 110 2413-2417
     doi.org/10.1080/00268976.2012.687466
  3. Neese,F.
     The ORCA program system
     WIRES Comput. Molec. Sci., 2012 2(1)73-78
     doi.org/10.1002/wcms.81
  4. Izsak,R.; Neese,F.; Klopper,W.
     Robust fitting techniques in the chain of spheres approximation to the Fock exchange: The role of the complementary space
     J. Chem. Phys., 2013 139 
     doi.org/10.1063/1.4819264
  5. Neese,F.
     Software update: the ORCA program system, version 4.0
     WIRES Comput. Molec. Sci., 2018 8(1)1-6
     doi.org/10.1002/wcms.1327
  6. Neese,F.; Wennmohs,F.; Becker,U.; Riplinger,C.
     The ORCA quantum chemistry program package
     J. Chem. Phys., 2020 152 Art. No. L224108
     doi.org/10.1063/5.0004608

Timings for individual modules:

Sum of individual times          ...      181.122 sec (=   3.019 min)
Startup calculation              ...        4.478 sec (=   0.075 min)   2.5 %
SCF iterations                   ...       72.955 sec (=   1.216 min)  40.3 %
Property integrals               ...       62.203 sec (=   1.037 min)  34.3 %
SCF Response                     ...       40.145 sec (=   0.669 min)  22.2 %
Property calculations            ...        1.340 sec (=   0.022 min)   0.7 %
                             ****ORCA TERMINATED NORMALLY****
TOTAL RUN TIME: 0 days 0 hours 3 minutes 1 seconds 412 msec
