
                                 *****************
                                 * O   R   C   A *
                                 *****************

                                            #,                                       
                                            ###                                      
                                            ####                                     
                                            #####                                    
                                            ######                                   
                                           ########,                                 
                                     ,,################,,,,,                         
                               ,,#################################,,                 
                          ,,##########################################,,             
                       ,#########################################, ''#####,          
                    ,#############################################,,   '####,        
                  ,##################################################,,,,####,       
                ,###########''''           ''''###############################       
              ,#####''   ,,,,##########,,,,          '''####'''          '####       
            ,##' ,,,,###########################,,,                        '##       
           ' ,,###''''                  '''############,,,                           
         ,,##''                                '''############,,,,        ,,,,,,###''
      ,#''                                            '''#######################'''  
     '                                                          ''''####''''         
             ,#######,   #######,   ,#######,      ##                                
            ,#'     '#,  ##    ##  ,#'     '#,    #''#        ,####,   ,####,        
            ##       ##  ##   ,#'  ##            #'  '#       #'       #'  '#        
            ##       ##  #######   ##           ,######,      #####,   #    #        
            '#,     ,#'  ##    ##  '#,     ,#' ,#      #,     #,   #   #,  ,#        
             '#######'   ##     ##  '#######'  #'      '#     '####' # '####'        



                #########################################################
                #                        -***-                          #
                #          Department of theory and spectroscopy        #
                #                                                       #
                #                      Frank Neese                      #
                #                                                       #
                #     Directorship, Architecture, Infrastructure        #
                #                    SHARK, DRIVERS                     #
                #        Core code/Algorithms in most modules           #
                #                                                       #
                #        Max Planck Institute fuer Kohlenforschung      #
                #                Kaiser Wilhelm Platz 1                 #
                #                 D-45470 Muelheim/Ruhr                 #
                #                      Germany                          #
                #                                                       #
                #                  All rights reserved                  #
                #                        -***-                          #
                #########################################################


                         Program Version 6.0.0  -   RELEASE  -


 With contributions from (in alphabetic order):
   Daniel Aravena         : Magnetic Suceptibility
   Michael Atanasov       : Ab Initio Ligand Field Theory (pilot matlab implementation)
   Alexander A. Auer      : GIAO ZORA, VPT2 properties, NMR spectrum
   Ute Becker             : All parallelization in ORCA, NUMFREQ, NUMCALC
   Giovanni Bistoni       : ED, misc. LED, open-shell LED, HFLD
   Martin Brehm           : Molecular dynamics
   Dmytro Bykov           : pre 5.0 version of the SCF Hessian
   Marcos Casanova-Páez   : Triplet and SCS-CIS(D). UHF-(DLPNO)-IP/EA/STEOM-CCSD. UHF-CVS-IP/STEOM-CCSD
   Vijay G. Chilkuri      : MRCI spin determinant printing, contributions to CSF-ICE
   Pauline Colinet        : FMM embedding
   Dipayan Datta          : RHF DLPNO-CCSD density
   Achintya Kumar Dutta   : EOM-CC, STEOM-CC
   Nicolas Foglia         : Exact transition moments, OPA infrastructure, MCD improvements
   Dmitry Ganyushin       : Spin-Orbit,Spin-Spin,Magnetic field MRCI
   Miquel Garcia          : C-PCM and meta-GGA Hessian, CCSD/C-PCM, Gaussian charge scheme
   Tiago L. C. Gouveia    : GS-ROHF, GS-ROCIS
   Yang Guo               : DLPNO-NEVPT2, F12-NEVPT2, CIM, IAO-localization
   Andreas Hansen         : Spin unrestricted coupled pair/coupled cluster methods
   Ingolf Harden          : AUTO-CI MPn and infrastructure 
   Benjamin Helmich-Paris : MC-RPA, TRAH-(SCF,CASSCF), AVAS, COSX integrals, SCF dyn. polar.
   Lee Huntington         : MR-EOM, pCC
   Robert Izsak           : Overlap fitted RIJCOSX, COSX-SCS-MP3, EOM
   Riya Kayal             : Wick's Theorem for AUTO-CI, AUTO-CI UHF-CCSDT
   Emily Kempfer          : AUTO-CI, RHF CISDT and CCSDT
   Christian Kollmar      : KDIIS, OOCD, Brueckner-CCSD(T), CCSD density, CASPT2, CASPT2-K, improved NEVPT2
   Axel Koslowski         : Symmetry handling
   Simone Kossmann        : Meta GGA functionals, TD-DFT gradient, OOMP2, (MP2 Hessian; deprecated post 5.0)
   Lucas Lang             : DCDCAS
   Marvin Lechner         : AUTO-CI (C++ implementation), FIC-MRCC
   Spencer Leger          : CASSCF response
   Dagmar Lenk            : GEPOL surface, SMD, ORCA-2-JSON
   Dimitrios Liakos       : Extrapolation schemes; Compound Job, initial MDCI parallelization
   Dimitrios Manganas     : Further ROCIS development; embedding schemes. LFT, Crystal Embedding
   Dimitrios Pantazis     : SARC Basis sets
   Anastasios Papadopoulos: AUTO-CI, single reference methods and gradients
   Taras Petrenko         : pre 6.0 DFT Hessian and TD-DFT gradient, (ASA, deprecated), ECA, 1-Electron XAS/XES, NRVS
   Peter Pinski           : DLPNO-MP2, DLPNO-MP2 Gradient
   Christoph Reimann      : Effective Core Potentials
   Marius Retegan         : Local ZFS, SOC
   Christoph Riplinger    : Optimizer, TS searches, QM/MM, DLPNO-CCSD(T), (RO)-DLPNO pert. Triples
   Michael Roemelt        : Original ROCIS implementation
   Masaaki Saitow         : Open-shell DLPNO-CCSD energy and density
   Barbara Sandhoefer     : DKH picture change effects
   Kantharuban Sivalingam : CASSCF convergence/infrastructure, NEVPT2 and variants, FIC-MRCI
   Bernardo de Souza      : ESD, SOC TD-DFT
   Georgi Stoychev        : AutoAux, RI-MP2 NMR, DLPNO-MP2 response, X2C
   Van Anh Tran           : RI-MP2 g-tensors
   Willem Van den Heuvel  : Paramagnetic NMR
   Zikuan Wang            : NOTCH, Electric field optimization 
   Frank Wennmohs         : Technical directorship and infrastructure
   Hang Xu                : AUTO-CI-Response properties 


 We gratefully acknowledge several colleagues who have allowed us to
 interface, adapt or use parts of their codes:
   Stefan Grimme, W. Hujo, H. Kruse, P. Pracht,  : VdW corrections, initial TS optimization,
                  C. Bannwarth, S. Ehlert,         DFT functionals, gCP, sTDA/sTD-DF
                  L. Wittmann, M. Mueller
   Ed Valeev, F. Pavosevic, A. Kumar             : LibInt (2-el integral package), F12 methods
   Garnet Chan, S. Sharma, J. Yang, R. Olivares  : DMRG
   Ulf Ekstrom                                   : XCFun DFT Library
   Mihaly Kallay                                 : mrcc  (arbitrary order and MRCC methods)
   Frank Weinhold                                : gennbo (NPA and NBO analysis)
   Simon Mueller                                 : openCOSMO-RS
   Christopher J. Cramer and Donald G. Truhlar   : smd solvation model
   Lars Goerigk                                  : TD-DFT with DH, B97 family of functionals
   V. Asgeirsson, H. Jonsson                     : NEB implementation
   FAccTs GmbH                                   : IRC, NEB, NEB-TS, DLPNO-Multilevel, CI-OPT
                                                   MM, QMMM, 2- and 3-layer-ONIOM, Crystal-QMMM,
                                                   LR-CPCM, SF, NACMEs, symmetry and pop. for TD-DFT,
                                                   nearIR, NL-DFT gradient (VV10), updates on ESD,
                                                   ML-optimized integration grids, MBIS, APM,
                                                   GOAT, DOCKER, SOLVATOR, interface openCOSMO-RS
   S Lehtola, MJT Oliveira, MAL Marques          : LibXC Library
   Liviu Ungur et al                             : ANISO software


 Your calculation uses the libint2 library for the computation of 2-el integrals
 For citations please refer to: http://libint.valeyev.net

 Your ORCA version has been built with support for libXC version: 6.2.2
 For citations please refer to: https://libxc.gitlab.io

 This ORCA versions uses:
   CBLAS   interface :  Fast vector & matrix operations
   LAPACKE interface :  Fast linear algebra routines
   SCALAPACK package :  Parallel linear algebra routines
   Shared memory     :  Shared parallel matrices
   BLAS/LAPACK       :  OpenBLAS 0.3.27  USE64BITINT DYNAMIC_ARCH NO_AFFINITY Zen SINGLE_THREADED
        Core in use  :  Zen
   Copyright (c) 2011-2014, The OpenBLAS Project


NOTE: MaxCore=8000 MB was set to SCF,MP2,MDCI,CIPSI,MRCI and CIS
      => If you want to overwrite this, your respective input block should be placed after the MaxCore statement
Your calculation utilizes the atom-pairwise dispersion correction
based on EEQ partial charges (D4)


================================================================================

----- Orbital basis set information -----
Your calculation utilizes the basis: pcJ-0
   F. Jensen, Theor. Chem. Acc. 126, 371 (2010).

----- AuxJ basis set information -----
Your calculation utilizes the auxiliary basis: def2/J
   F. Weigend, Phys. Chem. Chem. Phys. 8, 1057 (2006).

================================================================================
                                        WARNINGS
                       Please study these warnings very carefully!
================================================================================

WARNING: Old DensityContainer found on disk!
         Will remove this file - 
         If you want to keep old densities, please start your calculation with a different basename. 


================================================================================
                                       INPUT FILE
================================================================================
NAME = inpJ
|  1> ! pbe0
|  2> ! D4
|  3> ! pcJ-0
|  4> ! def2/J RIJCOSX
|  5> ! DEFGRID2
|  6> ! scfconv7
|  7> ! smallprint printgap noloewdin
|  8> ! NOSOSCF
|  9> %MaxCore 8000
| 10> %output
| 11>        print[P_BondOrder_M] 1
| 12>        print[P_Mayer] 1
| 13>        print[P_basis] 2
| 14> end
| 15> %pal
| 16>     nprocs 4
| 17> end
| 18> ! CPCM(chloroform)
| 19> *xyz 0 1
| 20> C   -5.0041899600   0.2135301100  -0.5091239400
| 21> C   -6.4535318900  -0.1732168500  -0.6870003700
| 22> C   -7.3639808100   0.7780977500   0.0999740400
| 23> H   -6.6211802100  -1.2065932400  -0.3629322700
| 24> H   -6.7309100200  -0.1017069300  -1.7492189100
| 25> C   -4.7155304400   1.6278886400  -0.8348792200
| 26> C   -5.6459820300   2.6239133300  -0.1786672300
| 27> C   -7.1196821800   2.2236252700  -0.3363056100
| 28> H   -5.4737493800   3.6267151200  -0.5839428400
| 29> H   -5.4051895300   2.6661932100   0.8945247300
| 30> H   -7.4165851800   2.3211870900  -1.3894868600
| 31> H   -7.7570168500   2.8957755500   0.2498676300
| 32> O   -7.1712420000   0.6105660300   1.5144435800
| 33> H   -8.4131952800   0.5136307100  -0.0805666200
| 34> C   -4.0956779200  -0.6692055600  -0.0299170200
| 35> C   -3.7409010800   2.0009808500  -1.6715057700
| 36> H   -3.0937210800   1.2692485100  -2.1477144400
| 37> H   -3.5760486800   3.0500439100  -1.9059098900
| 38> C   -2.7126132900  -0.3849324100   0.2770541400
| 39> H   -4.4595424500  -1.6768811500   0.1675688600
| 40> C   -1.7688336600  -1.2810601800   0.6356113300
| 41> H   -2.4201993100   0.6608990400   0.2147844800
| 42> C   -1.9647274300  -2.7719451700   0.7401065300
| 43> C   -0.9563208600  -3.5357611500  -0.1409575300
| 44> H   -2.9827712900  -3.0773905000   0.4836865100
| 45> H   -1.7932241600  -3.0637930500   1.7883628100
| 46> C    0.4935335100  -3.0913683000   0.0963008700
| 47> H   -1.2219464000  -3.3896236800  -1.1956056900
| 48> H   -1.0480467900  -4.6106952800   0.0573561800
| 49> C    0.6579339800  -1.5725655200  -0.0508650900
| 50> H    1.1479445800  -3.6319869100  -0.5955467100
| 51> H    0.7974237200  -3.3768836200   1.1147263700
| 52> C   -0.3519840300  -0.8952560300   0.9309062300
| 53> H   -0.1085220200  -1.3273481800   1.9187944800
| 54> C    0.0793328000   0.5680618400   0.9595705300
| 55> H   -6.2196363600   0.5336339200   1.6728908300
| 56> C    1.6219448300   0.4941154000   0.8535964000
| 57> H   -0.2620454400   1.0797995800   1.8654947400
| 58> H   -0.3359962400   1.1136349500   0.1049632400
| 59> C    1.9891993000  -0.9741491600   0.4834203600
| 60> H    2.1098804000   0.7870338200   1.7885573500
| 61> H    1.9957865200   1.1792237300   0.0837066200
| 62> H    2.2289083800  -1.5206058300   1.4104219500
| 63> C    3.2418735000  -1.0329300200  -0.4147024200
| 64> C    0.4005847000  -1.1262355000  -1.4968151300
| 65> H    0.6217087100  -0.0630551800  -1.6350993700
| 66> H   -0.6434270900  -1.2824852300  -1.7853223000
| 67> H    1.0307986800  -1.6898348100  -2.1935329800
| 68> H    3.0269914600  -0.4787969700  -1.3402810000
| 69> C    3.6618479200  -2.4641335800  -0.7821291200
| 70> C    4.3907168000  -0.3469134900   0.2781365200
| 71> C    5.0314602600   0.7225123300  -0.1939765500
| 72> H    4.6992097800  -0.8002346100   1.2229108900
| 73> H    4.6890630700   1.1349584300  -1.1454984900
| 74> C    6.1972336700   1.4373305100   0.4365089600
| 75> C    6.7516318400   0.7383417400   1.6778103100
| 76> C    5.8804265200   2.9356691800   0.7124795200
| 77> H    7.0012677300   1.4478000400  -0.3190666700
| 78> H    6.7986687400   3.3595954600   1.1468726000
| 79> C    4.7456119300   3.1240907800   1.7208264400
| 80> C    5.5791042200   3.7070133500  -0.5754971600
| 81> H    6.0000096900   0.6450616300   2.4684923900
| 82> H    7.5964958500   1.3052937500   2.0835118200
| 83> H    7.1033973000  -0.2701062500   1.4353467900
| 84> H    4.9627818300   2.6453360600   2.6810040700
| 85> H    3.8129960700   2.6972182300   1.3336172500
| 86> H    4.5760649200   4.1898459200   1.9110427100
| 87> H    6.3507715500   3.5360584900  -1.3352085900
| 88> H    5.5335700300   4.7830995300  -0.3747999000
| 89> H    4.6125087000   3.4122390700  -0.9996030300
| 90> H    2.9299101000  -2.9493297700  -1.4328384800
| 91> H    3.7763356800  -3.0785398200   0.1194832400
| 92> H    4.6227242900  -2.4531569600  -1.3076899100
| 93> *
| 94> %eprnmr
| 95>  Nuclei = all C { ssfc }
| 96>  SpinSpinRThresh 8.0
| 97> end
| 98> 
| 99>                          ****END OF INPUT****
================================================================================

                       ****************************
                       * Single Point Calculation *
                       ****************************

---------------------------------
CARTESIAN COORDINATES (ANGSTROEM)
---------------------------------
  C     -5.004190    0.213530   -0.509124
  C     -6.453532   -0.173217   -0.687000
  C     -7.363981    0.778098    0.099974
  H     -6.621180   -1.206593   -0.362932
  H     -6.730910   -0.101707   -1.749219
  C     -4.715530    1.627889   -0.834879
  C     -5.645982    2.623913   -0.178667
  C     -7.119682    2.223625   -0.336306
  H     -5.473749    3.626715   -0.583943
  H     -5.405190    2.666193    0.894525
  H     -7.416585    2.321187   -1.389487
  H     -7.757017    2.895776    0.249868
  O     -7.171242    0.610566    1.514444
  H     -8.413195    0.513631   -0.080567
  C     -4.095678   -0.669206   -0.029917
  C     -3.740901    2.000981   -1.671506
  H     -3.093721    1.269249   -2.147714
  H     -3.576049    3.050044   -1.905910
  C     -2.712613   -0.384932    0.277054
  H     -4.459542   -1.676881    0.167569
  C     -1.768834   -1.281060    0.635611
  H     -2.420199    0.660899    0.214784
  C     -1.964727   -2.771945    0.740107
  C     -0.956321   -3.535761   -0.140958
  H     -2.982771   -3.077390    0.483687
  H     -1.793224   -3.063793    1.788363
  C      0.493534   -3.091368    0.096301
  H     -1.221946   -3.389624   -1.195606
  H     -1.048047   -4.610695    0.057356
  C      0.657934   -1.572566   -0.050865
  H      1.147945   -3.631987   -0.595547
  H      0.797424   -3.376884    1.114726
  C     -0.351984   -0.895256    0.930906
  H     -0.108522   -1.327348    1.918794
  C      0.079333    0.568062    0.959571
  H     -6.219636    0.533634    1.672891
  C      1.621945    0.494115    0.853596
  H     -0.262045    1.079800    1.865495
  H     -0.335996    1.113635    0.104963
  C      1.989199   -0.974149    0.483420
  H      2.109880    0.787034    1.788557
  H      1.995787    1.179224    0.083707
  H      2.228908   -1.520606    1.410422
  C      3.241873   -1.032930   -0.414702
  C      0.400585   -1.126235   -1.496815
  H      0.621709   -0.063055   -1.635099
  H     -0.643427   -1.282485   -1.785322
  H      1.030799   -1.689835   -2.193533
  H      3.026991   -0.478797   -1.340281
  C      3.661848   -2.464134   -0.782129
  C      4.390717   -0.346913    0.278137
  C      5.031460    0.722512   -0.193977
  H      4.699210   -0.800235    1.222911
  H      4.689063    1.134958   -1.145498
  C      6.197234    1.437331    0.436509
  C      6.751632    0.738342    1.677810
  C      5.880427    2.935669    0.712480
  H      7.001268    1.447800   -0.319067
  H      6.798669    3.359595    1.146873
  C      4.745612    3.124091    1.720826
  C      5.579104    3.707013   -0.575497
  H      6.000010    0.645062    2.468492
  H      7.596496    1.305294    2.083512
  H      7.103397   -0.270106    1.435347
  H      4.962782    2.645336    2.681004
  H      3.812996    2.697218    1.333617
  H      4.576065    4.189846    1.911043
  H      6.350772    3.536058   -1.335209
  H      5.533570    4.783100   -0.374800
  H      4.612509    3.412239   -0.999603
  H      2.929910   -2.949330   -1.432838
  H      3.776336   -3.078540    0.119483
  H      4.622724   -2.453157   -1.307690

----------------------------
CARTESIAN COORDINATES (A.U.)
----------------------------
  NO LB      ZA    FRAG     MASS         X           Y           Z
   0 C     6.0000    0    12.011   -9.456549    0.403513   -0.962105
   1 C     6.0000    0    12.011  -12.195408   -0.327332   -1.298243
   2 C     6.0000    0    12.011  -13.915907    1.470392    0.188924
   3 H     1.0000    0     1.008  -12.512217   -2.280131   -0.685843
   4 H     1.0000    0     1.008  -12.719577   -0.192198   -3.305545
   5 C     6.0000    0    12.011   -8.911061    3.076264   -1.577693
   6 C     6.0000    0    12.011  -10.669360    4.958478   -0.337632
   7 C     6.0000    0    12.011  -13.454249    4.202043   -0.635526
   8 H     1.0000    0     1.008  -10.343887    6.853498   -1.103492
   9 H     1.0000    0     1.008  -10.214328    5.038375    1.690407
  10 H     1.0000    0     1.008  -14.015315    4.386408   -2.625750
  11 H     1.0000    0     1.008  -14.658637    5.472223    0.472181
  12 O     8.0000    0    15.999  -13.551683    1.153803    2.861884
  13 H     1.0000    0     1.008  -15.898635    0.970621   -0.152249
  14 C     6.0000    0    12.011   -7.739710   -1.264615   -0.056535
  15 C     6.0000    0    12.011   -7.069279    3.781306   -3.158688
  16 H     1.0000    0     1.008   -5.846286    2.398532   -4.058592
  17 H     1.0000    0     1.008   -6.757753    5.763748   -3.601648
  18 C     6.0000    0    12.011   -5.126096   -0.727417    0.523556
  19 H     1.0000    0     1.008   -8.427314   -3.168846    0.316659
  20 C     6.0000    0    12.011   -3.342611   -2.420853    1.201131
  21 H     1.0000    0     1.008   -4.573514    1.248918    0.405884
  22 C     6.0000    0    12.011   -3.712797   -5.238217    1.398599
  23 C     6.0000    0    12.011   -1.807185   -6.681620   -0.266371
  24 H     1.0000    0     1.008   -5.636621   -5.815425    0.914035
  25 H     1.0000    0     1.008   -3.388703   -5.789730    3.379516
  26 C     6.0000    0    12.011    0.932643   -5.841839    0.181982
  27 H     1.0000    0     1.008   -2.309144   -6.405460   -2.259367
  28 H     1.0000    0     1.008   -1.980521   -8.712951    0.108387
  29 C     6.0000    0    12.011    1.243315   -2.971718   -0.096121
  30 H     1.0000    0     1.008    2.169301   -6.863461   -1.125420
  31 H     1.0000    0     1.008    1.506912   -6.381385    2.106528
  32 C     6.0000    0    12.011   -0.665153   -1.691789    1.759158
  33 H     1.0000    0     1.008   -0.205077   -2.508325    3.625996
  34 C     6.0000    0    12.011    0.149917    1.073481    1.813326
  35 H     1.0000    0     1.008  -11.753409    1.008422    3.161306
  36 C     6.0000    0    12.011    3.065032    0.933743    1.613063
  37 H     1.0000    0     1.008   -0.495194    2.040525    3.525274
  38 H     1.0000    0     1.008   -0.634941    2.104465    0.198352
  39 C     6.0000    0    12.011    3.759042   -1.840875    0.913532
  40 H     1.0000    0     1.008    3.987096    1.487278    3.379884
  41 H     1.0000    0     1.008    3.771490    2.228410    0.158183
  42 H     1.0000    0     1.008    4.212026   -2.873529    2.665311
  43 C     6.0000    0    12.011    6.126253   -1.951955   -0.783674
  44 C     6.0000    0    12.011    0.756995   -2.128277   -2.828571
  45 H     1.0000    0     1.008    1.174859   -0.119157   -3.089890
  46 H     1.0000    0     1.008   -1.215901   -2.423546   -3.373770
  47 H     1.0000    0     1.008    1.947927   -3.193325   -4.145177
  48 H     1.0000    0     1.008    5.720185   -0.904795   -2.532764
  49 C     6.0000    0    12.011    6.919890   -4.656538   -1.478010
  50 C     6.0000    0    12.011    8.297252   -0.655571    0.525602
  51 C     6.0000    0    12.011    9.508082    1.365350   -0.366563
  52 H     1.0000    0     1.008    8.880220   -1.512224    2.310967
  53 H     1.0000    0     1.008    8.861045    2.144761   -2.164678
  54 C     6.0000    0    12.011   11.711074    2.716161    0.824882
  55 C     6.0000    0    12.011   12.758735    1.395264    3.170602
  56 C     6.0000    0    12.011   11.112396    5.547611    1.346391
  57 H     1.0000    0     1.008   13.230479    2.735946   -0.602949
  58 H     1.0000    0     1.008   12.847622    6.348715    2.167275
  59 C     6.0000    0    12.011    8.967907    5.903676    3.251891
  60 C     6.0000    0    12.011   10.542979    7.005240   -1.087532
  61 H     1.0000    0     1.008   11.338375    1.218990    4.664775
  62 H     1.0000    0     1.008   14.355297    2.466648    3.937267
  63 H     1.0000    0     1.008   13.423476   -0.510427    2.712412
  64 H     1.0000    0     1.008    9.378299    4.998961    5.066363
  65 H     1.0000    0     1.008    7.205518    5.097004    2.520171
  66 H     1.0000    0     1.008    8.647509    7.917661    3.611347
  67 H     1.0000    0     1.008   12.001219    6.682182   -2.523179
  68 H     1.0000    0     1.008   10.456932    9.038748   -0.708269
  69 H     1.0000    0     1.008    8.716378    6.448197   -1.888976
  70 H     1.0000    0     1.008    5.536728   -5.573426   -2.707672
  71 H     1.0000    0     1.008    7.136240   -5.817597    0.225791
  72 H     1.0000    0     1.008    8.735683   -4.635795   -2.471176

--------------------------------
INTERNAL COORDINATES (ANGSTROEM)
--------------------------------
 C      0   0   0     0.000000000000     0.00000000     0.00000000
 C      1   0   0     1.510564551906     0.00000000     0.00000000
 C      2   1   0     1.534029147734   110.50347115     0.00000000
 H      2   1   3     1.095898196023   110.69407127   237.86753304
 H      2   1   3     1.100163861604   109.81338487   118.76842331
 C      1   2   3     1.479814472263   113.95007095   306.25260951
 C      6   1   2     1.512752299698   114.44540317    49.66698635
 C      3   2   1     1.529565809209   110.17871541    56.71851662
 H      7   6   1     1.095227755225   110.21921989   188.79197265
 H      7   6   1     1.100685967621   108.28150052    72.14338065
 H      8   3   2     1.098572002867   108.31304939    64.42127466
 H      8   3   2     1.096166295678   109.51798853   181.40752597
 O      3   2   1     1.437337540620   110.66984045   292.71021091
 H      3   2   1     1.096990769887   109.49452741   177.19566716
 C      1   2   3     1.354346950412   121.22601549   123.25541885
 C      6   1   2     1.337551558147   123.12221188   231.63307209
 H     16   6   1     1.086760722139   121.34584675   359.01739425
 H     16   6   1     1.087499383501   120.95444932   178.40156697
 C     15   1   2     1.444960306597   126.08737155   185.01563263
 H     15   1   2     1.089407253360   116.29348379     3.03284862
 C     19  15   1     1.349936379489   126.51337067   186.62507809
 H     19  15   1     1.087725548135   115.74141347     7.05468515
 C     21  19  15     1.507325999695   125.74245630     2.27124559
 C     23  21  19     1.541613615517   111.43403052   123.86082202
 H     23  21  19     1.093371564089   112.39954829     0.29200327
 H     23  21  19     1.101557890100   107.92596279   242.40750714
 C     24  23  21     1.534879229031   112.71158005    51.07434851
 H     24  23  21     1.097358569033   108.96301328   288.93342413
 H     24  23  21     1.096916294731   109.11776355   173.02402522
 C     27  24  23     1.534746630182   111.89361786   306.52392553
 H     27  24  23     1.095068675458   108.89882010   183.00711705
 H     27  24  23     1.100481147834   109.19479452    66.55114710
 C     21  19  15     1.497834034249   122.86814272   179.72674005
 H     33  21  19     1.105396114926   106.48990520   128.08668718
 C     33  21  19     1.525829295366   121.20616870     5.40079450
 H     13   3   2     0.967769277597   107.59217165    42.68772206
 C     35  33  21     1.548015008751   103.56761985   196.95908437
 H     35  33  21     1.095040315034   112.06107774    74.93535283
 H     35  33  21     1.095674153179   110.83812403   315.32122608
 C     30  27  24     1.554294191661   116.09081386   166.31727756
 H     37  35  33     1.094547531755   111.89897162   249.81524278
 H     37  35  33     1.096294352063   110.97977327   131.25679331
 H     40  30  27     1.102455116131   106.52509985   321.40674080
 C     40  30  27     1.542489017401   118.73502458    82.24061134
 C     30  27  24     1.534995327956   111.10736905   294.14447581
 H     45  30  27     1.094701215705   111.56307751   186.21636761
 H     45  30  27     1.094354139630   111.51629539    66.19641428
 H     45  30  27     1.095549910013   110.67293640   306.04791558
 H     44  40  30     1.099969743207   108.18569911    60.30673937
 C     44  40  30     1.536139486988   113.37838297   299.59765891
 C     44  40  30     1.506812995752   109.51828601   177.61165084
 C     51  44  40     1.333084587294   124.67024798   240.99127099
 H     51  44  40     1.092367413811   115.09121037    62.04795354
 H     52  51  44     1.092127109556   117.44051487     0.73719258
 C     52  51  44     1.505823579388   127.20286372   181.12258381
 C     55  52  51     1.528650278186   113.80988610     6.39287459
 C     55  52  51     1.556131514460   111.94487666   238.51930894
 H     55  52  51     1.103392456630   106.37525096   124.23326913
 H     57  55  52     1.100717771918   105.72286538   181.24981807
 C     57  55  52     1.529728853130   112.73854566    63.30510977
 C     57  55  52     1.531225288876   112.08156403   298.17960402
 H     56  55  52     1.094904190752   112.11043272   299.81894379
 H     56  55  52     1.095364547652   110.10954454   179.77868760
 H     56  55  52     1.095214520500   110.96195570    60.12470988
 H     60  57  55     1.094673434656   112.15648217    58.07345318
 H     60  57  55     1.096322704813   110.50540997   297.56564704
 H     60  57  55     1.095793062767   110.42626398   178.18454859
 H     61  57  55     1.096292611131   111.45855371   309.95835082
 H     61  57  55     1.095588526509   110.41814404   189.89124124
 H     61  57  55     1.095930912239   111.31996331    70.74096663
 H     50  44  40     1.092964311553   111.89562821    67.33005001
 H     50  44  40     1.097044813417   110.71690773   306.67600771
 H     50  44  40     1.095270755839   110.19921921   187.30263547

---------------------------
INTERNAL COORDINATES (A.U.)
---------------------------
 C      0   0   0     0.000000000000     0.00000000     0.00000000
 C      1   0   0     2.854553310712     0.00000000     0.00000000
 C      2   1   0     2.898894970670   110.50347115     0.00000000
 H      2   1   3     2.070947461141   110.69407127   237.86753304
 H      2   1   3     2.079008400870   109.81338487   118.76842331
 C      1   2   3     2.796444081590   113.95007095   306.25260951
 C      6   1   2     2.858687554890   114.44540317    49.66698635
 C      3   2   1     2.890460483215   110.17871541    56.71851662
 H      7   6   1     2.069680511644   110.21921989   188.79197265
 H      7   6   1     2.079995038254   108.28150052    72.14338065
 H      8   3   2     2.076000223811   108.31304939    64.42127466
 H      8   3   2     2.071454096066   109.51798853   181.40752597
 O      3   2   1     2.716174313775   110.66984045   292.71021091
 H      3   2   1     2.073012126526   109.49452741   177.19566716
 C      1   2   3     2.559344826591   121.22601549   123.25541885
 C      6   1   2     2.527606134898   123.12221188   231.63307209
 H     16   6   1     2.053680137946   121.34584675   359.01739425
 H     16   6   1     2.055076005625   120.95444932   178.40156697
 C     15   1   2     2.730579253854   126.08737155   185.01563263
 H     15   1   2     2.058681357158   116.29348379     3.03284862
 C     19  15   1     2.551010055452   126.51337067   186.62507809
 H     19  15   1     2.055503394844   115.74141347     7.05468515
 C     21  19  15     2.848433333962   125.74245630     2.27124559
 C     23  21  19     2.913227537651   111.43403052   123.86082202
 H     23  21  19     2.066172818746   112.39954829     0.29200327
 H     23  21  19     2.081642732948   107.92596279   242.40750714
 C     24  23  21     2.900501391512   112.71158005    51.07434851
 H     24  23  21     2.073707166184   108.96301328   288.93342413
 H     24  23  21     2.072871388878   109.11776355   173.02402522
 C     27  24  23     2.900250816002   111.89361786   306.52392553
 H     27  24  23     2.069379894451   108.89882010   183.00711705
 H     27  24  23     2.079607984950   109.19479452    66.55114710
 C     21  19  15     2.830496118797   122.86814272   179.72674005
 H     33  21  19     2.088895926710   106.48990520   128.08668718
 C     33  21  19     2.883399495356   121.20616870     5.40079450
 H     13   3   2     1.828818895482   107.59217165    42.68772206
 C     35  33  21     2.925324417739   103.56761985   196.95908437
 H     35  33  21     2.069326301017   112.06107774    74.93535283
 H     35  33  21     2.070524081524   110.83812403   315.32122608
 C     30  27  24     2.937190353784   116.09081386   166.31727756
 H     37  35  33     2.068395075577   111.89897162   249.81524278
 H     37  35  33     2.071696087564   110.97977327   131.25679331
 H     40  30  27     2.083338244429   106.52509985   321.40674080
 C     40  30  27     2.914881807469   118.73502458    82.24061134
 C     30  27  24     2.900720786685   111.10736905   294.14447581
 H     45  30  27     2.068685496153   111.56307751   186.21636761
 H     45  30  27     2.068029617424   111.51629539    66.19641428
 H     45  30  27     2.070289295966   110.67293640   306.04791558
 H     44  40  30     2.078641570262   108.18569911    60.30673937
 C     44  40  30     2.902882933910   113.37838297   299.59765891
 C     44  40  30     2.847463897006   109.51828601   177.61165084
 C     51  44  40     2.519164783337   124.67024798   240.99127099
 H     51  44  40     2.064275249723   115.09121037    62.04795354
 H     52  51  44     2.063821140491   117.44051487     0.73719258
 C     52  51  44     2.845594171045   127.20286372   181.12258381
 C     55  52  51     2.888730380314   113.80988610     6.39287459
 C     55  52  51     2.940662390693   111.94487666   238.51930894
 H     55  52  51     2.085109561266   106.37525096   124.23326913
 H     57  55  52     2.080055139666   105.72286538   181.24981807
 C     57  55  52     2.890768591572   112.73854566    63.30510977
 C     57  55  52     2.893596445311   112.08156403   298.17960402
 H     56  55  52     2.069069063403   112.11043272   299.81894379
 H     56  55  52     2.069939011869   110.10954454   179.77868760
 H     56  55  52     2.069655501640   110.96195570    60.12470988
 H     60  57  55     2.068632997578   112.15648217    58.07345318
 H     60  57  55     2.071749666496   110.50540997   297.56564704
 H     60  57  55     2.070748788081   110.42626398   178.18454859
 H     61  57  55     2.071692797678   111.45855371   309.95835082
 H     61  57  55     2.070362270568   110.41814404   189.89124124
 H     61  57  55     2.071009285831   111.31996331    70.74096663
 H     50  44  40     2.065403222985   111.89562821    67.33005001
 H     50  44  40     2.073114253997   110.71690773   306.67600771
 H     50  44  40     2.069761771029   110.19921921   187.30263547

---------------------
BASIS SET INFORMATION
---------------------
There are 3 groups of distinct atoms

 Group   1 Type C   : 7s4p contracted to 4s3p pattern {4111/211}
 Group   2 Type H   : 5s contracted to 3s pattern {311}
 Group   3 Type O   : 7s4p contracted to 4s3p pattern {4111/211}

Atom   0C    basis set group =>   1
Atom   1C    basis set group =>   1
Atom   2C    basis set group =>   1
Atom   3H    basis set group =>   2
Atom   4H    basis set group =>   2
Atom   5C    basis set group =>   1
Atom   6C    basis set group =>   1
Atom   7C    basis set group =>   1
Atom   8H    basis set group =>   2
Atom   9H    basis set group =>   2
Atom  10H    basis set group =>   2
Atom  11H    basis set group =>   2
Atom  12O    basis set group =>   3
Atom  13H    basis set group =>   2
Atom  14C    basis set group =>   1
Atom  15C    basis set group =>   1
Atom  16H    basis set group =>   2
Atom  17H    basis set group =>   2
Atom  18C    basis set group =>   1
Atom  19H    basis set group =>   2
Atom  20C    basis set group =>   1
Atom  21H    basis set group =>   2
Atom  22C    basis set group =>   1
Atom  23C    basis set group =>   1
Atom  24H    basis set group =>   2
Atom  25H    basis set group =>   2
Atom  26C    basis set group =>   1
Atom  27H    basis set group =>   2
Atom  28H    basis set group =>   2
Atom  29C    basis set group =>   1
Atom  30H    basis set group =>   2
Atom  31H    basis set group =>   2
Atom  32C    basis set group =>   1
Atom  33H    basis set group =>   2
Atom  34C    basis set group =>   1
Atom  35H    basis set group =>   2
Atom  36C    basis set group =>   1
Atom  37H    basis set group =>   2
Atom  38H    basis set group =>   2
Atom  39C    basis set group =>   1
Atom  40H    basis set group =>   2
Atom  41H    basis set group =>   2
Atom  42H    basis set group =>   2
Atom  43C    basis set group =>   1
Atom  44C    basis set group =>   1
Atom  45H    basis set group =>   2
Atom  46H    basis set group =>   2
Atom  47H    basis set group =>   2
Atom  48H    basis set group =>   2
Atom  49C    basis set group =>   1
Atom  50C    basis set group =>   1
Atom  51C    basis set group =>   1
Atom  52H    basis set group =>   2
Atom  53H    basis set group =>   2
Atom  54C    basis set group =>   1
Atom  55C    basis set group =>   1
Atom  56C    basis set group =>   1
Atom  57H    basis set group =>   2
Atom  58H    basis set group =>   2
Atom  59C    basis set group =>   1
Atom  60C    basis set group =>   1
Atom  61H    basis set group =>   2
Atom  62H    basis set group =>   2
Atom  63H    basis set group =>   2
Atom  64H    basis set group =>   2
Atom  65H    basis set group =>   2
Atom  66H    basis set group =>   2
Atom  67H    basis set group =>   2
Atom  68H    basis set group =>   2
Atom  69H    basis set group =>   2
Atom  70H    basis set group =>   2
Atom  71H    basis set group =>   2
Atom  72H    basis set group =>   2

-------------------------
BASIS SET IN INPUT FORMAT
-------------------------

 # Basis set for element : H 
 NewGTO H 
 S 3 
   1    1357.7500000000      0.0012928364
   2      54.3100000000      0.0588280685
   3       4.3448000000      0.9761499708
 S 1 
   1       0.6604910000      1.0000000000
 S 1 
   1       0.1366870000      1.0000000000
  end;

 # Basis set for element : C 
 NewGTO C 
 S 4 
   1  139534.0000000000      0.0001655246
   2    5581.3600000000      0.0074486101
   3     446.5090000000      0.1285821065
   4      67.4620000000      0.9218029311
 S 1 
   1      15.0674000000      1.0000000000
 S 1 
   1       3.9387600000      1.0000000000
 S 1 
   1       0.2999150000      1.0000000000
 P 2 
   1      28.3900000000      0.0816325586
   2       4.3676900000      0.9660360576
 P 1 
   1       0.8698170000      1.0000000000
 P 1 
   1       0.1889340000      1.0000000000
  end;

 # Basis set for element : O 
 NewGTO O 
 S 4 
   1  253789.0000000000      0.0001641076
   2   10151.6000000000      0.0074010921
   3     812.1250000000      0.1277711901
   4     122.6930000000      0.9223372164
 S 1 
   1      27.5608000000      1.0000000000
 S 1 
   1       7.3172600000      1.0000000000
 S 1 
   1       0.5792400000      1.0000000000
 P 2 
   1      53.4157000000      0.0793786106
   2       8.2177900000      0.9670506337
 P 1 
   1       1.6754400000      1.0000000000
 P 1 
   1       0.3506720000      1.0000000000
  end;

---------------------------------
AUXILIARY/J BASIS SET INFORMATION
---------------------------------
There are 3 groups of distinct atoms

 Group   1 Type C   : 12s5p4d2f1g contracted to 6s4p3d1f1g pattern {711111/2111/211/2/1}
 Group   2 Type H   : 5s2p1d contracted to 3s1p1d pattern {311/2/1}
 Group   3 Type O   : 12s5p4d2f1g contracted to 6s4p3d1f1g pattern {711111/2111/211/2/1}

Atom   0C    basis set group =>   1
Atom   1C    basis set group =>   1
Atom   2C    basis set group =>   1
Atom   3H    basis set group =>   2
Atom   4H    basis set group =>   2
Atom   5C    basis set group =>   1
Atom   6C    basis set group =>   1
Atom   7C    basis set group =>   1
Atom   8H    basis set group =>   2
Atom   9H    basis set group =>   2
Atom  10H    basis set group =>   2
Atom  11H    basis set group =>   2
Atom  12O    basis set group =>   3
Atom  13H    basis set group =>   2
Atom  14C    basis set group =>   1
Atom  15C    basis set group =>   1
Atom  16H    basis set group =>   2
Atom  17H    basis set group =>   2
Atom  18C    basis set group =>   1
Atom  19H    basis set group =>   2
Atom  20C    basis set group =>   1
Atom  21H    basis set group =>   2
Atom  22C    basis set group =>   1
Atom  23C    basis set group =>   1
Atom  24H    basis set group =>   2
Atom  25H    basis set group =>   2
Atom  26C    basis set group =>   1
Atom  27H    basis set group =>   2
Atom  28H    basis set group =>   2
Atom  29C    basis set group =>   1
Atom  30H    basis set group =>   2
Atom  31H    basis set group =>   2
Atom  32C    basis set group =>   1
Atom  33H    basis set group =>   2
Atom  34C    basis set group =>   1
Atom  35H    basis set group =>   2
Atom  36C    basis set group =>   1
Atom  37H    basis set group =>   2
Atom  38H    basis set group =>   2
Atom  39C    basis set group =>   1
Atom  40H    basis set group =>   2
Atom  41H    basis set group =>   2
Atom  42H    basis set group =>   2
Atom  43C    basis set group =>   1
Atom  44C    basis set group =>   1
Atom  45H    basis set group =>   2
Atom  46H    basis set group =>   2
Atom  47H    basis set group =>   2
Atom  48H    basis set group =>   2
Atom  49C    basis set group =>   1
Atom  50C    basis set group =>   1
Atom  51C    basis set group =>   1
Atom  52H    basis set group =>   2
Atom  53H    basis set group =>   2
Atom  54C    basis set group =>   1
Atom  55C    basis set group =>   1
Atom  56C    basis set group =>   1
Atom  57H    basis set group =>   2
Atom  58H    basis set group =>   2
Atom  59C    basis set group =>   1
Atom  60C    basis set group =>   1
Atom  61H    basis set group =>   2
Atom  62H    basis set group =>   2
Atom  63H    basis set group =>   2
Atom  64H    basis set group =>   2
Atom  65H    basis set group =>   2
Atom  66H    basis set group =>   2
Atom  67H    basis set group =>   2
Atom  68H    basis set group =>   2
Atom  69H    basis set group =>   2
Atom  70H    basis set group =>   2
Atom  71H    basis set group =>   2
Atom  72H    basis set group =>   2

-------------------------------------
AUXILIARY/J BASIS SET IN INPUT FORMAT
-------------------------------------

 # Auxiliary/J basis set for element : H 
 NewAuxJGTO H 
 S 3 
   1      15.6752927000      0.1007184237
   2       3.6063578000      0.3404257499
   3       1.2080016000      0.6491996172
 S 1 
   1       0.4726794000      1.0000000000
 S 1 
   1       0.2018100000      1.0000000000
 P 2 
   1       2.0281365000      0.5596620919
   2       0.5358730000      0.5596620919
 D 1 
   1       2.2165124000      1.0000000000
  end;

 # Auxiliary/J basis set for element : C 
 NewAuxJGTO C 
 S 7 
   1    1861.0916331000      0.0134602335
   2     642.9939764000      0.0299160374
   3     235.1105725000      0.1008649584
   4      90.7028894000      0.2370970548
   5      36.7794552000      0.3924037254
   6      15.6046273000      0.3195862154
   7       6.8907294000      0.0530104441
 S 1 
   1       3.1478850000     -1.0000000000
 S 1 
   1       1.4777287000      1.0000000000
 S 1 
   1       0.7076466000      1.0000000000
 S 1 
   1       0.3430122000      1.0000000000
 S 1 
   1       0.1669453000      1.0000000000
 P 2 
   1      13.5472892000     -0.6769313712
   2       5.4669419000     -0.3779500978
 P 1 
   1       2.1751721000      1.0000000000
 P 1 
   1       0.8582194000      1.0000000000
 P 1 
   1       0.3376720000      1.0000000000
 D 2 
   1       5.9287253000     -0.3533329857
   2       1.9809209000     -0.7456525731
 D 1 
   1       0.8055417000     -1.0000000000
 D 1 
   1       0.3531244000     -1.0000000000
 F 2 
   1       1.6755626000      0.6311076882
   2       0.5997536000      0.4968166032
 G 1 
   1       1.0024600000     -1.0000000000
  end;

 # Auxiliary/J basis set for element : O 
 NewAuxJGTO O 
 S 7 
   1    2876.8216605000      0.0168151159
   2    1004.7443032000      0.0340137548
   3     369.7579954000      0.1194951309
   4     142.9442404000      0.2664627624
   5      57.8366425000      0.4202764046
   6      24.3864983000      0.2765077335
   7      10.6622662000      0.0057008815
 S 1 
   1       4.8070437000     -1.0000000000
 S 1 
   1       2.2210770000      1.0000000000
 S 1 
   1       1.0447795000      1.0000000000
 S 1 
   1       0.4968425000      1.0000000000
 S 1 
   1       0.2371384000      1.0000000000
 P 2 
   1      64.2613382000     -0.2731534179
   2      16.3006076000     -0.8168011598
 P 1 
   1       4.3550542000      1.0000000000
 P 1 
   1       1.2019554000      1.0000000000
 P 1 
   1       0.3354196000      1.0000000000
 D 2 
   1       9.2146611000     -0.4661230638
   2       2.8435251000     -0.6600908911
 D 1 
   1       0.9955759000     -1.0000000000
 D 1 
   1       0.3649441000     -1.0000000000
 F 2 
   1       2.6420115000      0.5931563945
   2       0.7345613000      0.5931563945
 G 1 
   1       1.3931000000     -1.0000000000
  end;


Checking for AutoStart:
The File: inpJ.gbw exists
Trying to determine its content:
     ... Fine, the file contains calculation information
     ... Fine, the calculation information was read
     ... Fine, the file contains a basis set
     ... Fine, the basis set was read
     ... Fine, the file contains a geometry
     ... Fine, the geometry was read
     ... Fine, the file contains a set of orbitals
     ... Fine, the orbitals can be read
     => possible old guess file was deleted
     => GBW file was renamed to GES file
     => GES file is set as startup file
     => Guess is set to MORead
     ... now leaving AutoStart



           ************************************************************
           *        Program running with 4 parallel MPI-processes     *
           *              working on a common directory               *
           ************************************************************
------------------------------------------------------------------------------
                             ORCA STARTUP CALCULATIONS
                           -- RI-GTO INTEGRALS CHOSEN --
------------------------------------------------------------------------------
------------------------------------------------------------------------------
                   ___                                                        
                  /   \      - P O W E R E D   B Y -                         
                 /     \                                                     
                 |  |  |   _    _      __       _____    __    __             
                 |  |  |  | |  | |    /  \     |  _  \  |  |  /  |          
                  \  \/   | |  | |   /    \    | | | |  |  | /  /          
                 / \  \   | |__| |  /  /\  \   | |_| |  |  |/  /          
                |  |  |   |  __  | /  /__\  \  |    /   |      \           
                |  |  |   | |  | | |   __   |  |    \   |  |\   \          
                \     /   | |  | | |  |  |  |  | |\  \  |  | \   \       
                 \___/    |_|  |_| |__|  |__|  |_| \__\ |__|  \__/        
                                                                              
                      - O R C A' S   B I G   F R I E N D -                    
                                      &                                       
                       - I N T E G R A L  F E E D E R -                       
                                                                              
 v1 FN, 2020, v2 2021, v3 2022-2024                                           
------------------------------------------------------------------------------


----------------------
SHARK INTEGRAL PACKAGE
----------------------

Number of atoms                             ...     73
Number of basis functions                   ...    509
Number of shells                            ...    335
Maximum angular momentum                    ...      1
Integral batch strategy                     ... SHARK/LIBINT Hybrid
RI-J (if used) integral strategy            ... SPLIT-RIJ (Revised 2003 algorithm where possible)
Printlevel                                  ...      1
Contraction scheme used                     ... SEGMENTED contraction
Prescreening option                         ... SCHWARTZ
   Thresh                                   ... 3.000e-11
   Tcut                                     ... 1.000e-12
   Tpresel                                  ... 1.000e-12 
Coulomb Range Separation                    ... NOT USED
Exchange Range Separation                   ... NOT USED
Multipole approximations                    ... NOT USED
Finite Nucleus Model                        ... NOT USED
CABS basis                                  ... NOT available
Auxiliary Coulomb fitting basis             ... AVAILABLE
   # of basis functions in Aux-J            ...   1905
   # of shells in Aux-J                     ...    655
   Maximum angular momentum in Aux-J        ...      4
Auxiliary J/K fitting basis                 ... NOT available
Auxiliary Correlation fitting basis         ... NOT available
Auxiliary 'external' fitting basis          ... NOT available

Checking pre-screening integrals            ... done (  0.0 sec) Dimension = 335
Check shell pair data                       ... done (  0.0 sec)
Shell pair information
Shell pair cut-off parameter TPreSel        ...   1.0e-12
Total number of shell pairs                 ...     56280
Shell pairs after pre-screening             ...     22281
Total number of primitive shell pairs       ...    145865
Primitive shell pairs kept                  ...     38181
          la=0 lb=0:  11215 shell pairs
          la=1 lb=0:   9162 shell pairs
          la=1 lb=1:   1904 shell pairs

Calculating one electron integrals          ... done (  0.0 sec)
Calculating RI/J V-Matrix + Cholesky decomp.... done (  0.2 sec)
Calculating Nuclear repulsion               ... done (  0.0 sec) ENN=   2811.893949506711 Eh

Diagonalization of the overlap matrix:
Smallest eigenvalue                        ... 7.579e-03
Time for diagonalization                   ...    0.030 sec
Threshold for overlap eigenvalues          ... 1.000e-07
Number of eigenvalues below threshold      ... 0
Time for construction of square roots      ...    0.017 sec
Total time needed                          ...    0.048 sec

-------------------
DFT GRID GENERATION
-------------------

General Integration Accuracy     IntAcc      ... 4.388
Radial Grid Type                 RadialGrid  ... OptM3 with GC (2021)
Angular Grid (max. ang.)         AngularGrid ... 4 (Lebedev-302)
Angular grid pruning method      GridPruning ... 4 (adaptive)
Weight generation scheme         WeightScheme... mBecke (2022)
Basis function cutoff            BFCut       ... 1.0000e-11
Integration weight cutoff        WCut        ... 1.0000e-14
Partially contracted basis set               ... off
Rotationally invariant grid construction     ... off
Angular grids for H and He will be reduced by one unit

Total number of grid points                  ...   309806
Total number of batches                      ...     4876
Average number of points per batch           ...       63
Average number of grid points per atom       ...     4244

--------------------
COSX GRID GENERATION
--------------------

GRIDX 1
-------
General Integration Accuracy     IntAcc      ... 3.816
Radial Grid Type                 RadialGrid  ... OptM3 with GC (2021)
Angular Grid (max. ang.)         AngularGrid ... 1 (Lebedev-50)
Angular grid pruning method      GridPruning ... 4 (adaptive)
Weight generation scheme         WeightScheme... mBecke (2022)
Basis function cutoff            BFCut       ... 1.0000e-11
Integration weight cutoff        WCut        ... 1.0000e-14
Partially contracted basis set               ... on
Rotationally invariant grid construction     ... off
Angular grids for H and He will be reduced by one unit

Total number of grid points                  ...    39359
Total number of batches                      ...      348
Average number of points per batch           ...      113
Average number of grid points per atom       ...      539
UseSFitting                                  ... on

GRIDX 2
-------
General Integration Accuracy     IntAcc      ... 4.020
Radial Grid Type                 RadialGrid  ... OptM3 with GC (2021)
Angular Grid (max. ang.)         AngularGrid ... 2 (Lebedev-110)
Angular grid pruning method      GridPruning ... 4 (adaptive)
Weight generation scheme         WeightScheme... mBecke (2022)
Basis function cutoff            BFCut       ... 1.0000e-11
Integration weight cutoff        WCut        ... 1.0000e-14
Partially contracted basis set               ... on
Rotationally invariant grid construction     ... off
Angular grids for H and He will be reduced by one unit

Total number of grid points                  ...    81261
Total number of batches                      ...      675
Average number of points per batch           ...      120
Average number of grid points per atom       ...     1113
UseSFitting                                  ... on

GRIDX 3
-------
General Integration Accuracy     IntAcc      ... 4.338
Radial Grid Type                 RadialGrid  ... OptM3 with GC (2021)
Angular Grid (max. ang.)         AngularGrid ... 3 (Lebedev-194)
Angular grid pruning method      GridPruning ... 4 (adaptive)
Weight generation scheme         WeightScheme... mBecke (2022)
Basis function cutoff            BFCut       ... 1.0000e-11
Integration weight cutoff        WCut        ... 1.0000e-14
Partially contracted basis set               ... on
Rotationally invariant grid construction     ... off
Angular grids for H and He will be reduced by one unit

Total number of grid points                  ...   176049
Total number of batches                      ...     1416
Average number of points per batch           ...      124
Average number of grid points per atom       ...     2412
UseSFitting                                  ... on
Initializing property integral containers    ... done (  0.0 sec)

SHARK setup successfully completed in   3.5 seconds

Maximum memory used throughout the entire STARTUP-calculation: 86.0 MB


           ************************************************************
           *        Program running with 4 parallel MPI-processes     *
           *              working on a common directory               *
           ************************************************************
-------------------------------------------------------------------------------
                                 ORCA GUESS
                   Start orbitals & Density for SCF / CASSCF
-------------------------------------------------------------------------------

------------
SCF SETTINGS
------------
Hamiltonian:
 Density Functional     Method          .... DFT(GTOs)
 Exchange Functional    Exchange        .... PBE
   PBE kappa parameter   XKappa         ....  0.804000
   PBE mue parameter    XMuePBE         ....  0.219520
 Correlation Functional Correlation     .... PBE
   PBE beta parameter  CBetaPBE         ....  0.066725
 LDA part of GGA corr.  LDAOpt          .... PW91-LDA
 Gradients option       PostSCFGGA      .... off
 Hybrid DFT is turned on
   Fraction HF Exchange ScalHFX         ....  0.250000
   Scaling of DF-GGA-X  ScalDFX         ....  0.750000
   Scaling of DF-GGA-C  ScalDFC         ....  1.000000
   Scaling of DF-LDA-C  ScalLDAC        ....  1.000000
   Perturbative correction              ....  0.000000
   NL short-range parameter             ....  6.900000
 RI-approximation to the Coulomb term is turned on
   Number of AuxJ basis functions       .... 1905
   RIJ-COSX (HFX calculated with COS-X)).... on


General Settings:
 Integral files         IntName         .... inpJ
 Hartree-Fock type      HFTyp           .... RHF
 Total Charge           Charge          ....    0
 Multiplicity           Mult            ....    1
 Number of Electrons    NEL             ....  220
 Basis Dimension        Dim             ....  509
 Nuclear Repulsion      ENuc            ....   2811.8939495067 Eh

Convergence Acceleration:
 AO-DIIS                CNVDIIS         .... on
   Start iteration      DIISMaxIt       ....    12
   Startup error        DIISStart       ....  0.200000
   # of expansion vecs  DIISMaxEq       ....     5
   Bias factor          DIISBfac        ....   1.050
   Max. coefficient     DIISMaxC        ....  10.000
 MO-DIIS                CNVKDIIS        .... off
 Trust-Rad. Augm. Hess. CNVTRAH         .... auto
   Auto Start mean grad. ratio tolernc. ....  1.125000
   Auto Start start iteration           ....     1
   Auto Start num. interpolation iter.  ....    10
   Max. Number of Micro iterations      ....    24
   Max. Number of Macro iterations      .... Maxiter - #DIIS iter
   Number of Davidson start vectors     ....     2
   Converg. threshold    (grad. norm)   ....   1.000e-04
   Grad. Scal. Fac. for Micro threshold ....   0.100
   Minimum threshold for Micro iter.    ....   1.000e-02
   NR start threshold (gradient norm)   ....   1.000e-04
   Initial trust radius                 ....   0.400
   Minimum AH scaling param. (alpha)    ....   1.000
   Maximum AH scaling param. (alpha)    .... 1000.000
   Quad. conv. algorithm                .... NR
   White noise on init. David. guess    .... on
   Maximum white noise                  ....   0.010
   Pseudo random numbers                .... off
   Inactive MOs                         .... canonical
   Orbital update algorithm             .... Taylor
   Preconditioner                       .... Diag
   Full preconditioner red. dimension   ....   250
 SOSCF                  CNVSOSCF        .... off
 Level Shifting         CNVShift        .... on
   Level shift para.    LevelShift      ....    0.2500
   Turn off err/grad.   ShiftErr        ....    0.0010
 Zerner damping         CNVZerner       .... off
 Static damping         CNVDamp         .... on
   Fraction old density DampFac         ....    0.7000
   Max. Damping (<1)    DampMax         ....    0.9800
   Min. Damping (>=0)   DampMin         ....    0.0000
   Turn off err/grad.   DampErr         ....    0.1000

SCF Procedure:
 Maximum # iterations   MaxIter         ....   125
 SCF integral mode      SCFMode         .... Direct
   Integral package                     .... SHARK and LIBINT hybrid scheme
 Reset frequency        DirectResetFreq ....    20
 Integral Threshold     Thresh          ....  3.000e-11 Eh
 Primitive CutOff       TCut            ....  1.000e-12 Eh

Convergence Tolerance:
 Convergence Check Mode ConvCheckMode   .... Total+1el-Energy
 Convergence forced     ConvForced      .... 0
 Energy Change          TolE            ....  1.000e-07 Eh
 1-El. energy change                    ....  1.000e-04 Eh
 DIIS Error             TolErr          ....  1.000e-07

---------------------
INITIAL GUESS: MOREAD
---------------------
Guess MOs are being read from file: inpJ.ges
Input Geometry matches current geometry (good)
Input basis set matches current basis set (good)
Occupation numbers will be reassigned to an Aufbau configuration
MOs were renormalized
MOs were reorthogonalized (Cholesky)
                      ------------------
                      INITIAL GUESS DONE (   0.1 sec)
                      ------------------
             **** ENERGY FILE WAS UPDATED (inpJ.en.tmp) ****
Finished Guess after   0.2 sec
Maximum memory used throughout the entire GUESS-calculation: 37.1 MB


           ************************************************************
           *        Program running with 4 parallel MPI-processes     *
           *              working on a common directory               *
           ************************************************************

-------------------------------------------------------------------------------------------
                                      ORCA LEAN-SCF
                              memory conserving SCF solver
-------------------------------------------------------------------------------------------

--------------------
CPCM SOLVATION MODEL
--------------------
CPCM parameters:
  Epsilon                                         ...       4.8030
  Refrac                                          ...       1.4459
  Rsolv                                           ...       1.3000
  Surface type                                    ... GAUSSIAN VDW
  Discretization scheme                           ... Constant charge density
    Threshold for H atoms                         ...       5.0000 (charges/Ang^2)
    Threshold for non-H atoms                     ...       5.0000 (charges/Ang^2)
  Epsilon function type                           ...         CPCM
Solvent:                                          ... CHLOROFORM
Radii:
  Scheme                                          ... Element-dependent radii
  Radius for C  used is    3.8550 Bohr (=   2.0400 Ang.)
  Radius for H  used is    2.4944 Bohr (=   1.3200 Ang.)
  Radius for O  used is    3.4469 Bohr (=   1.8240 Ang.)
Calculating surface                               ...        done! (  0.0s)
Cavity surface points                             ...         5366
Cavity Volume                                     ...    3609.0515
Cavity Surface-area                               ...    1784.1683
Calculating surface distance matrix               ...        done! (  0.2s)
Performing Cholesky decomposition & store         ...        done! (  1.4s)
Overall time for CPCM initialization              ...                 1.6s

----------------------------------------D-I-I-S--------------------------------------------
Iteration    Energy (Eh)           Delta-E    RMSDP     MaxDP     DIISErr   Damp  Time(sec)
-------------------------------------------------------------------------------------------
               ***  Starting incremental Fock matrix formation  ***
    1    -1165.5124084705093992     0.00e+00  4.13e-08  5.85e-06  6.58e-06  0.700   6.2

  HOMO= 109 E= -6.009 eV LUMO=  5.938 eV gap=  11.947 eV
    2    -1165.5124084949243297    -2.44e-08  2.79e-08  3.50e-06  3.30e-06  0.700   2.1
                 **** Energy Check signals convergence ****

  HOMO= 109 E= -6.009 eV LUMO=  5.938 eV gap=  11.947 eV

               *****************************************************
               *                     SUCCESS                       *
               *           SCF CONVERGED AFTER   2 CYCLES          *
               *****************************************************

Recomputing exchange energy using gridx3       ... done (    8.388 sec)
Old exchange energy                            :    -42.067843858 Eh
New exchange energy                            :    -42.067861173 Eh
Exchange energy change after final integration :     -0.000017315 Eh
Total energy after final integration           :  -1165.512425809 Eh
             **** ENERGY FILE WAS UPDATED (inpJ.en.tmp) ****

----------------
TOTAL SCF ENERGY
----------------

Total Energy       :      -1165.51242580946109 Eh          -31715.20548 eV

Components:
Nuclear Repulsion  :       2811.89394950671067 Eh           76515.52434 eV
Electronic Energy  :      -3977.39295908111308 Eh         -108230.36474 eV
One Electron Energy:      -7165.57915893108384 Eh         -194985.32178 eV
Two Electron Energy:       3188.18619984997076 Eh           86754.95703 eV
CPCM Dielectric    :         -0.01339892052213 Eh              -0.36460 eV

Virial components:
Potential Energy   :      -2322.41020042380205 Eh          -63195.99438 eV
Kinetic Energy     :       1156.89777461434096 Eh           31480.78890 eV
Virial Ratio       :          2.00744633742423

DFT components:
N(Alpha)           :      110.000157104979 electrons
N(Beta)            :      110.000157104979 electrons
N(Total)           :      220.000314209958 electrons
E(X)               :     -125.745975575014 Eh       
E(C)               :       -7.328146792614 Eh       
E(XC)              :     -133.074122367628 Eh       

CPCM Solvation Model Properties:
Surface-charge          :         -0.03296455116278
Corrected charge        :         -0.00000000000000
Outlying charge corr.   :          0.00003853182501 Eh               0.00105 eV
Free-energy (cav+disp)  :  This term is not implemented in the current solvation scheme

---------------
SCF CONVERGENCE
---------------

  Last Energy change         ...    2.4415e-08  Tolerance :   1.0000e-07
  Last MAX-Density change    ...    3.5018e-06  Tolerance :   1.0000e-05
  Last RMS-Density change    ...    2.7868e-08  Tolerance :   1.0000e-06
  Last DIIS Error            ...    3.2975e-06  Tolerance :   1.0000e-07


----------------
ORBITAL ENERGIES
----------------

  NO   OCC          E(Eh)            E(eV) 
   0   2.0000     -19.212540      -522.7998 
   1   2.0000     -10.300496      -280.2907 
   2   2.0000     -10.270558      -279.4761 
   3   2.0000     -10.268350      -279.4160 
   4   2.0000     -10.263636      -279.2877 
   5   2.0000     -10.257566      -279.1226 
   6   2.0000     -10.257138      -279.1109 
   7   2.0000     -10.251272      -278.9513 
   8   2.0000     -10.249826      -278.9119 
   9   2.0000     -10.249551      -278.9045 
  10   2.0000     -10.248251      -278.8691 
  11   2.0000     -10.247650      -278.8527 
  12   2.0000     -10.246224      -278.8139 
  13   2.0000     -10.245161      -278.7850 
  14   2.0000     -10.244599      -278.7697 
  15   2.0000     -10.243464      -278.7388 
  16   2.0000     -10.242975      -278.7255 
  17   2.0000     -10.242543      -278.7138 
  18   2.0000     -10.241859      -278.6952 
  19   2.0000     -10.241569      -278.6872 
  20   2.0000     -10.240335      -278.6537 
  21   2.0000     -10.234454      -278.4937 
  22   2.0000     -10.234382      -278.4917 
  23   2.0000     -10.232732      -278.4468 
  24   2.0000     -10.225950      -278.2622 
  25   2.0000     -10.225467      -278.2491 
  26   2.0000     -10.225246      -278.2431 
  27   2.0000     -10.221989      -278.1545 
  28   2.0000     -10.220905      -278.1250 
  29   2.0000      -1.043328       -28.3904 
  30   2.0000      -0.901486       -24.5307 
  31   2.0000      -0.882219       -24.0064 
  32   2.0000      -0.860157       -23.4061 
  33   2.0000      -0.846213       -23.0266 
  34   2.0000      -0.822571       -22.3833 
  35   2.0000      -0.814286       -22.1578 
  36   2.0000      -0.795979       -21.6597 
  37   2.0000      -0.795123       -21.6364 
  38   2.0000      -0.777102       -21.1460 
  39   2.0000      -0.758453       -20.6385 
  40   2.0000      -0.740838       -20.1592 
  41   2.0000      -0.734152       -19.9773 
  42   2.0000      -0.715062       -19.4578 
  43   2.0000      -0.703131       -19.1332 
  44   2.0000      -0.702930       -19.1277 
  45   2.0000      -0.695481       -18.9250 
  46   2.0000      -0.670804       -18.2535 
  47   2.0000      -0.662858       -18.0373 
  48   2.0000      -0.632419       -17.2090 
  49   2.0000      -0.622240       -16.9320 
  50   2.0000      -0.612421       -16.6648 
  51   2.0000      -0.605981       -16.4896 
  52   2.0000      -0.596622       -16.2349 
  53   2.0000      -0.584866       -15.9150 
  54   2.0000      -0.558462       -15.1965 
  55   2.0000      -0.546140       -14.8612 
  56   2.0000      -0.539112       -14.6700 
  57   2.0000      -0.529490       -14.4082 
  58   2.0000      -0.515397       -14.0247 
  59   2.0000      -0.507313       -13.8047 
  60   2.0000      -0.498430       -13.5630 
  61   2.0000      -0.488504       -13.2929 
  62   2.0000      -0.486037       -13.2257 
  63   2.0000      -0.481015       -13.0891 
  64   2.0000      -0.474493       -12.9116 
  65   2.0000      -0.466897       -12.7049 
  66   2.0000      -0.466218       -12.6864 
  67   2.0000      -0.462241       -12.5782 
  68   2.0000      -0.459360       -12.4998 
  69   2.0000      -0.451803       -12.2942 
  70   2.0000      -0.450491       -12.2585 
  71   2.0000      -0.442537       -12.0420 
  72   2.0000      -0.436640       -11.8816 
  73   2.0000      -0.433815       -11.8047 
  74   2.0000      -0.430598       -11.7172 
  75   2.0000      -0.423611       -11.5270 
  76   2.0000      -0.420652       -11.4465 
  77   2.0000      -0.414005       -11.2656 
  78   2.0000      -0.410803       -11.1785 
  79   2.0000      -0.404656       -11.0112 
  80   2.0000      -0.401666       -10.9299 
  81   2.0000      -0.396678       -10.7942 
  82   2.0000      -0.396255       -10.7827 
  83   2.0000      -0.388140       -10.5618 
  84   2.0000      -0.385650       -10.4941 
  85   2.0000      -0.379805       -10.3350 
  86   2.0000      -0.375673       -10.2226 
  87   2.0000      -0.373892       -10.1741 
  88   2.0000      -0.366238        -9.9658 
  89   2.0000      -0.365325        -9.9410 
  90   2.0000      -0.360859        -9.8195 
  91   2.0000      -0.358901        -9.7662 
  92   2.0000      -0.351505        -9.5649 
  93   2.0000      -0.344446        -9.3729 
  94   2.0000      -0.340849        -9.2750 
  95   2.0000      -0.340547        -9.2668 
  96   2.0000      -0.337301        -9.1784 
  97   2.0000      -0.333676        -9.0798 
  98   2.0000      -0.332194        -9.0394 
  99   2.0000      -0.330839        -9.0026 
 100   2.0000      -0.327453        -8.9105 
 101   2.0000      -0.324354        -8.8261 
 102   2.0000      -0.319299        -8.6886 
 103   2.0000      -0.316487        -8.6121 
 104   2.0000      -0.310674        -8.4539 
 105   2.0000      -0.300867        -8.1870 
 106   2.0000      -0.276764        -7.5311 
 107   2.0000      -0.275281        -7.4908 
 108   2.0000      -0.256548        -6.9810 
 109   2.0000      -0.220815        -6.0087 
 110   0.0000      -0.031785        -0.8649 
 111   0.0000       0.019272         0.5244 
 112   0.0000       0.027597         0.7509 
 113   0.0000       0.079946         2.1755 
 114   0.0000       0.087565         2.3828 
 115   0.0000       0.101208         2.7540 
 116   0.0000       0.104845         2.8530 
 117   0.0000       0.108119         2.9421 
 118   0.0000       0.111167         3.0250 
 119   0.0000       0.114050         3.1034 
 120   0.0000       0.116471         3.1693 
*Only the first 10 virtual orbitals were printed.

                    ********************************
                    * MULLIKEN POPULATION ANALYSIS *
                    ********************************

-----------------------
MULLIKEN ATOMIC CHARGES
-----------------------
   0 C :    0.078272
   1 C :   -0.500423
   2 C :   -0.074400
   3 H :    0.222938
   4 H :    0.219723
   5 C :    0.138821
   6 C :   -0.480218
   7 C :   -0.439847
   8 H :    0.225459
   9 H :    0.207287
  10 H :    0.208876
  11 H :    0.227892
  12 O :   -0.488005
  13 H :    0.247448
  14 C :   -0.280240
  15 C :   -0.514035
  16 H :    0.201096
  17 H :    0.197005
  18 C :   -0.260718
  19 H :    0.219928
  20 C :    0.153998
  21 H :    0.219665
  22 C :   -0.479057
  23 C :   -0.427587
  24 H :    0.211789
  25 H :    0.206987
  26 C :   -0.397413
  27 H :    0.208622
  28 H :    0.217329
  29 C :    0.002275
  30 H :    0.222011
  31 H :    0.194549
  32 C :   -0.229917
  33 H :    0.227837
  34 C :   -0.433975
  35 H :    0.340975
  36 C :   -0.418233
  37 H :    0.207929
  38 H :    0.197929
  39 C :   -0.186793
  40 H :    0.209910
  41 H :    0.208029
  42 H :    0.209904
  43 C :   -0.250504
  44 C :   -0.627482
  45 H :    0.205056
  46 H :    0.209824
  47 H :    0.200846
  48 H :    0.218662
  49 C :   -0.619519
  50 C :   -0.179297
  51 C :   -0.183695
  52 H :    0.212455
  53 H :    0.213698
  54 C :   -0.230515
  55 C :   -0.629592
  56 C :   -0.200816
  57 H :    0.223294
  58 H :    0.220062
  59 C :   -0.620772
  60 C :   -0.611694
  61 H :    0.197278
  62 H :    0.205480
  63 H :    0.203030
  64 H :    0.205202
  65 H :    0.203680
  66 H :    0.200648
  67 H :    0.201014
  68 H :    0.205208
  69 H :    0.198208
  70 H :    0.211073
  71 H :    0.192952
  72 H :    0.202593
Sum of atomic charges:    0.0000000

--------------------------------
MULLIKEN REDUCED ORBITAL CHARGES
--------------------------------
  0 C s       :     3.354079  s :     3.354079
      pz      :     0.994602  p :     2.567649
      px      :     0.810851
      py      :     0.762195

  1 C s       :     3.378008  s :     3.378008
      pz      :     1.142738  p :     3.122415
      px      :     0.870726
      py      :     1.108951

  2 C s       :     3.312731  s :     3.312731
      pz      :     0.705224  p :     2.761668
      px      :     1.145282
      py      :     0.911162

  3 H s       :     0.777062  s :     0.777062

  4 H s       :     0.780277  s :     0.780277

  5 C s       :     3.341455  s :     3.341455
      pz      :     0.890842  p :     2.519724
      px      :     0.858432
      py      :     0.770449

  6 C s       :     3.367271  s :     3.367271
      pz      :     1.141984  p :     3.112947
      px      :     0.888216
      py      :     1.082747

  7 C s       :     3.338572  s :     3.338572
      pz      :     1.175906  p :     3.101275
      px      :     0.963499
      py      :     0.961870

  8 H s       :     0.774541  s :     0.774541

  9 H s       :     0.792713  s :     0.792713

 10 H s       :     0.791124  s :     0.791124

 11 H s       :     0.772108  s :     0.772108

 12 O s       :     3.685084  s :     3.685084
      pz      :     1.425554  p :     4.802921
      px      :     1.469941
      py      :     1.907425

 13 H s       :     0.752552  s :     0.752552

 14 C s       :     3.394316  s :     3.394316
      pz      :     0.977162  p :     2.885924
      px      :     0.834555
      py      :     1.074207

 15 C s       :     3.385448  s :     3.385448
      pz      :     0.990263  p :     3.128587
      px      :     0.986622
      py      :     1.151702

 16 H s       :     0.798904  s :     0.798904

 17 H s       :     0.802995  s :     0.802995

 18 C s       :     3.397349  s :     3.397349
      pz      :     1.012037  p :     2.863369
      px      :     0.773186
      py      :     1.078146

 19 H s       :     0.780072  s :     0.780072

 20 C s       :     3.350506  s :     3.350506
      pz      :     0.941284  p :     2.495495
      px      :     0.761486
      py      :     0.792726

 21 H s       :     0.780335  s :     0.780335

 22 C s       :     3.372563  s :     3.372563
      pz      :     1.111861  p :     3.106494
      px      :     1.111347
      py      :     0.883285

 23 C s       :     3.327534  s :     3.327534
      pz      :     1.097978  p :     3.100052
      px      :     0.889801
      py      :     1.112273

 24 H s       :     0.788211  s :     0.788211

 25 H s       :     0.793013  s :     0.793013

 26 C s       :     3.349850  s :     3.349850
      pz      :     1.173486  p :     3.047563
      px      :     0.961778
      py      :     0.912298

 27 H s       :     0.791378  s :     0.791378

 28 H s       :     0.782671  s :     0.782671

 29 C s       :     3.317594  s :     3.317594
      pz      :     0.869462  p :     2.680130
      px      :     0.905579
      py      :     0.905089

 30 H s       :     0.777989  s :     0.777989

 31 H s       :     0.805451  s :     0.805451

 32 C s       :     3.362810  s :     3.362810
      pz      :     1.079419  p :     2.867107
      px      :     0.860938
      py      :     0.926750

 33 H s       :     0.772163  s :     0.772163

 34 C s       :     3.344464  s :     3.344464
      pz      :     1.190330  p :     3.089511
      px      :     0.933304
      py      :     0.965877

 35 H s       :     0.659025  s :     0.659025

 36 C s       :     3.337663  s :     3.337663
      pz      :     1.169346  p :     3.080570
      px      :     0.934535
      py      :     0.976688

 37 H s       :     0.792071  s :     0.792071

 38 H s       :     0.802071  s :     0.802071

 39 C s       :     3.337583  s :     3.337583
      pz      :     1.060098  p :     2.849210
      px      :     0.859244
      py      :     0.929868

 40 H s       :     0.790090  s :     0.790090

 41 H s       :     0.791971  s :     0.791971

 42 H s       :     0.790096  s :     0.790096

 43 C s       :     3.345219  s :     3.345219
      pz      :     1.076068  p :     2.905286
      px      :     0.877366
      py      :     0.951851

 44 C s       :     3.365741  s :     3.365741
      pz      :     0.955943  p :     3.261741
      px      :     1.163169
      py      :     1.142629

 45 H s       :     0.794944  s :     0.794944

 46 H s       :     0.790176  s :     0.790176

 47 H s       :     0.799154  s :     0.799154

 48 H s       :     0.781338  s :     0.781338

 49 C s       :     3.347245  s :     3.347245
      pz      :     1.147042  p :     3.272274
      px      :     1.153099
      py      :     0.972133

 50 C s       :     3.339813  s :     3.339813
      pz      :     1.048874  p :     2.839484
      px      :     0.897890
      py      :     0.892720

 51 C s       :     3.347193  s :     3.347193
      pz      :     1.059394  p :     2.836502
      px      :     0.890944
      py      :     0.886164

 52 H s       :     0.787545  s :     0.787545

 53 H s       :     0.786302  s :     0.786302

 54 C s       :     3.341289  s :     3.341289
      pz      :     1.007867  p :     2.889226
      px      :     1.004312
      py      :     0.877047

 55 C s       :     3.347042  s :     3.347042
      pz      :     1.016927  p :     3.282550
      px      :     1.138426
      py      :     1.127196

 56 C s       :     3.312267  s :     3.312267
      pz      :     0.916250  p :     2.888549
      px      :     1.055269
      py      :     0.917029

 57 H s       :     0.776706  s :     0.776706

 58 H s       :     0.779938  s :     0.779938

 59 C s       :     3.345255  s :     3.345255
      pz      :     1.073010  p :     3.275517
      px      :     1.046628
      py      :     1.155879

 60 C s       :     3.341021  s :     3.341021
      pz      :     1.004899  p :     3.270672
      px      :     1.153089
      py      :     1.112684

 61 H s       :     0.802722  s :     0.802722

 62 H s       :     0.794520  s :     0.794520

 63 H s       :     0.796970  s :     0.796970

 64 H s       :     0.794798  s :     0.794798

 65 H s       :     0.796320  s :     0.796320

 66 H s       :     0.799352  s :     0.799352

 67 H s       :     0.798986  s :     0.798986

 68 H s       :     0.794792  s :     0.794792

 69 H s       :     0.801792  s :     0.801792

 70 H s       :     0.788927  s :     0.788927

 71 H s       :     0.807048  s :     0.807048

 72 H s       :     0.797407  s :     0.797407


------------------------
MULLIKEN OVERLAP CHARGES
------------------------
B(  0-C ,  1-C ) :   0.5242 B(  0-C ,  2-C ) :  -0.1798 B(  0-C ,  3-H ) :  -0.0796 
B(  0-C ,  4-H ) :  -0.0865 B(  0-C ,  5-C ) :   0.4160 B(  0-C ,  6-C ) :  -0.1413 
B(  0-C , 14-C ) :   0.9507 B(  0-C , 15-C ) :  -0.2024 B(  0-C , 18-C ) :  -0.1866 
B(  0-C , 19-H ) :  -0.0753 B(  1-C ,  2-C ) :   0.5265 B(  1-C ,  3-H ) :   0.8089 
B(  1-C ,  4-H ) :   0.7737 B(  1-C ,  5-C ) :  -0.1406 B(  1-C ,  7-C ) :  -0.1579 
B(  1-C , 12-O ) :  -0.1101 B(  1-C , 13-H ) :  -0.0575 B(  1-C , 14-C ) :  -0.1134 
B(  2-C ,  3-H ) :  -0.0592 B(  2-C ,  4-H ) :  -0.0536 B(  2-C ,  6-C ) :  -0.1581 
B(  2-C ,  7-C ) :   0.5149 B(  2-C , 10-H ) :  -0.0624 B(  2-C , 11-H ) :  -0.0697 
B(  2-C , 12-O ) :   0.6965 B(  2-C , 13-H ) :   0.8217 B(  2-C , 35-H ) :  -0.1153 
B(  5-C ,  6-C ) :   0.5298 B(  5-C ,  7-C ) :  -0.1576 B(  5-C ,  8-H ) :  -0.0730 
B(  5-C ,  9-H ) :  -0.0938 B(  5-C , 14-C ) :  -0.1992 B(  5-C , 15-C ) :   1.0615 
B(  5-C , 16-H ) :  -0.0996 B(  5-C , 17-H ) :  -0.0952 B(  6-C ,  7-C ) :   0.5526 
B(  6-C ,  8-H ) :   0.8228 B(  6-C ,  9-H ) :   0.7936 B(  6-C , 10-H ) :  -0.0741 
B(  6-C , 11-H ) :  -0.0561 B(  6-C , 15-C ) :  -0.1300 B(  7-C ,  9-H ) :  -0.0776 
B(  7-C , 10-H ) :   0.7763 B(  7-C , 11-H ) :   0.8044 B(  7-C , 12-O ) :  -0.1081 
B(  7-C , 13-H ) :  -0.0824 B( 12-O , 35-H ) :   0.6665 B( 14-C , 18-C ) :   0.6125 
B( 14-C , 19-H ) :   0.8214 B( 14-C , 20-C ) :  -0.1940 B( 14-C , 21-H ) :  -0.0739 
B( 15-C , 16-H ) :   0.8137 B( 15-C , 17-H ) :   0.8065 B( 18-C , 19-H ) :  -0.0600 
B( 18-C , 20-C ) :   0.9189 B( 18-C , 21-H ) :   0.8334 B( 18-C , 22-C ) :  -0.1511 
B( 18-C , 32-C ) :  -0.1498 B( 20-C , 21-H ) :  -0.0831 B( 20-C , 22-C ) :   0.5341 
B( 20-C , 23-C ) :  -0.1726 B( 20-C , 24-H ) :  -0.0674 B( 20-C , 25-H ) :  -0.0915 
B( 20-C , 29-C ) :  -0.1257 B( 20-C , 32-C ) :   0.5193 B( 20-C , 33-H ) :  -0.0910 
[...]
        0.0000         2.9459        0.0000
        0.0000         0.0000        2.9459

 Diagonalized JT*J matrix:
 
 J[55,60](FC)             2.946            2.946            2.946  iso=      2.946
                ---------------  ---------------  ---------------  ---------------
 J[55,60](Total)          2.946            2.946            2.946  iso=      2.946



-----------------------------------------------------------
 NUCLEUS A = C   56 NUCLEUS B = C   59 
 ( 13C  gnA =  1.405  13C  gnB =  1.405) r(AB) =     1.5297
-----------------------------------------------------------

Fermi-contact contribution to J (Hz):
       26.5045         0.0000        0.0000
        0.0000        26.5045        0.0000
        0.0000         0.0000       26.5045

Total spin-spin coupling tensor J (Hz):
       26.5045         0.0000        0.0000
        0.0000        26.5045        0.0000
        0.0000         0.0000       26.5045

 Diagonalized JT*J matrix:
 
 J[56,59](FC)            26.505           26.505           26.505  iso=     26.505
                ---------------  ---------------  ---------------  ---------------
 J[56,59](Total)         26.505           26.505           26.505  iso=     26.505



-----------------------------------------------------------
 NUCLEUS A = C   56 NUCLEUS B = C   60 
 ( 13C  gnA =  1.405  13C  gnB =  1.405) r(AB) =     1.5312
-----------------------------------------------------------

Fermi-contact contribution to J (Hz):
       26.8341         0.0000        0.0000
        0.0000        26.8341        0.0000
        0.0000         0.0000       26.8341

Total spin-spin coupling tensor J (Hz):
       26.8341         0.0000        0.0000
        0.0000        26.8341        0.0000
        0.0000         0.0000       26.8341

 Diagonalized JT*J matrix:
 
 J[56,60](FC)            26.834           26.834           26.834  iso=     26.834
                ---------------  ---------------  ---------------  ---------------
 J[56,60](Total)         26.834           26.834           26.834  iso=     26.834



-----------------------------------------------------------
 NUCLEUS A = C   59 NUCLEUS B = C   60 
 ( 13C  gnA =  1.405  13C  gnB =  1.405) r(AB) =     2.5115
-----------------------------------------------------------

Fermi-contact contribution to J (Hz):
       -0.8489         0.0000        0.0000
        0.0000        -0.8489        0.0000
        0.0000         0.0000       -0.8489

Total spin-spin coupling tensor J (Hz):
       -0.8489         0.0000        0.0000
        0.0000        -0.8489        0.0000
        0.0000         0.0000       -0.8489

 Diagonalized JT*J matrix:
 
 J[59,60](FC)            -0.849           -0.849           -0.849  iso=     -0.849
                ---------------  ---------------  ---------------  ---------------
 J[59,60](Total)         -0.849           -0.849           -0.849  iso=     -0.849



-----------------------------------------------------------------------------
                SUMMARY OF ISOTROPIC COUPLING CONSTANTS J (Hz)                
-----------------------------------------------------------------------------
                  0 C        1 C        2 C        5 C        6 C        7 C  
      0 C        0.000     33.095     -3.743     41.293     -0.887      2.282
      1 C       33.095      0.000     23.450     -1.196      1.439     -0.665
      2 C       -3.743     23.450      0.000      2.299     -2.759     25.869
      5 C       41.293     -1.196      2.299      0.000     30.405     -2.774
      6 C       -0.887      1.439     -2.759     30.405      0.000     24.786
      7 C        2.282     -0.665     25.869     -2.774     24.786      0.000
     14 C       69.410     -0.374      2.845     -3.015      2.184     -0.622
     15 C       -3.415      2.417     -0.860     64.562     -1.101      2.600
     18 C       -2.399      4.171     -1.090      3.192     -0.813      0.192
     20 C        6.803     -1.097      1.078     -1.387      0.604     -0.103
     22 C       -0.927      0.326     -0.328      0.423     -0.183      0.037
     23 C        0.832     -0.288      0.282     -0.346      0.155      0.000
     26 C       -0.097      0.040      0.000      0.050      0.000      0.000
     29 C        1.174     -0.368      0.000     -0.453      0.210      0.000
     32 C       -1.118      0.542     -0.372      0.471     -0.214      0.044
     34 C        0.023     -0.015      0.014     -0.015      0.006     -0.001
     36 C       -0.017      0.000      0.000      0.016     -0.008      0.000
     39 C       -0.069      0.000      0.000      0.029      0.000      0.000
     43 C        0.000      0.000      0.000      0.000      0.000      0.000
     44 C        0.010     -0.003      0.000     -0.002     -0.005      0.000
     49 C        0.000      0.000      0.000      0.000      0.000      0.000
     50 C        0.000      0.000      0.000      0.000      0.000      0.000
     51 C        0.000      0.000      0.000      0.000      0.000      0.000
     54 C        0.000      0.000      0.000      0.000      0.000      0.000
     55 C        0.000      0.000      0.000      0.000      0.000      0.000
     56 C        0.000      0.000      0.000      0.000      0.000      0.000
     59 C        0.000      0.000      0.000      0.000      0.000      0.000
     60 C        0.000      0.000      0.000      0.000      0.000      0.000
                 14 C       15 C       18 C       20 C       22 C       23 C  
      0 C       69.410     -3.415     -2.399      6.803     -0.927      0.832
      1 C       -0.374      2.417      4.171     -1.097      0.326     -0.288
      2 C        2.845     -0.860     -1.090      1.078     -0.328      0.282
      5 C       -3.015     64.562      3.192     -1.387      0.423     -0.346
      6 C        2.184     -1.101     -0.813      0.604     -0.183      0.155
      7 C       -0.622      2.600      0.192     -0.103      0.037      0.000
     14 C        0.000      3.109     54.078     -2.646      3.773     -0.937
     15 C        3.109      0.000     -1.143      1.006     -0.271      0.255
     18 C       54.078     -1.143      0.000     70.023     -2.151      2.363
     20 C       -2.646      1.006     70.023      0.000     32.131     -2.993
     22 C        3.773     -0.271     -2.151     32.131      0.000     24.169
     23 C       -0.937      0.255      2.363     -2.993     24.169      0.000
     26 C        0.138     -0.034     -0.353      1.020     -1.921     25.451
     29 C       -1.146      0.325      2.282     -2.463      1.071     -2.224
     32 C        4.378     -0.313     -1.283     36.759     -0.205      1.520
     34 C        0.070      0.003      2.461     -1.385      1.616     -0.269
     36 C        0.016     -0.014     -0.147      3.433      0.071      0.161
     39 C        0.249     -0.023     -0.045      2.862     -0.332      2.538
     43 C        0.005      0.017      0.274      0.168      0.002     -0.112
     44 C        0.006      0.030     -0.046      0.702     -0.136      0.585
     49 C       -0.002      0.000     -0.009     -0.050      0.137      0.043
     50 C        0.000      0.000      0.024      0.129     -0.005      0.123
     51 C        0.000      0.000      0.016      0.046      0.001     -0.002
     54 C        0.000      0.000      0.000      0.000      0.000      0.000
     55 C        0.000      0.000      0.000      0.000      0.000      0.000
     56 C        0.000      0.000      0.000      0.000      0.000      0.000
     59 C        0.000      0.000      0.000     -0.000      0.000      0.000
     60 C        0.000      0.000      0.000      0.000      0.000      0.000
                 26 C       29 C       32 C       34 C       36 C       39 C  
      0 C       -0.097      1.174     -1.118      0.023     -0.017     -0.069
      1 C        0.040     -0.368      0.542     -0.015      0.000      0.000
      2 C        0.000      0.000     -0.372      0.014      0.000      0.000
      5 C        0.050     -0.453      0.471     -0.015      0.016      0.029
      6 C        0.000      0.210     -0.214      0.006     -0.008      0.000
      7 C        0.000      0.000      0.044     -0.001      0.000      0.000
     14 C        0.138     -1.146      4.378      0.070      0.016      0.249
     15 C       -0.034      0.325     -0.313      0.003     -0.014     -0.023
     18 C       -0.353      2.282     -1.283      2.461     -0.147     -0.045
     20 C        1.020     -2.463     36.759     -1.385      3.433      2.862
     22 C       -1.921      1.071     -0.205      1.616      0.071     -0.332
     23 C       25.451     -2.224      1.520     -0.269      0.161      2.538
     26 C        0.000     27.837     -0.911      2.261      3.016     -0.592
     29 C       27.837      0.000     23.039      0.866      0.794     28.380
     32 C       -0.911     23.039      0.000     27.929      1.178      3.337
     34 C        2.261      0.866     27.929      0.000     25.874      0.193
     36 C        3.016      0.794      1.178     25.874      0.000     26.943
     39 C       -0.592     28.380      3.337      0.193     26.943      0.000
     43 C       -0.017     -0.641      2.660      1.800      0.394     28.783
     44 C       -0.583     27.277     -0.968      0.808      0.272     -1.188
     49 C        0.348      0.056     -0.025      0.046      3.259     -1.219
     50 C       -0.115      3.587     -0.085     -0.039      0.659     -1.853
     51 C       -0.023      0.232      0.123      0.071     -0.008      3.252
     54 C       -0.000      0.095     -0.019      0.000     -0.032     -0.499
     55 C       -0.000      0.006      0.001     -0.001     -0.001      0.015
     56 C        0.000      0.065      0.057     -0.001      0.087      0.853
     59 C        0.003      0.040      0.006      0.029      0.088      0.067
     60 C        0.000     -0.004     -0.001     -0.000     -0.005     -0.006
                 43 C       44 C       49 C       50 C       51 C       54 C  
      0 C        0.000      0.010      0.000      0.000      0.000      0.000
      1 C        0.000     -0.003      0.000      0.000      0.000      0.000
      2 C        0.000      0.000      0.000      0.000      0.000      0.000
      5 C        0.000     -0.002      0.000      0.000      0.000      0.000
      6 C        0.000     -0.005      0.000      0.000      0.000      0.000
      7 C        0.000      0.000      0.000      0.000      0.000      0.000
     14 C        0.005      0.006     -0.002      0.000      0.000      0.000
     15 C        0.017      0.030      0.000      0.000      0.000      0.000
     18 C        0.274     -0.046     -0.009      0.024      0.016      0.000
     20 C        0.168      0.702     -0.050      0.129      0.046      0.000
     22 C        0.002     -0.136      0.137     -0.005      0.001      0.000
     23 C       -0.112      0.585      0.043      0.123     -0.002      0.000
     26 C       -0.017     -0.583      0.348     -0.115     -0.023     -0.000
     29 C       -0.641     27.277      0.056      3.587      0.232      0.095
     32 C        2.660     -0.968     -0.025     -0.085      0.123     -0.019
     34 C        1.800      0.808      0.046     -0.039      0.071      0.000
     36 C        0.394      0.272      3.259      0.659     -0.008     -0.032
     39 C       28.783     -1.188     -1.219     -1.853      3.252     -0.499
     43 C        0.000      1.503     25.958     36.284     -0.117      3.707
     44 C        1.503      0.000     -0.107     -0.164     -0.010     -0.002
     49 C       25.958     -0.107      0.000     -2.937      3.403     -0.788
     50 C       36.284     -0.164     -2.937      0.000     69.414     -1.690
     51 C       -0.117     -0.010      3.403     69.414      0.000     35.725
     54 C        3.707     -0.002     -0.788     -1.690     35.725      0.000
     55 C       -0.085      0.000      0.022      2.922     -1.628     28.041
     56 C       -0.679     -0.002      0.909      2.833     -2.807     25.212
     59 C        0.016     -0.002     -0.018     -0.115      1.003     -1.308
     60 C        0.003     -0.000     -0.003      0.016      1.268     -0.722
                 55 C       56 C       59 C       60 C  
      0 C        0.000      0.000      0.000      0.000
      1 C        0.000      0.000      0.000      0.000
      2 C        0.000      0.000      0.000      0.000
      5 C        0.000      0.000      0.000      0.000
      6 C        0.000      0.000      0.000      0.000
      7 C        0.000      0.000      0.000      0.000
     14 C        0.000      0.000      0.000      0.000
     15 C        0.000      0.000      0.000      0.000
     18 C        0.000      0.000      0.000      0.000
     20 C        0.000      0.000     -0.000      0.000
     22 C        0.000      0.000      0.000      0.000
     23 C        0.000      0.000      0.000      0.000
     26 C       -0.000      0.000      0.003      0.000
     29 C        0.006      0.065      0.040     -0.004
     32 C        0.001      0.057      0.006     -0.001
     34 C       -0.001     -0.001      0.029     -0.000
     36 C       -0.001      0.087      0.088     -0.005
     39 C        0.015      0.853      0.067     -0.006
     43 C       -0.085     -0.679      0.016      0.003
     44 C        0.000     -0.002     -0.002     -0.000
     49 C        0.022      0.909     -0.018     -0.003
     50 C        2.922      2.833     -0.115      0.016
     51 C       -1.628     -2.807      1.003      1.268
     54 C       28.041     25.212     -1.308     -0.722
     55 C        0.000     -0.652      0.973      2.946
     56 C       -0.652      0.000     26.505     26.834
     59 C        0.973     26.505      0.000     -0.849
     60 C        2.946     26.834     -0.849      0.000

NMR spin-spin coupling calculation done in   0.2 sec 

Maximum memory used throughout the entire PROP-calculation: 34.6 MB

--------------------------------
SUGGESTED CITATIONS FOR THIS RUN
--------------------------------

Below you find a list of papers that are relevant to this ORCA run
We neither can nor want to force you to cite these papers, but we appreciate if you do
You receive ORCA, which is the product of decades of hard work by many enthusiastic individuals, for free
The only thing we kindly ask in return is that you cite our papers,
We deeply appreciate it, if you show your appreciation for ORCA by not just citing the generic ORCA reference.

Please note that relegating all ORCA citations to the supporting information does *not* help us.
SI sections are not indexed - citations you put there will not count into any citation statistics
But we need these citations in order to attract the funding resources that allow us to do what we are doing

Therefore, if you are a happy ORCA user, please consider citing a few of the papers listed below in the main body of your paper

In addition to the list printed below, the program has created the file inpJ.bibtex that contains the list in bibtex format
You can import this file easily into all common literature databanks and citation aid programs


List of essential papers. We consider these as the minimum necessary citations

  1. Neese,F.
     Software update: the ORCA program system, version 5.0
     WIRES Comput. Molec. Sci., 2022 12(1)e1606
     doi.org/10.1002/wcms.1606

List of papers to cite with high priority. The work reported in these papers was absolutely
necessary for this run to complete.
Our perspective: the developers of density functionals and basis sets usually get cited in chemistry papers
Good! But without the algorithms to do something with them, the functionals or basis sets would not do anything.
Hence, in our opinion, the algorithm design and method developments papers are equally worthy of getting cited

  1. Neese,F.
     An improvement of the resolution of the identity approximation for the formation of the Coulomb matrix
     J. Comp. Chem., 2003 24(14)1740-1747
     doi.org/10.1002/jcc.10318
  2. Neese,F.; Wennmohs,F.; Hansen,A.; Becker,U.
     Efficient, approximate and parallel Hartree-Fock and hybrid DFT calculations. A 'chain-of-spheres' algorithm for the Hartree-Fock exchange
     Chem. Phys., 2009 356(1-3)98-109
     doi.org/10.1016/j.chemphys.2008.10.036
  3. Stoychev,G.L.; Auer,A.A.; Izsak,R.; Neese,F.
     Self-Consistent Field Calculation of Nuclear Magnetic Resonance Chemical Shielding Constants Using Gauge-Including Atomic Orbitals and Approximate Two-Electron Integrals
     J. Chem. Theory Comput., 2018 14(2)619-637
     doi.org/10.1021/acs.jctc.7b01006
  4. Garcia-Rates,M.; Neese,F.
     Effect of the Solute Cavity on the Solvation Energy and its Derivatives within the Framework of the Gaussian Charge Scheme
     J. Comput. Chem., 2020 41 922-939
     doi.org/10.1002/jcc.26139
  5. Helmich-Paris,B.; de Souza,B.; Neese,F.; Izsák,R.
     An improved chain of spheres for exchange algorithm
     J. Chem. Phys., 2021 155 104109
     doi.org/doi: 10.1063/5.0058766.
  6. Neese,F.
     The SHARK Integral Generation and Digestion System
     J. Comp. Chem., 2022  1-16
     doi.org/10.1002/jcc.26942
  7. Grimme,S.; Bannwarth,C.; Dohm,S.; Hansen,A.; Pisarek,J.; Pracht,P.; Seibert,J.; Neese,F.
     Fully Automated Quantum-Chemistry-Based Computation of Spin-Spin-Coupled Nuclear Magnetic Resonance Spectra
     Angew. Chem., Int. Ed., 2017 56 14763-14769
     doi.org/10.1002/anie.201708266
  8. Caldeweyher,E.; Bannwarth,C.; Grimme,S.
     Extension of the D3 dispersion coefficient model
     J. Chem. Phys., 2017 147 034112-XXXX
     doi.org/10.1063/1.4993215
  9. Caldeweyher,E.; Ehlert,S.; Hansen,A.; Neugebauer,H.; Spicher,S.; Bannwarth,C.; Grimme,S.
     A generally applicable atomic-charge dependent London dispersion correction
     J. Chem. Phys., 2019 150 154122-XXXX
     doi.org/10.1063/1.5090222
 10. Caldeweyher,E.; Mewes,J.; Ehlert,S.; Grimme,S.
     Extension and evaluation of the D4 London-dispersion model for periodic systems
     Phys. Chem. Chem. Phys., 2020 22(16)8499-8512
     doi.org/10.1039/D0CP00502A

List of suggested additional citations. These are papers that are important in the 'surrounding' of 
of this run, or papers that preceded the highly important papers. If you like your results we are grateful for a citation.

  1. Izsak,R.; Neese,F.
     An overlap fitted chain of spheres exchange method
     J. Chem. Phys., 2011 135 144105
     doi.org/10.1063/1.3646921
  2. Izsak,R.; Hansen,A.; Neese,F.
     The resolution of identity and chain of spheres approximations for the LPNO-CCSD singles Fock term
     Molec. Phys., 2012 110 2413-2417
     doi.org/10.1080/00268976.2012.687466
  3. Neese,F.
     The ORCA program system
     WIRES Comput. Molec. Sci., 2012 2(1)73-78
     doi.org/10.1002/wcms.81
  4. Izsak,R.; Neese,F.; Klopper,W.
     Robust fitting techniques in the chain of spheres approximation to the Fock exchange: The role of the complementary space
     J. Chem. Phys., 2013 139 
     doi.org/10.1063/1.4819264
  5. Neese,F.
     Software update: the ORCA program system, version 4.0
     WIRES Comput. Molec. Sci., 2018 8(1)1-6
     doi.org/10.1002/wcms.1327
  6. Neese,F.; Wennmohs,F.; Becker,U.; Riplinger,C.
     The ORCA quantum chemistry program package
     J. Chem. Phys., 2020 152 Art. No. L224108
     doi.org/10.1063/5.0004608

Timings for individual modules:

Sum of individual times          ...      141.249 sec (=   2.354 min)
Startup calculation              ...        3.662 sec (=   0.061 min)   2.6 %
SCF iterations                   ...       19.540 sec (=   0.326 min)  13.8 %
Property integrals               ...        0.731 sec (=   0.012 min)   0.5 %
SCF Response                     ...      116.854 sec (=   1.948 min)  82.7 %
Property calculations            ...        0.462 sec (=   0.008 min)   0.3 %
                             ****ORCA TERMINATED NORMALLY****
TOTAL RUN TIME: 0 days 0 hours 2 minutes 21 seconds 533 msec
