
                                 *****************
                                 * O   R   C   A *
                                 *****************

                                            #,                                       
                                            ###                                      
                                            ####                                     
                                            #####                                    
                                            ######                                   
                                           ########,                                 
                                     ,,################,,,,,                         
                               ,,#################################,,                 
                          ,,##########################################,,             
                       ,#########################################, ''#####,          
                    ,#############################################,,   '####,        
                  ,##################################################,,,,####,       
                ,###########''''           ''''###############################       
              ,#####''   ,,,,##########,,,,          '''####'''          '####       
            ,##' ,,,,###########################,,,                        '##       
           ' ,,###''''                  '''############,,,                           
         ,,##''                                '''############,,,,        ,,,,,,###''
      ,#''                                            '''#######################'''  
     '                                                          ''''####''''         
             ,#######,   #######,   ,#######,      ##                                
            ,#'     '#,  ##    ##  ,#'     '#,    #''#        ,####,   ,####,        
            ##       ##  ##   ,#'  ##            #'  '#       #'       #'  '#        
            ##       ##  #######   ##           ,######,      #####,   #    #        
            '#,     ,#'  ##    ##  '#,     ,#' ,#      #,     #,   #   #,  ,#        
             '#######'   ##     ##  '#######'  #'      '#     '####' # '####'        



                #########################################################
                #                        -***-                          #
                #          Department of theory and spectroscopy        #
                #                                                       #
                #                      Frank Neese                      #
                #                                                       #
                #     Directorship, Architecture, Infrastructure        #
                #                    SHARK, DRIVERS                     #
                #        Core code/Algorithms in most modules           #
                #                                                       #
                #        Max Planck Institute fuer Kohlenforschung      #
                #                Kaiser Wilhelm Platz 1                 #
                #                 D-45470 Muelheim/Ruhr                 #
                #                      Germany                          #
                #                                                       #
                #                  All rights reserved                  #
                #                        -***-                          #
                #########################################################


                         Program Version 6.0.0  -   RELEASE  -


 With contributions from (in alphabetic order):
   Daniel Aravena         : Magnetic Suceptibility
   Michael Atanasov       : Ab Initio Ligand Field Theory (pilot matlab implementation)
   Alexander A. Auer      : GIAO ZORA, VPT2 properties, NMR spectrum
   Ute Becker             : All parallelization in ORCA, NUMFREQ, NUMCALC
   Giovanni Bistoni       : ED, misc. LED, open-shell LED, HFLD
   Martin Brehm           : Molecular dynamics
   Dmytro Bykov           : pre 5.0 version of the SCF Hessian
   Marcos Casanova-Páez   : Triplet and SCS-CIS(D). UHF-(DLPNO)-IP/EA/STEOM-CCSD. UHF-CVS-IP/STEOM-CCSD
   Vijay G. Chilkuri      : MRCI spin determinant printing, contributions to CSF-ICE
   Pauline Colinet        : FMM embedding
   Dipayan Datta          : RHF DLPNO-CCSD density
   Achintya Kumar Dutta   : EOM-CC, STEOM-CC
   Nicolas Foglia         : Exact transition moments, OPA infrastructure, MCD improvements
   Dmitry Ganyushin       : Spin-Orbit,Spin-Spin,Magnetic field MRCI
   Miquel Garcia          : C-PCM and meta-GGA Hessian, CCSD/C-PCM, Gaussian charge scheme
   Tiago L. C. Gouveia    : GS-ROHF, GS-ROCIS
   Yang Guo               : DLPNO-NEVPT2, F12-NEVPT2, CIM, IAO-localization
   Andreas Hansen         : Spin unrestricted coupled pair/coupled cluster methods
   Ingolf Harden          : AUTO-CI MPn and infrastructure 
   Benjamin Helmich-Paris : MC-RPA, TRAH-(SCF,CASSCF), AVAS, COSX integrals, SCF dyn. polar.
   Lee Huntington         : MR-EOM, pCC
   Robert Izsak           : Overlap fitted RIJCOSX, COSX-SCS-MP3, EOM
   Riya Kayal             : Wick's Theorem for AUTO-CI, AUTO-CI UHF-CCSDT
   Emily Kempfer          : AUTO-CI, RHF CISDT and CCSDT
   Christian Kollmar      : KDIIS, OOCD, Brueckner-CCSD(T), CCSD density, CASPT2, CASPT2-K, improved NEVPT2
   Axel Koslowski         : Symmetry handling
   Simone Kossmann        : Meta GGA functionals, TD-DFT gradient, OOMP2, (MP2 Hessian; deprecated post 5.0)
   Lucas Lang             : DCDCAS
   Marvin Lechner         : AUTO-CI (C++ implementation), FIC-MRCC
   Spencer Leger          : CASSCF response
   Dagmar Lenk            : GEPOL surface, SMD, ORCA-2-JSON
   Dimitrios Liakos       : Extrapolation schemes; Compound Job, initial MDCI parallelization
   Dimitrios Manganas     : Further ROCIS development; embedding schemes. LFT, Crystal Embedding
   Dimitrios Pantazis     : SARC Basis sets
   Anastasios Papadopoulos: AUTO-CI, single reference methods and gradients
   Taras Petrenko         : pre 6.0 DFT Hessian and TD-DFT gradient, (ASA, deprecated), ECA, 1-Electron XAS/XES, NRVS
   Peter Pinski           : DLPNO-MP2, DLPNO-MP2 Gradient
   Christoph Reimann      : Effective Core Potentials
   Marius Retegan         : Local ZFS, SOC
   Christoph Riplinger    : Optimizer, TS searches, QM/MM, DLPNO-CCSD(T), (RO)-DLPNO pert. Triples
   Michael Roemelt        : Original ROCIS implementation
   Masaaki Saitow         : Open-shell DLPNO-CCSD energy and density
   Barbara Sandhoefer     : DKH picture change effects
   Kantharuban Sivalingam : CASSCF convergence/infrastructure, NEVPT2 and variants, FIC-MRCI
   Bernardo de Souza      : ESD, SOC TD-DFT
   Georgi Stoychev        : AutoAux, RI-MP2 NMR, DLPNO-MP2 response, X2C
   Van Anh Tran           : RI-MP2 g-tensors
   Willem Van den Heuvel  : Paramagnetic NMR
   Zikuan Wang            : NOTCH, Electric field optimization 
   Frank Wennmohs         : Technical directorship and infrastructure
   Hang Xu                : AUTO-CI-Response properties 


 We gratefully acknowledge several colleagues who have allowed us to
 interface, adapt or use parts of their codes:
   Stefan Grimme, W. Hujo, H. Kruse, P. Pracht,  : VdW corrections, initial TS optimization,
                  C. Bannwarth, S. Ehlert,         DFT functionals, gCP, sTDA/sTD-DF
                  L. Wittmann, M. Mueller
   Ed Valeev, F. Pavosevic, A. Kumar             : LibInt (2-el integral package), F12 methods
   Garnet Chan, S. Sharma, J. Yang, R. Olivares  : DMRG
   Ulf Ekstrom                                   : XCFun DFT Library
   Mihaly Kallay                                 : mrcc  (arbitrary order and MRCC methods)
   Frank Weinhold                                : gennbo (NPA and NBO analysis)
   Simon Mueller                                 : openCOSMO-RS
   Christopher J. Cramer and Donald G. Truhlar   : smd solvation model
   Lars Goerigk                                  : TD-DFT with DH, B97 family of functionals
   V. Asgeirsson, H. Jonsson                     : NEB implementation
   FAccTs GmbH                                   : IRC, NEB, NEB-TS, DLPNO-Multilevel, CI-OPT
                                                   MM, QMMM, 2- and 3-layer-ONIOM, Crystal-QMMM,
                                                   LR-CPCM, SF, NACMEs, symmetry and pop. for TD-DFT,
                                                   nearIR, NL-DFT gradient (VV10), updates on ESD,
                                                   ML-optimized integration grids, MBIS, APM,
                                                   GOAT, DOCKER, SOLVATOR, interface openCOSMO-RS
   S Lehtola, MJT Oliveira, MAL Marques          : LibXC Library
   Liviu Ungur et al                             : ANISO software


 Your calculation uses the libint2 library for the computation of 2-el integrals
 For citations please refer to: http://libint.valeyev.net

 Your ORCA version has been built with support for libXC version: 6.2.2
 For citations please refer to: https://libxc.gitlab.io

 This ORCA versions uses:
   CBLAS   interface :  Fast vector & matrix operations
   LAPACKE interface :  Fast linear algebra routines
   SCALAPACK package :  Parallel linear algebra routines
   Shared memory     :  Shared parallel matrices
   BLAS/LAPACK       :  OpenBLAS 0.3.27  USE64BITINT DYNAMIC_ARCH NO_AFFINITY Zen SINGLE_THREADED
        Core in use  :  Zen
   Copyright (c) 2011-2014, The OpenBLAS Project


NOTE: MaxCore=8000 MB was set to SCF,MP2,MDCI,CIPSI,MRCI and CIS
      => If you want to overwrite this, your respective input block should be placed after the MaxCore statement
Your calculation utilizes the atom-pairwise dispersion correction
based on EEQ partial charges (D4)


================================================================================

----- Orbital basis set information -----
Your calculation utilizes the basis: pcJ-0
   F. Jensen, Theor. Chem. Acc. 126, 371 (2010).

----- AuxJ basis set information -----
Your calculation utilizes the auxiliary basis: def2/J
   F. Weigend, Phys. Chem. Chem. Phys. 8, 1057 (2006).

================================================================================
                                        WARNINGS
                       Please study these warnings very carefully!
================================================================================

WARNING: Old DensityContainer found on disk!
         Will remove this file - 
         If you want to keep old densities, please start your calculation with a different basename. 


================================================================================
                                       INPUT FILE
================================================================================
NAME = inpJ
|  1> ! pbe0
|  2> ! D4
|  3> ! pcJ-0
|  4> ! def2/J RIJCOSX
|  5> ! DEFGRID2
|  6> ! scfconv7
|  7> ! smallprint printgap noloewdin
|  8> ! NOSOSCF
|  9> %MaxCore 8000
| 10> %output
| 11>        print[P_BondOrder_M] 1
| 12>        print[P_Mayer] 1
| 13>        print[P_basis] 2
| 14> end
| 15> %pal
| 16>     nprocs 4
| 17> end
| 18> ! CPCM(chloroform)
| 19> *xyz 0 1
| 20> C   -5.2166019700   0.2639579900   0.1379017600
| 21> C   -6.5810090800  -0.2367388800  -0.2735402900
| 22> C   -7.0587879000   0.4225001100  -1.5734553900
| 23> H   -7.3154060900   0.0170586100   0.5096436800
| 24> H   -6.5758697600  -1.3263444600  -0.3871482100
| 25> C   -5.0968357500   1.7374726200   0.1669347800
| 26> C   -5.6226239600   2.4309561400  -1.0695858200
| 27> C   -7.0291871300   1.9409978300  -1.4400817700
| 28> H   -4.9453963400   2.2066320500  -1.9077087800
| 29> H   -5.6171349300   3.5166373300  -0.9263403800
| 30> H   -7.3560793000   2.4008960100  -2.3801159300
| 31> H   -7.7424248300   2.2391184800  -0.6568152900
| 32> O   -8.3575145100  -0.0539491900  -1.9494487700
| 33> H   -6.3959030100   0.1158070900  -2.3945928000
| 34> C   -4.2069702000  -0.5998749600   0.3983362400
| 35> C   -4.6101615800   2.4158289700   1.2122791300
| 36> H   -4.2608580500   1.9052904700   2.1054768800
| 37> H   -4.5602094000   3.5021023200   1.1999605500
| 38> C   -2.8380200900  -0.2522859700   0.7012036800
| 39> H   -4.4499891000  -1.6592013600   0.3275530000
| 40> C   -1.8440037100  -1.1095620500   1.0187890300
| 41> H   -2.5930312400   0.8061359100   0.6490776100
| 42> C   -1.9852427700  -2.6018619200   1.1805474900
| 43> C   -0.9652046300  -3.3701785400   0.3183490800
| 44> H   -2.9976902300  -2.9501036300   0.9582933200
| 45> H   -1.7915857600  -2.8451898000   2.2376045700
| 46> C    0.4715850400  -2.8656507800   0.5113138900
| 47> H   -1.2506577600  -3.2828693800  -0.7376446000
| 48> H   -1.0158279400  -4.4373554300   0.5671380300
| 49> C    0.5803015500  -1.3506113700   0.2886468700
| 50> H    1.1362081700  -3.4168457200  -0.1620619200
| 51> H    0.7983885400  -3.0890924100   1.5381611800
| 52> C   -0.4341509500  -0.6623098500   1.2557562900
| 53> H   -0.1533844400  -1.0310435500   2.2599250300
| 54> C   -0.0557343600   0.8131480500   1.1963852300
| 55> H   -8.9746530500   0.2022289900  -1.2510517400
| 56> C    1.4889360900   0.7821361500   1.0988235100
| 57> H   -0.4139189100   1.3683414200   2.0698937100
| 58> H   -0.4903474500   1.2891734900   0.3102184200
| 59> C    1.9027709200  -0.6876513800   0.7721310300
| 60> H    1.9512171200   1.1168520200   2.0312517200
| 61> H    1.8505111000   1.4578945000   0.3146297900
| 62> H    2.1687704600  -1.1993026800   1.7107074600
| 63> C    3.1203228400  -0.7463329900  -0.1604003900
| 64> C    0.2751166300  -0.9830330000  -1.1700149500
| 65> H   -0.7747178100  -1.1691515400  -1.4170138000
| 66> H    0.8915247100  -1.5715934600  -1.8577805000
| 67> H    0.4735144600   0.0747800600  -1.3696540100
| 68> H    2.8555101000  -0.2050238100  -1.0825069500
| 69> C    3.5332956100  -2.1734470700  -0.5673355300
| 70> C    4.3514903800  -0.0681881300   0.4017853200
| 71> C    4.6294439400   0.1613485000   1.6852107600
| 72> H    5.0986914000   0.1819102100  -0.3529908800
| 73> H    3.8861638100  -0.1008658000   2.4377412200
| 74> C    5.8969232400   0.7626276700   2.2339722800
| 75> C    6.8633450300   1.2631623200   1.1612884400
| 76> C    6.6020752700  -0.1972395400   3.2365484600
| 77> H    5.5937292800   1.6364946300   2.8357009600
| 78> H    7.5095170900   0.3310986600   3.5663800000
| 79> C    7.0294546600  -1.5174878200   2.5915377300
| 80> C    5.7467810100  -0.4640696500   4.4780803100
| 81> H    6.3932705200   2.0304193100   0.5369246800
| 82> H    7.1968946000   0.4562122400   0.5007109600
| 83> H    7.7509217700   1.7020955700   1.6295170200
| 84> H    7.5679720200  -2.1399961500   3.3147558900
| 85> H    7.6868275100  -1.3615216200   1.7302837900
| 86> H    6.1532307700  -2.0801126500   2.2474604800
| 87> H    4.8691723800  -1.0750083700   4.2370430800
| 88> H    5.3964818800   0.4708285700   4.9309317100
| 89> H    6.3263717300  -1.0086108400   5.2318004700
| 90> H    4.4873990300  -2.1539445500  -1.1060510400
| 91> H    2.7942528100  -2.6475448200  -1.2184453800
| 92> H    3.6650159500  -2.7980410100   0.3241622400
| 93> *
| 94> %eprnmr
| 95>  Nuclei = all C { ssfc }
| 96>  SpinSpinRThresh 8.0
| 97> end
| 98> 
| 99>                          ****END OF INPUT****
================================================================================

                       ****************************
                       * Single Point Calculation *
                       ****************************

---------------------------------
CARTESIAN COORDINATES (ANGSTROEM)
---------------------------------
  C     -5.216602    0.263958    0.137902
  C     -6.581009   -0.236739   -0.273540
  C     -7.058788    0.422500   -1.573455
  H     -7.315406    0.017059    0.509644
  H     -6.575870   -1.326344   -0.387148
  C     -5.096836    1.737473    0.166935
  C     -5.622624    2.430956   -1.069586
  C     -7.029187    1.940998   -1.440082
  H     -4.945396    2.206632   -1.907709
  H     -5.617135    3.516637   -0.926340
  H     -7.356079    2.400896   -2.380116
  H     -7.742425    2.239118   -0.656815
  O     -8.357515   -0.053949   -1.949449
  H     -6.395903    0.115807   -2.394593
  C     -4.206970   -0.599875    0.398336
  C     -4.610162    2.415829    1.212279
  H     -4.260858    1.905290    2.105477
  H     -4.560209    3.502102    1.199961
  C     -2.838020   -0.252286    0.701204
  H     -4.449989   -1.659201    0.327553
  C     -1.844004   -1.109562    1.018789
  H     -2.593031    0.806136    0.649078
  C     -1.985243   -2.601862    1.180547
  C     -0.965205   -3.370179    0.318349
  H     -2.997690   -2.950104    0.958293
  H     -1.791586   -2.845190    2.237605
  C      0.471585   -2.865651    0.511314
  H     -1.250658   -3.282869   -0.737645
  H     -1.015828   -4.437355    0.567138
  C      0.580302   -1.350611    0.288647
  H      1.136208   -3.416846   -0.162062
  H      0.798389   -3.089092    1.538161
  C     -0.434151   -0.662310    1.255756
  H     -0.153384   -1.031044    2.259925
  C     -0.055734    0.813148    1.196385
  H     -8.974653    0.202229   -1.251052
  C      1.488936    0.782136    1.098824
  H     -0.413919    1.368341    2.069894
  H     -0.490347    1.289173    0.310218
  C      1.902771   -0.687651    0.772131
  H      1.951217    1.116852    2.031252
  H      1.850511    1.457895    0.314630
  H      2.168770   -1.199303    1.710707
  C      3.120323   -0.746333   -0.160400
  C      0.275117   -0.983033   -1.170015
  H     -0.774718   -1.169152   -1.417014
  H      0.891525   -1.571593   -1.857780
  H      0.473514    0.074780   -1.369654
  H      2.855510   -0.205024   -1.082507
  C      3.533296   -2.173447   -0.567336
  C      4.351490   -0.068188    0.401785
  C      4.629444    0.161349    1.685211
  H      5.098691    0.181910   -0.352991
  H      3.886164   -0.100866    2.437741
  C      5.896923    0.762628    2.233972
  C      6.863345    1.263162    1.161288
  C      6.602075   -0.197240    3.236548
  H      5.593729    1.636495    2.835701
  H      7.509517    0.331099    3.566380
  C      7.029455   -1.517488    2.591538
  C      5.746781   -0.464070    4.478080
  H      6.393271    2.030419    0.536925
  H      7.196895    0.456212    0.500711
  H      7.750922    1.702096    1.629517
  H      7.567972   -2.139996    3.314756
  H      7.686828   -1.361522    1.730284
  H      6.153231   -2.080113    2.247460
  H      4.869172   -1.075008    4.237043
  H      5.396482    0.470829    4.930932
  H      6.326372   -1.008611    5.231800
  H      4.487399   -2.153945   -1.106051
  H      2.794253   -2.647545   -1.218445
  H      3.665016   -2.798041    0.324162

----------------------------
CARTESIAN COORDINATES (A.U.)
----------------------------
  NO LB      ZA    FRAG     MASS         X           Y           Z
   0 C     6.0000    0    12.011   -9.857949    0.498808    0.260597
   1 C     6.0000    0    12.011  -12.436305   -0.447372   -0.516916
   2 C     6.0000    0    12.011  -13.339176    0.798409   -2.973400
   3 H     1.0000    0     1.008  -13.824114    0.032236    0.963087
   4 H     1.0000    0     1.008  -12.426593   -2.506428   -0.731604
   5 C     6.0000    0    12.011   -9.631624    3.283347    0.315461
   6 C     6.0000    0    12.011  -10.625219    4.593841   -2.021224
   7 C     6.0000    0    12.011  -13.283239    3.667954   -2.721360
   8 H     1.0000    0     1.008   -9.345445    4.169930   -3.605047
   9 H     1.0000    0     1.008  -10.614847    6.645481   -1.750530
  10 H     1.0000    0     1.008  -13.900975    4.537036   -4.497767
  11 H     1.0000    0     1.008  -14.631063    4.231321   -1.241201
  12 O     8.0000    0    15.999  -15.793414   -0.101949   -3.683924
  13 H     1.0000    0     1.008  -12.086505    0.218844   -4.525125
  14 C     6.0000    0    12.011   -7.950022   -1.133599    0.752746
  15 C     6.0000    0    12.011   -8.711943    4.565255    2.290876
  16 H     1.0000    0     1.008   -8.051855    3.600477    3.978775
  17 H     1.0000    0     1.008   -8.617547    6.618014    2.267597
  18 C     6.0000    0    12.011   -5.363081   -0.476751    1.325083
  19 H     1.0000    0     1.008   -8.409261   -3.135436    0.618985
  20 C     6.0000    0    12.011   -3.484662   -2.096768    1.925232
  21 H     1.0000    0     1.008   -4.900119    1.523376    1.226579
  22 C     6.0000    0    12.011   -3.751565   -4.916806    2.230911
  23 C     6.0000    0    12.011   -1.823972   -6.368714    0.601593
  24 H     1.0000    0     1.008   -5.664814   -5.574888    1.810912
  25 H     1.0000    0     1.008   -3.385606   -5.376630    4.228460
  26 C     6.0000    0    12.011    0.891167   -5.415295    0.966243
  27 H     1.0000    0     1.008   -2.363401   -6.203724   -1.393946
  28 H     1.0000    0     1.008   -1.919637   -8.385387    1.071736
  29 C     6.0000    0    12.011    1.096611   -2.552286    0.545464
  30 H     1.0000    0     1.008    2.147122   -6.456903   -0.306253
  31 H     1.0000    0     1.008    1.508736   -5.837539    2.906703
  32 C     6.0000    0    12.011   -0.820426   -1.251584    2.373035
  33 H     1.0000    0     1.008   -0.289855   -1.948390    4.270639
  34 C     6.0000    0    12.011   -0.105323    1.536627    2.260840
  35 H     1.0000    0     1.008  -16.959636    0.382157   -2.364145
  36 C     6.0000    0    12.011    2.813681    1.478023    2.076476
  37 H     1.0000    0     1.008   -0.782193    2.585791    3.911532
  38 H     1.0000    0     1.008   -0.926622    2.436185    0.586228
  39 C     6.0000    0    12.011    3.595716   -1.299473    1.459116
  40 H     1.0000    0     1.008    3.687266    2.110544    3.838509
  41 H     1.0000    0     1.008    3.496959    2.755021    0.594564
  42 H     1.0000    0     1.008    4.098382   -2.266354    3.232769
  43 C     6.0000    0    12.011    5.896556   -1.410365   -0.303113
  44 C     6.0000    0    12.011    0.519895   -1.857663   -2.211008
  45 H     1.0000    0     1.008   -1.464004   -2.209376   -2.677768
  46 H     1.0000    0     1.008    1.684738   -2.969881   -3.510696
  47 H     1.0000    0     1.008    0.894813    0.141314   -2.588271
  48 H     1.0000    0     1.008    5.396132   -0.387439   -2.045642
  49 C     6.0000    0    12.011    6.676961   -4.107220   -1.072109
  50 C     6.0000    0    12.011    8.223125   -0.128857    0.759264
  51 C     6.0000    0    12.011    8.748381    0.304904    3.184587
  52 H     1.0000    0     1.008    9.635130    0.343760   -0.667056
  53 H     1.0000    0     1.008    7.343785   -0.190609    4.606663
  54 C     6.0000    0    12.011   11.143570    1.441157    4.221596
  55 C     6.0000    0    12.011   12.969842    2.387031    2.194517
  56 C     6.0000    0    12.011   12.476114   -0.372729    6.116190
  57 H     1.0000    0     1.008   10.570616    3.092527    5.358698
  58 H     1.0000    0     1.008   14.190931    0.625686    6.739481
  59 C     6.0000    0    12.011   13.283744   -2.867636    4.897297
  60 C     6.0000    0    12.011   10.859842   -0.876965    8.462345
  61 H     1.0000    0     1.008   12.081530    3.836936    1.014641
  62 H     1.0000    0     1.008   13.600160    0.862116    0.946207
  63 H     1.0000    0     1.008   14.647119    3.216494    3.079341
  64 H     1.0000    0     1.008   14.301395   -4.044007    6.263981
  65 H     1.0000    0     1.008   14.525999   -2.572903    3.269762
  66 H     1.0000    0     1.008   11.627921   -3.930843    4.247085
  67 H     1.0000    0     1.008    9.201402   -2.031471    8.006851
  68 H     1.0000    0     1.008   10.197873    0.889737    9.318111
  69 H     1.0000    0     1.008   11.955110   -1.905998    9.886670
  70 H     1.0000    0     1.008    8.479955   -4.070365   -2.090134
  71 H     1.0000    0     1.008    5.280373   -5.003135   -2.302528
  72 H     1.0000    0     1.008    6.925876   -5.287531    0.612578

--------------------------------
INTERNAL COORDINATES (ANGSTROEM)
--------------------------------
 C      0   0   0     0.000000000000     0.00000000     0.00000000
 C      1   0   0     1.510492859286     0.00000000     0.00000000
 C      2   1   0     1.533834382841   111.69998407     0.00000000
 H      2   1   3     1.103235815722   109.37021631   241.51550497
 H      2   1   3     1.095524300079   110.71367261   122.88200655
 C      1   2   3     1.478658929073   114.13181127    50.65335510
 C      6   1   2     1.512070047488   114.38178986   311.75958144
 C      3   2   1     1.524631120547   110.35789754   305.04009578
 H      7   6   1     1.100640105904   108.37807363   290.19365069
 H      7   6   1     1.095104119183   110.24128617   172.94543446
 H      8   3   2     1.096370853654   109.69370123   179.03908457
 H      8   3   2     1.100495487201   108.63187019   296.47294051
 O      3   2   1     1.433550056606   111.20053722   180.35926590
 H      3   2   1     1.098973899603   108.98995509    65.15564451
 C      1   2   3     1.354027250417   120.96089271   233.02162632
 C      6   1   2     1.337820576687   123.37413827   129.48540375
 H     16   6   1     1.086491940448   121.40302030     0.74441487
 H     16   6   1     1.087491038409   120.95412838   181.37083522
 C     15   1   2     1.444496865988   126.40338021   175.05215001
 H     15   1   2     1.089146856287   116.20792975   357.91060850
 C     19  15   1     1.350500387110   126.44845968   176.86677152
 H     19  15   1     1.087655064743   115.94948831   355.80932349
 C     21  19  15     1.507671440816   125.77406919   357.05967855
 C     23  21  19     1.540835595977   111.80814935   127.16162846
 H     23  21  19     1.093489398177   112.34307804     3.04583386
 H     23  21  19     1.101853513442   107.76099118   245.79287875
 C     24  23  21     1.534974994691   112.66969618    50.69137516
 H     24  23  21     1.097373697082   109.06192816   288.53530018
 H     24  23  21     1.096961793185   109.12549118   172.59360960
 C     27  24  23     1.535169142211   111.86566537   306.35156053
 H     27  24  23     1.094977053780   108.98882210   182.73952675
 H     27  24  23     1.100518989663   109.17904500    66.25746505
 C     21  19  15     1.497956213511   122.71193026   177.04618213
 H     33  21  19     1.105960773738   106.44066747   124.67034473
 C     33  21  19     1.524368739192   121.09627353     2.17477106
 H     13   3   2     0.966563835954   107.50790888    62.65957027
 C     35  33  21     1.548059051281   103.34217226   195.21390636
 H     35  33  21     1.095241030359   112.23469072    73.45472338
 H     35  33  21     1.095801246884   110.70209559   313.76846898
 C     30  27  24     1.556341259461   115.81742528   166.47128222
 H     37  35  33     1.093234115426   111.22586453   251.71594967
 H     37  35  33     1.096515219201   111.20789263   133.35412276
 H     40  30  27     1.101575473140   105.78451134   322.07761495
 C     40  30  27     1.534760912499   117.97343686    82.94085427
 C     30  27  24     1.534909117379   111.10615720   294.64075870
 H     45  30  27     1.094440904866   111.37522705    67.37019197
 H     45  30  27     1.095163817852   110.86674569   307.25314914
 H     45  30  27     1.094616792824   111.63621468   187.26515819
 H     44  40  30     1.101554321681   107.40497540    62.02566154
 C     44  40  30     1.540388689345   114.11846206   303.13246551
 C     44  40  30     1.513838411199   113.72915697   179.76705145
 C     51  44  40     1.333088934043   127.17362123    23.43053925
 H     51  44  40     1.091121283839   113.74843474   198.90297793
 H     52  51  44     1.089735648681   118.76314649   356.01221401
 C     52  51  44     1.506379640740   126.50440894   176.02125178
 C     55  52  51     1.528121929898   114.02596953     6.28483209
 C     55  52  51     1.556837641808   111.69123935   238.66646146
 H     55  52  51     1.103470636444   106.47297490   124.38959623
 H     57  55  52     1.100627436984   105.69158729   179.57926430
 C     57  55  52     1.530276937569   112.76723111    61.71760952
 C     57  55  52     1.531054510250   112.12516379   296.45009155
 H     56  55  52     1.095209312623   110.98987872    59.32639811
 H     56  55  52     1.094891023957   112.00995352   298.97640920
 H     56  55  52     1.095304921231   110.10036098   178.98626077
 H     60  57  55     1.095701635891   110.43912983   176.95694471
 H     60  57  55     1.094633668688   112.11259039    56.76527030
 H     60  57  55     1.096678694380   110.59232323   296.39581517
 H     61  57  55     1.096148700356   111.47393086    69.74197263
 H     61  57  55     1.096274852726   111.39814649   308.92503368
 H     61  57  55     1.095693656962   110.42164986   188.94600102
 H     50  44  40     1.095859518851   110.29146278   188.34292696
 H     50  44  40     1.093113431238   112.20480685    68.31195562
 H     50  44  40     1.096465280695   110.19202121   307.20672990

---------------------------
INTERNAL COORDINATES (A.U.)
---------------------------
 C      0   0   0     0.000000000000     0.00000000     0.00000000
 C      1   0   0     2.854417831295     0.00000000     0.00000000
 C      2   1   0     2.898526918361   111.69998407     0.00000000
 H      2   1   3     2.084813552848   109.37021631   241.51550497
 H      2   1   3     2.070240900205   110.71367261   122.88200655
 C      1   2   3     2.794260421425   114.13181127    50.65335510
 C      6   1   2     2.857398285058   114.38178986   311.75958144
 C      3   2   1     2.881135273088   110.35789754   305.04009578
 H      7   6   1     2.079908372169   108.37807363   290.19365069
 H      7   6   1     2.069446873384   110.24128617   172.94543446
 H      8   3   2     2.071840654619   109.69370123   179.03908457
 H      8   3   2     2.079635082426   108.63187019   296.47294051
 O      3   2   1     2.709017006254   111.20053722   180.35926590
 H      3   2   1     2.076759698577   108.98995509    65.15564451
 C      1   2   3     2.558740681155   120.96089271   233.02162632
 C      6   1   2     2.528114506263   123.37413827   129.48540375
 H     16   6   1     2.053172214159   121.40302030     0.74441487
 H     16   6   1     2.055060235687   120.95412838   181.37083522
 C     15   1   2     2.729703478026   126.40338021   175.05215001
 H     15   1   2     2.058189278003   116.20792975   357.91060850
 C     19  15   1     2.552075875392   126.44845968   176.86677152
 H     19  15   1     2.055370200536   115.94948831   355.80932349
 C     21  19  15     2.849086123077   125.77406919   357.05967855
 C     23  21  19     2.911757293794   111.80814935   127.16162846
 H     23  21  19     2.066395492902   112.34307804     3.04583386
 H     23  21  19     2.082201380105   107.76099118   245.79287875
 C     24  23  21     2.900682362384   112.66969618    50.69137516
 H     24  23  21     2.073735754053   109.06192816   288.53530018
 H     24  23  21     2.072957368495   109.12549118   172.59360960
 C     27  24  23     2.901049248025   111.86566537   306.35156053
 H     27  24  23     2.069206754573   108.98882210   182.73952675
 H     27  24  23     2.079679495643   109.17904500    66.25746505
 C     21  19  15     2.830727004142   122.71193026   177.04618213
 H     33  21  19     2.089962977224   106.44066747   124.67034473
 C     33  21  19     2.880639444183   121.09627353     2.17477106
 H     13   3   2     1.826540940906   107.50790888    62.65957027
 C     35  33  21     2.925407646060   103.34217226   195.21390636
 H     35  33  21     2.069705598013   112.23469072    73.45472338
 H     35  33  21     2.070764253820   110.70209559   313.76846898
 C     30  27  24     2.941058751303   115.81742528   166.47128222
 H     37  35  33     2.065913078415   111.22586453   251.71594967
 H     37  35  33     2.072113465966   111.20789263   133.35412276
 H     40  30  27     2.081675960079   105.78451134   322.07761495
 C     40  30  27     2.900277805670   117.97343686    82.94085427
 C     30  27  24     2.900557872305   111.10615720   294.64075870
 H     45  30  27     2.068193579957   111.37522705    67.37019197
 H     45  30  27     2.069559687519   110.86674569   307.25314914
 H     45  30  27     2.068525960029   111.63621468   187.26515819
 H     44  40  30     2.081635989614   107.40497540    62.02566154
 C     44  40  30     2.910912762652   114.11846206   303.13246551
 C     44  40  30     2.860740008177   113.72915697   179.76705145
 C     51  44  40     2.519172997502   127.17362123    23.43053925
 H     51  44  40     2.061920405348   113.74843474   198.90297793
 H     52  51  44     2.059301934377   118.76314649   356.01221401
 C     52  51  44     2.846644974714   126.50440894   176.02125178
 C     55  52  51     2.887731946746   114.02596953     6.28483209
 C     55  52  51     2.941996777997   111.69123935   238.66646146
 H     55  52  51     2.085257299703   106.47297490   124.38959623
 H     57  55  52     2.079884431380   105.69158729   179.57926430
 C     57  55  52     2.891804321061   112.76723111    61.71760952
 C     57  55  52     2.893273720477   112.12516379   296.45009155
 H     56  55  52     2.069645660178   110.98987872    59.32639811
 H     56  55  52     2.069044181768   112.00995352   298.97640920
 H     56  55  52     2.069826334263   110.10036098   178.98626077
 H     60  57  55     2.070576016324   110.43912983   176.95694471
 H     60  57  55     2.068557850790   112.11259039    56.76527030
 H     60  57  55     2.072422389284   110.59232323   296.39581517
 H     61  57  55     2.071420845726   111.47393086    69.74197263
 H     61  57  55     2.071659239157   111.39814649   308.92503368
 H     61  57  55     2.070560938333   110.42164986   188.94600102
 H     50  44  40     2.070874371879   110.29146278   188.34292696
 H     50  44  40     2.065685018352   112.20480685    68.31195562
 H     50  44  40     2.072019095867   110.19202121   307.20672990

---------------------
BASIS SET INFORMATION
---------------------
There are 3 groups of distinct atoms

 Group   1 Type C   : 7s4p contracted to 4s3p pattern {4111/211}
 Group   2 Type H   : 5s contracted to 3s pattern {311}
 Group   3 Type O   : 7s4p contracted to 4s3p pattern {4111/211}

Atom   0C    basis set group =>   1
Atom   1C    basis set group =>   1
Atom   2C    basis set group =>   1
Atom   3H    basis set group =>   2
Atom   4H    basis set group =>   2
Atom   5C    basis set group =>   1
Atom   6C    basis set group =>   1
Atom   7C    basis set group =>   1
Atom   8H    basis set group =>   2
Atom   9H    basis set group =>   2
Atom  10H    basis set group =>   2
Atom  11H    basis set group =>   2
Atom  12O    basis set group =>   3
Atom  13H    basis set group =>   2
Atom  14C    basis set group =>   1
Atom  15C    basis set group =>   1
Atom  16H    basis set group =>   2
Atom  17H    basis set group =>   2
Atom  18C    basis set group =>   1
Atom  19H    basis set group =>   2
Atom  20C    basis set group =>   1
Atom  21H    basis set group =>   2
Atom  22C    basis set group =>   1
Atom  23C    basis set group =>   1
Atom  24H    basis set group =>   2
Atom  25H    basis set group =>   2
Atom  26C    basis set group =>   1
Atom  27H    basis set group =>   2
Atom  28H    basis set group =>   2
Atom  29C    basis set group =>   1
Atom  30H    basis set group =>   2
Atom  31H    basis set group =>   2
Atom  32C    basis set group =>   1
Atom  33H    basis set group =>   2
Atom  34C    basis set group =>   1
Atom  35H    basis set group =>   2
Atom  36C    basis set group =>   1
Atom  37H    basis set group =>   2
Atom  38H    basis set group =>   2
Atom  39C    basis set group =>   1
Atom  40H    basis set group =>   2
Atom  41H    basis set group =>   2
Atom  42H    basis set group =>   2
Atom  43C    basis set group =>   1
Atom  44C    basis set group =>   1
Atom  45H    basis set group =>   2
Atom  46H    basis set group =>   2
Atom  47H    basis set group =>   2
Atom  48H    basis set group =>   2
Atom  49C    basis set group =>   1
Atom  50C    basis set group =>   1
Atom  51C    basis set group =>   1
Atom  52H    basis set group =>   2
Atom  53H    basis set group =>   2
Atom  54C    basis set group =>   1
Atom  55C    basis set group =>   1
Atom  56C    basis set group =>   1
Atom  57H    basis set group =>   2
Atom  58H    basis set group =>   2
Atom  59C    basis set group =>   1
Atom  60C    basis set group =>   1
Atom  61H    basis set group =>   2
Atom  62H    basis set group =>   2
Atom  63H    basis set group =>   2
Atom  64H    basis set group =>   2
Atom  65H    basis set group =>   2
Atom  66H    basis set group =>   2
Atom  67H    basis set group =>   2
Atom  68H    basis set group =>   2
Atom  69H    basis set group =>   2
Atom  70H    basis set group =>   2
Atom  71H    basis set group =>   2
Atom  72H    basis set group =>   2

-------------------------
BASIS SET IN INPUT FORMAT
-------------------------

 # Basis set for element : H 
 NewGTO H 
 S 3 
   1    1357.7500000000      0.0012928364
   2      54.3100000000      0.0588280685
   3       4.3448000000      0.9761499708
 S 1 
   1       0.6604910000      1.0000000000
 S 1 
   1       0.1366870000      1.0000000000
  end;

 # Basis set for element : C 
 NewGTO C 
 S 4 
   1  139534.0000000000      0.0001655246
   2    5581.3600000000      0.0074486101
   3     446.5090000000      0.1285821065
   4      67.4620000000      0.9218029311
 S 1 
   1      15.0674000000      1.0000000000
 S 1 
   1       3.9387600000      1.0000000000
 S 1 
   1       0.2999150000      1.0000000000
 P 2 
   1      28.3900000000      0.0816325586
   2       4.3676900000      0.9660360576
 P 1 
   1       0.8698170000      1.0000000000
 P 1 
   1       0.1889340000      1.0000000000
  end;

 # Basis set for element : O 
 NewGTO O 
 S 4 
   1  253789.0000000000      0.0001641076
   2   10151.6000000000      0.0074010921
   3     812.1250000000      0.1277711901
   4     122.6930000000      0.9223372164
 S 1 
   1      27.5608000000      1.0000000000
 S 1 
   1       7.3172600000      1.0000000000
 S 1 
   1       0.5792400000      1.0000000000
 P 2 
   1      53.4157000000      0.0793786106
   2       8.2177900000      0.9670506337
 P 1 
   1       1.6754400000      1.0000000000
 P 1 
   1       0.3506720000      1.0000000000
  end;

---------------------------------
AUXILIARY/J BASIS SET INFORMATION
---------------------------------
There are 3 groups of distinct atoms

 Group   1 Type C   : 12s5p4d2f1g contracted to 6s4p3d1f1g pattern {711111/2111/211/2/1}
 Group   2 Type H   : 5s2p1d contracted to 3s1p1d pattern {311/2/1}
 Group   3 Type O   : 12s5p4d2f1g contracted to 6s4p3d1f1g pattern {711111/2111/211/2/1}

Atom   0C    basis set group =>   1
Atom   1C    basis set group =>   1
Atom   2C    basis set group =>   1
Atom   3H    basis set group =>   2
Atom   4H    basis set group =>   2
Atom   5C    basis set group =>   1
Atom   6C    basis set group =>   1
Atom   7C    basis set group =>   1
Atom   8H    basis set group =>   2
Atom   9H    basis set group =>   2
Atom  10H    basis set group =>   2
Atom  11H    basis set group =>   2
Atom  12O    basis set group =>   3
Atom  13H    basis set group =>   2
Atom  14C    basis set group =>   1
Atom  15C    basis set group =>   1
Atom  16H    basis set group =>   2
Atom  17H    basis set group =>   2
Atom  18C    basis set group =>   1
Atom  19H    basis set group =>   2
Atom  20C    basis set group =>   1
Atom  21H    basis set group =>   2
Atom  22C    basis set group =>   1
Atom  23C    basis set group =>   1
Atom  24H    basis set group =>   2
Atom  25H    basis set group =>   2
Atom  26C    basis set group =>   1
Atom  27H    basis set group =>   2
Atom  28H    basis set group =>   2
Atom  29C    basis set group =>   1
Atom  30H    basis set group =>   2
Atom  31H    basis set group =>   2
Atom  32C    basis set group =>   1
Atom  33H    basis set group =>   2
Atom  34C    basis set group =>   1
Atom  35H    basis set group =>   2
Atom  36C    basis set group =>   1
Atom  37H    basis set group =>   2
Atom  38H    basis set group =>   2
Atom  39C    basis set group =>   1
Atom  40H    basis set group =>   2
Atom  41H    basis set group =>   2
Atom  42H    basis set group =>   2
Atom  43C    basis set group =>   1
Atom  44C    basis set group =>   1
Atom  45H    basis set group =>   2
Atom  46H    basis set group =>   2
Atom  47H    basis set group =>   2
Atom  48H    basis set group =>   2
Atom  49C    basis set group =>   1
Atom  50C    basis set group =>   1
Atom  51C    basis set group =>   1
Atom  52H    basis set group =>   2
Atom  53H    basis set group =>   2
Atom  54C    basis set group =>   1
Atom  55C    basis set group =>   1
Atom  56C    basis set group =>   1
Atom  57H    basis set group =>   2
Atom  58H    basis set group =>   2
Atom  59C    basis set group =>   1
Atom  60C    basis set group =>   1
Atom  61H    basis set group =>   2
Atom  62H    basis set group =>   2
Atom  63H    basis set group =>   2
Atom  64H    basis set group =>   2
Atom  65H    basis set group =>   2
Atom  66H    basis set group =>   2
Atom  67H    basis set group =>   2
Atom  68H    basis set group =>   2
Atom  69H    basis set group =>   2
Atom  70H    basis set group =>   2
Atom  71H    basis set group =>   2
Atom  72H    basis set group =>   2

-------------------------------------
AUXILIARY/J BASIS SET IN INPUT FORMAT
-------------------------------------

 # Auxiliary/J basis set for element : H 
 NewAuxJGTO H 
 S 3 
   1      15.6752927000      0.1007184237
   2       3.6063578000      0.3404257499
   3       1.2080016000      0.6491996172
 S 1 
   1       0.4726794000      1.0000000000
 S 1 
   1       0.2018100000      1.0000000000
 P 2 
   1       2.0281365000      0.5596620919
   2       0.5358730000      0.5596620919
 D 1 
   1       2.2165124000      1.0000000000
  end;

 # Auxiliary/J basis set for element : C 
 NewAuxJGTO C 
 S 7 
   1    1861.0916331000      0.0134602335
   2     642.9939764000      0.0299160374
   3     235.1105725000      0.1008649584
   4      90.7028894000      0.2370970548
   5      36.7794552000      0.3924037254
   6      15.6046273000      0.3195862154
   7       6.8907294000      0.0530104441
 S 1 
   1       3.1478850000     -1.0000000000
 S 1 
   1       1.4777287000      1.0000000000
 S 1 
   1       0.7076466000      1.0000000000
 S 1 
   1       0.3430122000      1.0000000000
 S 1 
   1       0.1669453000      1.0000000000
 P 2 
   1      13.5472892000     -0.6769313712
   2       5.4669419000     -0.3779500978
 P 1 
   1       2.1751721000      1.0000000000
 P 1 
   1       0.8582194000      1.0000000000
 P 1 
   1       0.3376720000      1.0000000000
 D 2 
   1       5.9287253000     -0.3533329857
   2       1.9809209000     -0.7456525731
 D 1 
   1       0.8055417000     -1.0000000000
 D 1 
   1       0.3531244000     -1.0000000000
 F 2 
   1       1.6755626000      0.6311076882
   2       0.5997536000      0.4968166032
 G 1 
   1       1.0024600000     -1.0000000000
  end;

 # Auxiliary/J basis set for element : O 
 NewAuxJGTO O 
 S 7 
   1    2876.8216605000      0.0168151159
   2    1004.7443032000      0.0340137548
   3     369.7579954000      0.1194951309
   4     142.9442404000      0.2664627624
   5      57.8366425000      0.4202764046
   6      24.3864983000      0.2765077335
   7      10.6622662000      0.0057008815
 S 1 
   1       4.8070437000     -1.0000000000
 S 1 
   1       2.2210770000      1.0000000000
 S 1 
   1       1.0447795000      1.0000000000
 S 1 
   1       0.4968425000      1.0000000000
 S 1 
   1       0.2371384000      1.0000000000
 P 2 
   1      64.2613382000     -0.2731534179
   2      16.3006076000     -0.8168011598
 P 1 
   1       4.3550542000      1.0000000000
 P 1 
   1       1.2019554000      1.0000000000
 P 1 
   1       0.3354196000      1.0000000000
 D 2 
   1       9.2146611000     -0.4661230638
   2       2.8435251000     -0.6600908911
 D 1 
   1       0.9955759000     -1.0000000000
 D 1 
   1       0.3649441000     -1.0000000000
 F 2 
   1       2.6420115000      0.5931563945
   2       0.7345613000      0.5931563945
 G 1 
   1       1.3931000000     -1.0000000000
  end;


Checking for AutoStart:
The File: inpJ.gbw exists
Trying to determine its content:
     ... Fine, the file contains calculation information
     ... Fine, the calculation information was read
     ... Fine, the file contains a basis set
     ... Fine, the basis set was read
     ... Fine, the file contains a geometry
     ... Fine, the geometry was read
     ... Fine, the file contains a set of orbitals
     ... Fine, the orbitals can be read
     => possible old guess file was deleted
     => GBW file was renamed to GES file
     => GES file is set as startup file
     => Guess is set to MORead
     ... now leaving AutoStart



           ************************************************************
           *        Program running with 4 parallel MPI-processes     *
           *              working on a common directory               *
           ************************************************************
------------------------------------------------------------------------------
                             ORCA STARTUP CALCULATIONS
                           -- RI-GTO INTEGRALS CHOSEN --
------------------------------------------------------------------------------
------------------------------------------------------------------------------
                   ___                                                        
                  /   \      - P O W E R E D   B Y -                         
                 /     \                                                     
                 |  |  |   _    _      __       _____    __    __             
                 |  |  |  | |  | |    /  \     |  _  \  |  |  /  |          
                  \  \/   | |  | |   /    \    | | | |  |  | /  /          
                 / \  \   | |__| |  /  /\  \   | |_| |  |  |/  /          
                |  |  |   |  __  | /  /__\  \  |    /   |      \           
                |  |  |   | |  | | |   __   |  |    \   |  |\   \          
                \     /   | |  | | |  |  |  |  | |\  \  |  | \   \       
                 \___/    |_|  |_| |__|  |__|  |_| \__\ |__|  \__/        
                                                                              
                      - O R C A' S   B I G   F R I E N D -                    
                                      &                                       
                       - I N T E G R A L  F E E D E R -                       
                                                                              
 v1 FN, 2020, v2 2021, v3 2022-2024                                           
------------------------------------------------------------------------------


----------------------
SHARK INTEGRAL PACKAGE
----------------------

Number of atoms                             ...     73
Number of basis functions                   ...    509
Number of shells                            ...    335
Maximum angular momentum                    ...      1
Integral batch strategy                     ... SHARK/LIBINT Hybrid
RI-J (if used) integral strategy            ... SPLIT-RIJ (Revised 2003 algorithm where possible)
Printlevel                                  ...      1
Contraction scheme used                     ... SEGMENTED contraction
Prescreening option                         ... SCHWARTZ
   Thresh                                   ... 3.000e-11
   Tcut                                     ... 1.000e-12
   Tpresel                                  ... 1.000e-12 
Coulomb Range Separation                    ... NOT USED
Exchange Range Separation                   ... NOT USED
Multipole approximations                    ... NOT USED
Finite Nucleus Model                        ... NOT USED
CABS basis                                  ... NOT available
Auxiliary Coulomb fitting basis             ... AVAILABLE
   # of basis functions in Aux-J            ...   1905
   # of shells in Aux-J                     ...    655
   Maximum angular momentum in Aux-J        ...      4
Auxiliary J/K fitting basis                 ... NOT available
Auxiliary Correlation fitting basis         ... NOT available
Auxiliary 'external' fitting basis          ... NOT available

Checking pre-screening integrals            ... done (  0.0 sec) Dimension = 335
Check shell pair data                       ... done (  0.0 sec)
Shell pair information
Shell pair cut-off parameter TPreSel        ...   1.0e-12
Total number of shell pairs                 ...     56280
Shell pairs after pre-screening             ...     22017
Total number of primitive shell pairs       ...    145865
Primitive shell pairs kept                  ...     37777
          la=0 lb=0:  11099 shell pairs
          la=1 lb=0:   9038 shell pairs
          la=1 lb=1:   1880 shell pairs

Calculating one electron integrals          ... done (  0.0 sec)
Calculating RI/J V-Matrix + Cholesky decomp.... done (  0.2 sec)
Calculating Nuclear repulsion               ... done (  0.0 sec) ENN=   2783.248108447214 Eh

Diagonalization of the overlap matrix:
Smallest eigenvalue                        ... 7.557e-03
Time for diagonalization                   ...    0.028 sec
Threshold for overlap eigenvalues          ... 1.000e-07
Number of eigenvalues below threshold      ... 0
Time for construction of square roots      ...    0.022 sec
Total time needed                          ...    0.053 sec

-------------------
DFT GRID GENERATION
-------------------

General Integration Accuracy     IntAcc      ... 4.388
Radial Grid Type                 RadialGrid  ... OptM3 with GC (2021)
Angular Grid (max. ang.)         AngularGrid ... 4 (Lebedev-302)
Angular grid pruning method      GridPruning ... 4 (adaptive)
Weight generation scheme         WeightScheme... mBecke (2022)
Basis function cutoff            BFCut       ... 1.0000e-11
Integration weight cutoff        WCut        ... 1.0000e-14
Partially contracted basis set               ... off
Rotationally invariant grid construction     ... off
Angular grids for H and He will be reduced by one unit

Total number of grid points                  ...   309897
Total number of batches                      ...     4877
Average number of points per batch           ...       63
Average number of grid points per atom       ...     4245

--------------------
COSX GRID GENERATION
--------------------

GRIDX 1
-------
General Integration Accuracy     IntAcc      ... 3.816
Radial Grid Type                 RadialGrid  ... OptM3 with GC (2021)
Angular Grid (max. ang.)         AngularGrid ... 1 (Lebedev-50)
Angular grid pruning method      GridPruning ... 4 (adaptive)
Weight generation scheme         WeightScheme... mBecke (2022)
Basis function cutoff            BFCut       ... 1.0000e-11
Integration weight cutoff        WCut        ... 1.0000e-14
Partially contracted basis set               ... on
Rotationally invariant grid construction     ... off
Angular grids for H and He will be reduced by one unit

Total number of grid points                  ...    39380
Total number of batches                      ...      351
Average number of points per batch           ...      112
Average number of grid points per atom       ...      539
UseSFitting                                  ... on

GRIDX 2
-------
General Integration Accuracy     IntAcc      ... 4.020
Radial Grid Type                 RadialGrid  ... OptM3 with GC (2021)
Angular Grid (max. ang.)         AngularGrid ... 2 (Lebedev-110)
Angular grid pruning method      GridPruning ... 4 (adaptive)
Weight generation scheme         WeightScheme... mBecke (2022)
Basis function cutoff            BFCut       ... 1.0000e-11
Integration weight cutoff        WCut        ... 1.0000e-14
Partially contracted basis set               ... on
Rotationally invariant grid construction     ... off
Angular grids for H and He will be reduced by one unit

Total number of grid points                  ...    81347
Total number of batches                      ...      675
Average number of points per batch           ...      120
Average number of grid points per atom       ...     1114
UseSFitting                                  ... on

GRIDX 3
-------
General Integration Accuracy     IntAcc      ... 4.338
Radial Grid Type                 RadialGrid  ... OptM3 with GC (2021)
Angular Grid (max. ang.)         AngularGrid ... 3 (Lebedev-194)
Angular grid pruning method      GridPruning ... 4 (adaptive)
Weight generation scheme         WeightScheme... mBecke (2022)
Basis function cutoff            BFCut       ... 1.0000e-11
Integration weight cutoff        WCut        ... 1.0000e-14
Partially contracted basis set               ... on
Rotationally invariant grid construction     ... off
Angular grids for H and He will be reduced by one unit

Total number of grid points                  ...   176148
Total number of batches                      ...     1417
Average number of points per batch           ...      124
Average number of grid points per atom       ...     2413
UseSFitting                                  ... on
Initializing property integral containers    ... done (  0.0 sec)

SHARK setup successfully completed in   3.7 seconds

Maximum memory used throughout the entire STARTUP-calculation: 85.5 MB


           ************************************************************
           *        Program running with 4 parallel MPI-processes     *
           *              working on a common directory               *
           ************************************************************
-------------------------------------------------------------------------------
                                 ORCA GUESS
                   Start orbitals & Density for SCF / CASSCF
-------------------------------------------------------------------------------

------------
SCF SETTINGS
------------
Hamiltonian:
 Density Functional     Method          .... DFT(GTOs)
 Exchange Functional    Exchange        .... PBE
   PBE kappa parameter   XKappa         ....  0.804000
   PBE mue parameter    XMuePBE         ....  0.219520
 Correlation Functional Correlation     .... PBE
   PBE beta parameter  CBetaPBE         ....  0.066725
 LDA part of GGA corr.  LDAOpt          .... PW91-LDA
 Gradients option       PostSCFGGA      .... off
 Hybrid DFT is turned on
   Fraction HF Exchange ScalHFX         ....  0.250000
   Scaling of DF-GGA-X  ScalDFX         ....  0.750000
   Scaling of DF-GGA-C  ScalDFC         ....  1.000000
   Scaling of DF-LDA-C  ScalLDAC        ....  1.000000
   Perturbative correction              ....  0.000000
   NL short-range parameter             ....  6.900000
 RI-approximation to the Coulomb term is turned on
   Number of AuxJ basis functions       .... 1905
   RIJ-COSX (HFX calculated with COS-X)).... on


General Settings:
 Integral files         IntName         .... inpJ
 Hartree-Fock type      HFTyp           .... RHF
 Total Charge           Charge          ....    0
 Multiplicity           Mult            ....    1
 Number of Electrons    NEL             ....  220
 Basis Dimension        Dim             ....  509
 Nuclear Repulsion      ENuc            ....   2783.2481084472 Eh

Convergence Acceleration:
 AO-DIIS                CNVDIIS         .... on
   Start iteration      DIISMaxIt       ....    12
   Startup error        DIISStart       ....  0.200000
   # of expansion vecs  DIISMaxEq       ....     5
   Bias factor          DIISBfac        ....   1.050
   Max. coefficient     DIISMaxC        ....  10.000
 MO-DIIS                CNVKDIIS        .... off
 Trust-Rad. Augm. Hess. CNVTRAH         .... auto
   Auto Start mean grad. ratio tolernc. ....  1.125000
   Auto Start start iteration           ....     1
   Auto Start num. interpolation iter.  ....    10
   Max. Number of Micro iterations      ....    24
   Max. Number of Macro iterations      .... Maxiter - #DIIS iter
   Number of Davidson start vectors     ....     2
   Converg. threshold    (grad. norm)   ....   1.000e-04
   Grad. Scal. Fac. for Micro threshold ....   0.100
   Minimum threshold for Micro iter.    ....   1.000e-02
   NR start threshold (gradient norm)   ....   1.000e-04
   Initial trust radius                 ....   0.400
   Minimum AH scaling param. (alpha)    ....   1.000
   Maximum AH scaling param. (alpha)    .... 1000.000
   Quad. conv. algorithm                .... NR
   White noise on init. David. guess    .... on
   Maximum white noise                  ....   0.010
   Pseudo random numbers                .... off
   Inactive MOs                         .... canonical
   Orbital update algorithm             .... Taylor
   Preconditioner                       .... Diag
   Full preconditioner red. dimension   ....   250
 SOSCF                  CNVSOSCF        .... off
 Level Shifting         CNVShift        .... on
   Level shift para.    LevelShift      ....    0.2500
   Turn off err/grad.   ShiftErr        ....    0.0010
 Zerner damping         CNVZerner       .... off
 Static damping         CNVDamp         .... on
   Fraction old density DampFac         ....    0.7000
   Max. Damping (<1)    DampMax         ....    0.9800
   Min. Damping (>=0)   DampMin         ....    0.0000
   Turn off err/grad.   DampErr         ....    0.1000

SCF Procedure:
 Maximum # iterations   MaxIter         ....   125
 SCF integral mode      SCFMode         .... Direct
   Integral package                     .... SHARK and LIBINT hybrid scheme
 Reset frequency        DirectResetFreq ....    20
 Integral Threshold     Thresh          ....  3.000e-11 Eh
 Primitive CutOff       TCut            ....  1.000e-12 Eh

Convergence Tolerance:
 Convergence Check Mode ConvCheckMode   .... Total+1el-Energy
 Convergence forced     ConvForced      .... 0
 Energy Change          TolE            ....  1.000e-07 Eh
 1-El. energy change                    ....  1.000e-04 Eh
 DIIS Error             TolErr          ....  1.000e-07

---------------------
INITIAL GUESS: MOREAD
---------------------
Guess MOs are being read from file: inpJ.ges
Input Geometry matches current geometry (good)
Input basis set matches current basis set (good)
Occupation numbers will be reassigned to an Aufbau configuration
MOs were renormalized
MOs were reorthogonalized (Cholesky)
                      ------------------
                      INITIAL GUESS DONE (   0.1 sec)
                      ------------------
             **** ENERGY FILE WAS UPDATED (inpJ.en.tmp) ****
Finished Guess after   0.2 sec
Maximum memory used throughout the entire GUESS-calculation: 36.8 MB


           ************************************************************
           *        Program running with 4 parallel MPI-processes     *
           *              working on a common directory               *
           ************************************************************

-------------------------------------------------------------------------------------------
                                      ORCA LEAN-SCF
                              memory conserving SCF solver
-------------------------------------------------------------------------------------------

--------------------
CPCM SOLVATION MODEL
--------------------
CPCM parameters:
  Epsilon                                         ...       4.8030
  Refrac                                          ...       1.4459
  Rsolv                                           ...       1.3000
  Surface type                                    ... GAUSSIAN VDW
  Discretization scheme                           ... Constant charge density
    Threshold for H atoms                         ...       5.0000 (charges/Ang^2)
    Threshold for non-H atoms                     ...       5.0000 (charges/Ang^2)
  Epsilon function type                           ...         CPCM
Solvent:                                          ... CHLOROFORM
Radii:
  Scheme                                          ... Element-dependent radii
  Radius for C  used is    3.8550 Bohr (=   2.0400 Ang.)
  Radius for H  used is    2.4944 Bohr (=   1.3200 Ang.)
  Radius for O  used is    3.4469 Bohr (=   1.8240 Ang.)
Calculating surface                               ...        done! (  0.0s)
Cavity surface points                             ...         5410
Cavity Volume                                     ...    3605.8063
Cavity Surface-area                               ...    1793.2839
Calculating surface distance matrix               ...        done! (  0.2s)
Performing Cholesky decomposition & store         ...        done! (  0.9s)
Overall time for CPCM initialization              ...                 1.2s

----------------------------------------D-I-I-S--------------------------------------------
Iteration    Energy (Eh)           Delta-E    RMSDP     MaxDP     DIISErr   Damp  Time(sec)
-------------------------------------------------------------------------------------------
               ***  Starting incremental Fock matrix formation  ***
    1    -1165.5074690456813187     0.00e+00  4.46e-08  5.67e-06  7.72e-06  0.700   6.2

  HOMO= 109 E= -5.922 eV LUMO=  5.989 eV gap=  11.911 eV
    2    -1165.5074690836686386    -3.80e-08  2.98e-08  3.38e-06  3.66e-06  0.700   2.0
                 **** Energy Check signals convergence ****

  HOMO= 109 E= -5.922 eV LUMO=  5.989 eV gap=  11.911 eV

               *****************************************************
               *                     SUCCESS                       *
               *           SCF CONVERGED AFTER   2 CYCLES          *
               *****************************************************

Recomputing exchange energy using gridx3       ... done (    8.442 sec)
Old exchange energy                            :    -42.067679266 Eh
New exchange energy                            :    -42.067743438 Eh
Exchange energy change after final integration :     -0.000064172 Eh
Total energy after final integration           :  -1165.507533256 Eh
             **** ENERGY FILE WAS UPDATED (inpJ.en.tmp) ****

----------------
TOTAL SCF ENERGY
----------------

Total Energy       :      -1165.50753325551977 Eh          -31715.07234 eV

Components:
Nuclear Repulsion  :       2783.24810844721424 Eh           75736.03138 eV
Electronic Energy  :      -3948.73998112798108 Eh         -107450.67757 eV
One Electron Energy:      -7108.60156513938091 Eh         -193434.88263 eV
Two Electron Energy:       3159.86158401139983 Eh           85984.20505 eV
CPCM Dielectric    :         -0.01559640290167 Eh              -0.42440 eV

Virial components:
Potential Energy   :      -2322.40684696606695 Eh          -63195.90312 eV
Kinetic Energy     :       1156.89931371054718 Eh           31480.83078 eV
Virial Ratio       :          2.00744076813164

DFT components:
N(Alpha)           :      110.000181891336 electrons
N(Beta)            :      110.000181891336 electrons
N(Total)           :      220.000363782672 electrons
E(X)               :     -125.746118844864 Eh       
E(C)               :       -7.327772964823 Eh       
E(XC)              :     -133.073891809687 Eh       

CPCM Solvation Model Properties:
Surface-charge          :         -0.03295133495072
Corrected charge        :         -0.00000000000000
Outlying charge corr.   :          0.00003804420781 Eh               0.00104 eV
Free-energy (cav+disp)  :  This term is not implemented in the current solvation scheme

---------------
SCF CONVERGENCE
---------------

  Last Energy change         ...    3.7987e-08  Tolerance :   1.0000e-07
  Last MAX-Density change    ...    3.3760e-06  Tolerance :   1.0000e-05
  Last RMS-Density change    ...    2.9752e-08  Tolerance :   1.0000e-06
  Last DIIS Error            ...    3.6559e-06  Tolerance :   1.0000e-07


----------------
ORBITAL ENERGIES
----------------

  NO   OCC          E(Eh)            E(eV) 
   0   2.0000     -19.215121      -522.8700 
   1   2.0000     -10.301413      -280.3157 
   2   2.0000     -10.269505      -279.4474 
   3   2.0000     -10.266762      -279.3728 
   4   2.0000     -10.261668      -279.2342 
   5   2.0000     -10.256178      -279.0848 
   6   2.0000     -10.253449      -279.0105 
   7   2.0000     -10.251206      -278.9495 
   8   2.0000     -10.250969      -278.9430 
   9   2.0000     -10.249453      -278.9018 
  10   2.0000     -10.249280      -278.8971 
  11   2.0000     -10.246132      -278.8114 
  12   2.0000     -10.244975      -278.7799 
  13   2.0000     -10.243935      -278.7516 
  14   2.0000     -10.243885      -278.7503 
  15   2.0000     -10.243025      -278.7269 
  16   2.0000     -10.242984      -278.7258 
  17   2.0000     -10.241973      -278.6983 
  18   2.0000     -10.241426      -278.6834 
  19   2.0000     -10.241112      -278.6748 
  20   2.0000     -10.239163      -278.6218 
  21   2.0000     -10.233441      -278.4661 
  22   2.0000     -10.233356      -278.4638 
  23   2.0000     -10.232357      -278.4366 
  24   2.0000     -10.226802      -278.2854 
  25   2.0000     -10.225266      -278.2436 
  26   2.0000     -10.225123      -278.2397 
  27   2.0000     -10.222281      -278.1624 
  28   2.0000     -10.219933      -278.0985 
  29   2.0000      -1.045934       -28.4613 
  30   2.0000      -0.900539       -24.5049 
  31   2.0000      -0.883672       -24.0459 
  32   2.0000      -0.859847       -23.3976 
  33   2.0000      -0.845144       -22.9975 
  34   2.0000      -0.821630       -22.3577 
  35   2.0000      -0.813459       -22.1354 
  36   2.0000      -0.794765       -21.6267 
  37   2.0000      -0.794676       -21.6242 
  38   2.0000      -0.776651       -21.1338 
  39   2.0000      -0.757413       -20.6103 
  40   2.0000      -0.738983       -20.1087 
  41   2.0000      -0.732835       -19.9414 
  42   2.0000      -0.713683       -19.4203 
  43   2.0000      -0.703068       -19.1314 
  44   2.0000      -0.699328       -19.0297 
  45   2.0000      -0.693473       -18.8704 
  46   2.0000      -0.668839       -18.2000 
  47   2.0000      -0.663673       -18.0595 
  48   2.0000      -0.633343       -17.2341 
  49   2.0000      -0.621754       -16.9188 
  50   2.0000      -0.619424       -16.8554 
  51   2.0000      -0.609527       -16.5861 
  52   2.0000      -0.596686       -16.2366 
  53   2.0000      -0.585120       -15.9219 
  54   2.0000      -0.564224       -15.3533 
  55   2.0000      -0.541797       -14.7430 
  56   2.0000      -0.530642       -14.4395 
  57   2.0000      -0.527926       -14.3656 
  58   2.0000      -0.515005       -14.0140 
  59   2.0000      -0.506818       -13.7912 
  60   2.0000      -0.497855       -13.5473 
  61   2.0000      -0.491368       -13.3708 
  62   2.0000      -0.485482       -13.2106 
  63   2.0000      -0.480442       -13.0735 
  64   2.0000      -0.475904       -12.9500 
  65   2.0000      -0.468624       -12.7519 
  66   2.0000      -0.465314       -12.6618 
  67   2.0000      -0.457624       -12.4526 
  68   2.0000      -0.456718       -12.4279 
  69   2.0000      -0.450673       -12.2634 
  70   2.0000      -0.448608       -12.2072 
  71   2.0000      -0.442220       -12.0334 
  72   2.0000      -0.435854       -11.8602 
  73   2.0000      -0.432773       -11.7764 
  74   2.0000      -0.430327       -11.7098 
  75   2.0000      -0.424012       -11.5380 
  76   2.0000      -0.416282       -11.3276 
  77   2.0000      -0.414226       -11.2717 
  78   2.0000      -0.406707       -11.0671 
  79   2.0000      -0.403625       -10.9832 
  80   2.0000      -0.401570       -10.9273 
  81   2.0000      -0.398710       -10.8495 
  82   2.0000      -0.395464       -10.7611 
  83   2.0000      -0.389230       -10.5915 
  84   2.0000      -0.387242       -10.5374 
  85   2.0000      -0.382499       -10.4083 
  86   2.0000      -0.378017       -10.2864 
  87   2.0000      -0.368303       -10.0220 
  88   2.0000      -0.367285        -9.9943 
  89   2.0000      -0.366838        -9.9822 
  90   2.0000      -0.362978        -9.8771 
  91   2.0000      -0.356985        -9.7140 
  92   2.0000      -0.355944        -9.6857 
  93   2.0000      -0.343901        -9.3580 
  94   2.0000      -0.340928        -9.2771 
  95   2.0000      -0.337658        -9.1881 
  96   2.0000      -0.337231        -9.1765 
  97   2.0000      -0.334334        -9.0977 
  98   2.0000      -0.330445        -8.9919 
  99   2.0000      -0.328976        -8.9519 
 100   2.0000      -0.325971        -8.8701 
 101   2.0000      -0.322012        -8.7624 
 102   2.0000      -0.316939        -8.6243 
 103   2.0000      -0.315048        -8.5729 
 104   2.0000      -0.310744        -8.4558 
 105   2.0000      -0.299369        -8.1462 
 106   2.0000      -0.279896        -7.6164 
 107   2.0000      -0.274733        -7.4759 
 108   2.0000      -0.255169        -6.9435 
 109   2.0000      -0.217642        -5.9223 
 110   0.0000      -0.029904        -0.8137 
 111   0.0000       0.021355         0.5811 
 112   0.0000       0.028613         0.7786 
 113   0.0000       0.080804         2.1988 
 114   0.0000       0.090948         2.4748 
 115   0.0000       0.101957         2.7744 
 116   0.0000       0.106014         2.8848 
 117   0.0000       0.107861         2.9351 
 118   0.0000       0.108707         2.9581 
 119   0.0000       0.113680         3.0934 
 120   0.0000       0.118528         3.2253 
*Only the first 10 virtual orbitals were printed.

                    ********************************
                    * MULLIKEN POPULATION ANALYSIS *
                    ********************************

-----------------------
MULLIKEN ATOMIC CHARGES
-----------------------
   0 C :    0.107052
   1 C :   -0.499771
   2 C :   -0.054683
   3 H :    0.207235
   4 H :    0.222091
   5 C :    0.135413
   6 C :   -0.475490
   7 C :   -0.451700
   8 H :    0.214205
   9 H :    0.224002
  10 H :    0.229123
  11 H :    0.204623
  12 O :   -0.487364
  13 H :    0.233799
  14 C :   -0.283236
  15 C :   -0.516442
  16 H :    0.201241
  17 H :    0.196625
  18 C :   -0.259533
  19 H :    0.217594
  20 C :    0.150227
  21 H :    0.219321
  22 C :   -0.480224
  23 C :   -0.427157
  24 H :    0.211465
  25 H :    0.206421
  26 C :   -0.396489
  27 H :    0.207834
  28 H :    0.216674
  29 C :    0.004405
  30 H :    0.222498
  31 H :    0.194158
  32 C :   -0.229116
  33 H :    0.226759
  34 C :   -0.434376
  35 H :    0.343241
  36 C :   -0.418425
  37 H :    0.207144
  38 H :    0.198317
  39 C :   -0.200306
  40 H :    0.210318
  41 H :    0.204303
  42 H :    0.208844
  43 C :   -0.241093
  44 C :   -0.629216
  45 H :    0.209433
  46 H :    0.201429
  47 H :    0.205010
  48 H :    0.219983
  49 C :   -0.619780
  50 C :   -0.181900
  51 C :   -0.188532
  52 H :    0.217362
  53 H :    0.220187
  54 C :   -0.229860
  55 C :   -0.631510
  56 C :   -0.201140
  57 H :    0.223070
  58 H :    0.220915
  59 C :   -0.614784
  60 C :   -0.611348
  61 H :    0.203116
  62 H :    0.197206
  63 H :    0.205849
  64 H :    0.200280
  65 H :    0.205859
  66 H :    0.194984
  67 H :    0.198480
  68 H :    0.200788
  69 H :    0.205260
  70 H :    0.204544
  71 H :    0.208145
  72 H :    0.196640
Sum of atomic charges:   -0.0000000

--------------------------------
MULLIKEN REDUCED ORBITAL CHARGES
--------------------------------
  0 C s       :     3.355850  s :     3.355850
      pz      :     1.003212  p :     2.537098
      px      :     0.800346
      py      :     0.733541

  1 C s       :     3.383606  s :     3.383606
      pz      :     0.994767  p :     3.116166
      px      :     0.967134
      py      :     1.154264

  2 C s       :     3.306295  s :     3.306295
      pz      :     1.032510  p :     2.748388
      px      :     0.823612
      py      :     0.892266

  3 H s       :     0.792765  s :     0.792765

  4 H s       :     0.777909  s :     0.777909

  5 C s       :     3.345073  s :     3.345073
      pz      :     0.816294  p :     2.519514
      px      :     0.954307
      py      :     0.748914

  6 C s       :     3.368285  s :     3.368285
      pz      :     1.000949  p :     3.107206
      px      :     0.965827
      py      :     1.140430

  7 C s       :     3.340437  s :     3.340437
      pz      :     1.191159  p :     3.111263
      px      :     0.998709
      py      :     0.921395

  8 H s       :     0.785795  s :     0.785795

  9 H s       :     0.775998  s :     0.775998

 10 H s       :     0.770877  s :     0.770877

 11 H s       :     0.795377  s :     0.795377

 12 O s       :     3.685522  s :     3.685522
      pz      :     1.681274  p :     4.801842
      px      :     1.267268
      py      :     1.853300

 13 H s       :     0.766201  s :     0.766201

 14 C s       :     3.392447  s :     3.392447
      pz      :     0.999835  p :     2.890789
      px      :     0.802900
      py      :     1.088054

 15 C s       :     3.386530  s :     3.386530
      pz      :     1.008592  p :     3.129911
      px      :     1.017971
      py      :     1.103349

 16 H s       :     0.798759  s :     0.798759

 17 H s       :     0.803375  s :     0.803375

 18 C s       :     3.396964  s :     3.396964
      pz      :     1.018948  p :     2.862568
      px      :     0.755051
      py      :     1.088569

 19 H s       :     0.782406  s :     0.782406

 20 C s       :     3.350475  s :     3.350475
      pz      :     0.948650  p :     2.499298
      px      :     0.756363
      py      :     0.794285

 21 H s       :     0.780679  s :     0.780679

 22 C s       :     3.372568  s :     3.372568
      pz      :     1.111475  p :     3.107656
      px      :     1.110218
      py      :     0.885964

 23 C s       :     3.327195  s :     3.327195
      pz      :     1.103888  p :     3.099962
      px      :     0.891121
      py      :     1.104954

 24 H s       :     0.788535  s :     0.788535

 25 H s       :     0.793579  s :     0.793579

 26 C s       :     3.349428  s :     3.349428
      pz      :     1.171082  p :     3.047061
      px      :     0.967201
      py      :     0.908777

 27 H s       :     0.792166  s :     0.792166

 28 H s       :     0.783326  s :     0.783326

 29 C s       :     3.317487  s :     3.317487
      pz      :     0.871010  p :     2.678108
      px      :     0.904221
      py      :     0.902878

 30 H s       :     0.777502  s :     0.777502

 31 H s       :     0.805842  s :     0.805842

 32 C s       :     3.362211  s :     3.362211
      pz      :     1.084273  p :     2.866905
      px      :     0.868063
      py      :     0.914569

 33 H s       :     0.773241  s :     0.773241

 34 C s       :     3.343844  s :     3.343844
      pz      :     1.189549  p :     3.090531
      px      :     0.938906
      py      :     0.962076

 35 H s       :     0.656759  s :     0.656759

 36 C s       :     3.338541  s :     3.338541
      pz      :     1.172491  p :     3.079884
      px      :     0.929263
      py      :     0.978129

 37 H s       :     0.792856  s :     0.792856

 38 H s       :     0.801683  s :     0.801683

 39 C s       :     3.342462  s :     3.342462
      pz      :     1.069886  p :     2.857844
      px      :     0.865980
      py      :     0.921978

 40 H s       :     0.789682  s :     0.789682

 41 H s       :     0.795697  s :     0.795697

 42 H s       :     0.791156  s :     0.791156

 43 C s       :     3.347284  s :     3.347284
      pz      :     1.056961  p :     2.893809
      px      :     0.885094
      py      :     0.951754

 44 C s       :     3.366286  s :     3.366286
      pz      :     0.952950  p :     3.262930
      px      :     1.161316
      py      :     1.148664

 45 H s       :     0.790567  s :     0.790567

 46 H s       :     0.798571  s :     0.798571

 47 H s       :     0.794990  s :     0.794990

 48 H s       :     0.780017  s :     0.780017

 49 C s       :     3.348442  s :     3.348442
      pz      :     1.152410  p :     3.271338
      px      :     1.151515
      py      :     0.967413

 50 C s       :     3.347532  s :     3.347532
      pz      :     0.889679  p :     2.834367
      px      :     0.965838
      py      :     0.978851

 51 C s       :     3.355170  s :     3.355170
      pz      :     0.890817  p :     2.833362
      px      :     0.962324
      py      :     0.980222

 52 H s       :     0.782638  s :     0.782638

 53 H s       :     0.779813  s :     0.779813

 54 C s       :     3.339500  s :     3.339500
      pz      :     0.952961  p :     2.890360
      px      :     0.897923
      py      :     1.039477

 55 C s       :     3.347167  s :     3.347167
      pz      :     1.063102  p :     3.284342
      px      :     1.080466
      py      :     1.140774

 56 C s       :     3.312199  s :     3.312199
      pz      :     0.909274  p :     2.888941
      px      :     1.046385
      py      :     0.933282

 57 H s       :     0.776930  s :     0.776930

 58 H s       :     0.779085  s :     0.779085

 59 C s       :     3.344767  s :     3.344767
      pz      :     1.123372  p :     3.270017
      px      :     1.147309
      py      :     0.999335

 60 C s       :     3.340964  s :     3.340964
      pz      :     1.020570  p :     3.270384
      px      :     1.090665
      py      :     1.159149

 61 H s       :     0.796884  s :     0.796884

 62 H s       :     0.802794  s :     0.802794

 63 H s       :     0.794151  s :     0.794151

 64 H s       :     0.799720  s :     0.799720

 65 H s       :     0.794141  s :     0.794141

 66 H s       :     0.805016  s :     0.805016

 67 H s       :     0.801520  s :     0.801520

 68 H s       :     0.799212  s :     0.799212

 69 H s       :     0.794740  s :     0.794740

 70 H s       :     0.795456  s :     0.795456

 71 H s       :     0.791855  s :     0.791855

 72 H s       :     0.803360  s :     0.803360


------------------------
MULLIKEN OVERLAP CHARGES
------------------------
B(  0-C ,  1-C ) :   0.4964 B(  0-C ,  2-C ) :  -0.1308 B(  0-C ,  3-H ) :  -0.0876 
B(  0-C ,  4-H ) :  -0.0672 B(  0-C ,  5-C ) :   0.4215 B(  0-C ,  6-C ) :  -0.1567 
B(  0-C , 14-C ) :   0.9467 B(  0-C , 15-C ) :  -0.2026 B(  0-C , 18-C ) :  -0.1836 
B(  0-C , 19-H ) :  -0.0750 B(  1-C ,  2-C ) :   0.5270 B(  1-C ,  3-H ) :   0.7957 
B(  1-C ,  4-H ) :   0.8137 B(  1-C ,  5-C ) :  -0.1487 B(  1-C ,  7-C ) :  -0.1687 
B(  1-C , 12-O ) :  -0.0832 B(  1-C , 13-H ) :  -0.0845 B(  1-C , 14-C ) :  -0.1079 
B(  2-C ,  3-H ) :  -0.0821 B(  2-C ,  4-H ) :  -0.0580 B(  2-C ,  6-C ) :  -0.1287 
B(  2-C ,  7-C ) :   0.5343 B(  2-C , 10-H ) :  -0.0697 B(  2-C , 11-H ) :  -0.0826 
B(  2-C , 12-O ) :   0.6904 B(  2-C , 13-H ) :   0.7985 B(  2-C , 35-H ) :  -0.1133 
B(  5-C ,  6-C ) :   0.5392 B(  5-C ,  7-C ) :  -0.1713 B(  5-C ,  8-H ) :  -0.0880 
B(  5-C ,  9-H ) :  -0.0735 B(  5-C , 14-C ) :  -0.1963 B(  5-C , 15-C ) :   1.0590 
B(  5-C , 16-H ) :  -0.0994 B(  5-C , 17-H ) :  -0.0943 B(  6-C ,  7-C ) :   0.5410 
B(  6-C ,  8-H ) :   0.8036 B(  6-C ,  9-H ) :   0.8190 B(  6-C , 11-H ) :  -0.0738 
B(  6-C , 15-C ) :  -0.1288 B(  7-C ,  8-H ) :  -0.0770 B(  7-C , 10-H ) :   0.8059 
B(  7-C , 11-H ) :   0.7945 B(  7-C , 12-O ) :  -0.0902 B(  7-C , 13-H ) :  -0.0842 
B( 12-O , 35-H ) :   0.6600 B( 14-C , 18-C ) :   0.6129 B( 14-C , 19-H ) :   0.8252 
B( 14-C , 20-C ) :  -0.1952 B( 14-C , 21-H ) :  -0.0735 B( 15-C , 16-H ) :   0.8143 
B( 15-C , 17-H ) :   0.8068 B( 18-C , 19-H ) :  -0.0610 B( 18-C , 20-C ) :   0.9214 
B( 18-C , 21-H ) :   0.8317 B( 18-C , 22-C ) :  -0.1500 B( 18-C , 32-C ) :  -0.1485 
B( 20-C , 21-H ) :  -0.0845 B( 20-C , 22-C ) :   0.5329 B( 20-C , 23-C ) :  -0.1706 
B( 20-C , 24-H ) :  -0.0668 B( 20-C , 25-H ) :  -0.0927 B( 20-C , 29-C ) :  -0.1260 
B( 20-C , 32-C ) :   0.5189 B( 20-C , 33-H ) :  -0.0912 B( 20-C , 34-C ) :  -0.0989 
[...]
        0.0000         2.9681        0.0000
        0.0000         0.0000        2.9681

 Diagonalized JT*J matrix:
 
 J[55,60](FC)             2.968            2.968            2.968  iso=      2.968
                ---------------  ---------------  ---------------  ---------------
 J[55,60](Total)          2.968            2.968            2.968  iso=      2.968



-----------------------------------------------------------
 NUCLEUS A = C   56 NUCLEUS B = C   59 
 ( 13C  gnA =  1.405  13C  gnB =  1.405) r(AB) =     1.5303
-----------------------------------------------------------

Fermi-contact contribution to J (Hz):
       26.6994         0.0000        0.0000
        0.0000        26.6994        0.0000
        0.0000         0.0000       26.6994

Total spin-spin coupling tensor J (Hz):
       26.6994         0.0000        0.0000
        0.0000        26.6994        0.0000
        0.0000         0.0000       26.6994

 Diagonalized JT*J matrix:
 
 J[56,59](FC)            26.699           26.699           26.699  iso=     26.699
                ---------------  ---------------  ---------------  ---------------
 J[56,59](Total)         26.699           26.699           26.699  iso=     26.699



-----------------------------------------------------------
 NUCLEUS A = C   56 NUCLEUS B = C   60 
 ( 13C  gnA =  1.405  13C  gnB =  1.405) r(AB) =     1.5311
-----------------------------------------------------------

Fermi-contact contribution to J (Hz):
       26.8470         0.0000        0.0000
        0.0000        26.8470        0.0000
        0.0000         0.0000       26.8470

Total spin-spin coupling tensor J (Hz):
       26.8470         0.0000        0.0000
        0.0000        26.8470        0.0000
        0.0000         0.0000       26.8470

 Diagonalized JT*J matrix:
 
 J[56,60](FC)            26.847           26.847           26.847  iso=     26.847
                ---------------  ---------------  ---------------  ---------------
 J[56,60](Total)         26.847           26.847           26.847  iso=     26.847



-----------------------------------------------------------
 NUCLEUS A = C   59 NUCLEUS B = C   60 
 ( 13C  gnA =  1.405  13C  gnB =  1.405) r(AB) =     2.5128
-----------------------------------------------------------

Fermi-contact contribution to J (Hz):
       -0.8892         0.0000        0.0000
        0.0000        -0.8892        0.0000
        0.0000         0.0000       -0.8892

Total spin-spin coupling tensor J (Hz):
       -0.8892         0.0000        0.0000
        0.0000        -0.8892        0.0000
        0.0000         0.0000       -0.8892

 Diagonalized JT*J matrix:
 
 J[59,60](FC)            -0.889           -0.889           -0.889  iso=     -0.889
                ---------------  ---------------  ---------------  ---------------
 J[59,60](Total)         -0.889           -0.889           -0.889  iso=     -0.889



-----------------------------------------------------------------------------
                SUMMARY OF ISOTROPIC COUPLING CONSTANTS J (Hz)                
-----------------------------------------------------------------------------
                  0 C        1 C        2 C        5 C        6 C        7 C  
      0 C        0.000     32.383     -2.395     42.137     -0.184      0.877
      1 C       32.383      0.000     25.297     -1.191      0.386     -0.398
      2 C       -2.395     25.297      0.000      2.025     -1.369     25.829
      5 C       42.137     -1.191      2.025      0.000     31.001     -2.889
      6 C       -0.184      0.386     -1.369     31.001      0.000     23.039
      7 C        0.877     -0.398     25.829     -2.889     23.039      0.000
     14 C       70.319     -0.388      3.569     -3.173      2.733     -0.703
     15 C       -3.281      2.717     -0.838     64.361     -0.911      2.822
     18 C       -2.620      4.223     -1.087      3.276     -1.016      0.206
     20 C        6.953     -1.151      1.269     -1.498      0.783     -0.146
     22 C       -0.951      0.334     -0.385      0.445     -0.238      0.046
     23 C        0.803     -0.273      0.298     -0.335      0.191      0.000
     26 C       -0.079      0.031      0.000      0.042      0.000      0.000
     29 C        1.134     -0.362      0.000     -0.487      0.260      0.000
     32 C       -1.152      0.556     -0.419      0.511     -0.278      0.057
     34 C        0.021     -0.015      0.016     -0.017      0.009     -0.002
     36 C       -0.013      0.000      0.000      0.015     -0.009      0.000
     39 C       -0.077      0.000      0.000      0.032      0.000      0.000
     43 C        0.000      0.000      0.000      0.000      0.000      0.000
     44 C        0.010     -0.004      0.004     -0.006      0.004     -0.001
     49 C        0.000      0.000      0.000      0.000      0.000      0.000
     50 C        0.000      0.000      0.000      0.000      0.000      0.000
     51 C        0.000      0.000      0.000      0.000      0.000      0.000
     54 C        0.000      0.000      0.000      0.000      0.000      0.000
     55 C        0.000      0.000      0.000      0.000      0.000      0.000
     56 C        0.000      0.000      0.000      0.000      0.000      0.000
     59 C        0.000      0.000      0.000      0.000      0.000      0.000
     60 C        0.000      0.000      0.000      0.000      0.000      0.000
                 14 C       15 C       18 C       20 C       22 C       23 C  
      0 C       70.319     -3.281     -2.620      6.953     -0.951      0.803
      1 C       -0.388      2.717      4.223     -1.151      0.334     -0.273
      2 C        3.569     -0.838     -1.087      1.269     -0.385      0.298
      5 C       -3.173     64.361      3.276     -1.498      0.445     -0.335
      6 C        2.733     -0.911     -1.016      0.783     -0.238      0.191
      7 C       -0.703      2.822      0.206     -0.146      0.046      0.000
     14 C        0.000      3.064     54.438     -2.783      3.848     -0.906
     15 C        3.064      0.000     -1.130      1.067     -0.277      0.240
     18 C       54.438     -1.130      0.000     70.056     -2.185      2.473
     20 C       -2.783      1.067     70.056      0.000     32.228     -2.881
     22 C        3.848     -0.277     -2.185     32.228      0.000     24.426
     23 C       -0.906      0.240      2.473     -2.881     24.426      0.000
     26 C        0.115     -0.021     -0.367      1.028     -1.925     25.461
     29 C       -1.163      0.343      2.403     -2.372      1.108     -2.202
     32 C        4.410     -0.337     -1.320     37.044     -0.238      1.503
     34 C        0.067      0.005      2.448     -1.324      1.600     -0.257
     36 C        0.014     -0.014     -0.156      3.549      0.057      0.171
     39 C        0.264     -0.023     -0.039      2.940     -0.338      2.570
     43 C        0.007      0.000      0.298      0.187      0.003     -0.110
     44 C       -0.001      0.003     -0.065      0.703     -0.134      0.607
     49 C       -0.001      0.000     -0.010     -0.036      0.138      0.040
     50 C        0.000      0.000      0.033      0.147     -0.009      0.136
     51 C        0.000      0.000     -0.006      0.041     -0.002     -0.007
     54 C        0.000      0.000      0.000      0.000      0.000      0.000
     55 C        0.000      0.000      0.000      0.000      0.000      0.000
     56 C        0.000      0.000      0.000      0.000      0.000      0.000
     59 C        0.000      0.000      0.000      0.000      0.000      0.000
     60 C        0.000      0.000      0.000      0.000      0.000      0.000
                 26 C       29 C       32 C       34 C       36 C       39 C  
      0 C       -0.079      1.134     -1.152      0.021     -0.013     -0.077
      1 C        0.031     -0.362      0.556     -0.015      0.000      0.000
      2 C        0.000      0.000     -0.419      0.016      0.000      0.000
      5 C        0.042     -0.487      0.511     -0.017      0.015      0.032
      6 C        0.000      0.260     -0.278      0.009     -0.009      0.000
      7 C        0.000      0.000      0.057     -0.002      0.000      0.000
     14 C        0.115     -1.163      4.410      0.067      0.014      0.264
     15 C       -0.021      0.343     -0.337      0.005     -0.014     -0.023
     18 C       -0.367      2.403     -1.320      2.448     -0.156     -0.039
     20 C        1.028     -2.372     37.044     -1.324      3.549      2.940
     22 C       -1.925      1.108     -0.238      1.600      0.057     -0.338
     23 C       25.461     -2.202      1.503     -0.257      0.171      2.570
     26 C        0.000     27.805     -0.953      2.314      3.024     -0.574
     29 C       27.805      0.000     23.344      0.914      0.555     28.887
     32 C       -0.953     23.344      0.000     27.909      1.326      3.496
     34 C        2.314      0.914     27.909      0.000     25.916      0.040
     36 C        3.024      0.555      1.326     25.916      0.000     26.296
     39 C       -0.574     28.887      3.496      0.040     26.296      0.000
     43 C       -0.008     -0.685      2.707      1.644      0.225     30.543
     44 C       -0.569     27.349     -0.939      0.833      0.242     -1.215
     49 C        0.361      0.209      0.002     -0.003      3.190     -1.011
     50 C       -0.088      3.304      0.009     -0.060      0.566     -1.697
     51 C        0.020     -0.119      0.039      0.010      0.123      2.008
     54 C        0.003      0.003     -0.004     -0.003      0.026     -0.135
     55 C       -0.003      0.058      0.002     -0.001      0.012      0.091
     56 C        0.002     -0.028      0.004     -0.001     -0.046      0.080
     59 C       -0.000     -0.000      0.000      0.001      0.003     -0.001
     60 C       -0.000      0.001      0.001     -0.001      0.000      0.003
                 43 C       44 C       49 C       50 C       51 C       54 C  
      0 C        0.000      0.010      0.000      0.000      0.000      0.000
      1 C        0.000     -0.004      0.000      0.000      0.000      0.000
      2 C        0.000      0.004      0.000      0.000      0.000      0.000
      5 C        0.000     -0.006      0.000      0.000      0.000      0.000
      6 C        0.000      0.004      0.000      0.000      0.000      0.000
      7 C        0.000     -0.001      0.000      0.000      0.000      0.000
     14 C        0.007     -0.001     -0.001      0.000      0.000      0.000
     15 C        0.000      0.003      0.000      0.000      0.000      0.000
     18 C        0.298     -0.065     -0.010      0.033     -0.006      0.000
     20 C        0.187      0.703     -0.036      0.147      0.041      0.000
     22 C        0.003     -0.134      0.138     -0.009     -0.002      0.000
     23 C       -0.110      0.607      0.040      0.136     -0.007      0.000
     26 C       -0.008     -0.569      0.361     -0.088      0.020      0.003
     29 C       -0.685     27.349      0.209      3.304     -0.119      0.003
     32 C        2.707     -0.939      0.002      0.009      0.039     -0.004
     34 C        1.644      0.833     -0.003     -0.060      0.010     -0.003
     36 C        0.225      0.242      3.190      0.566      0.123      0.026
     39 C       30.543     -1.215     -1.011     -1.697      2.008     -0.135
     43 C        0.000      1.514     24.870     35.475     -1.551      3.345
     44 C        1.514      0.000     -0.086     -0.142      0.136      0.022
     49 C       24.870     -0.086      0.000     -3.405      3.427     -1.062
     50 C       35.475     -0.142     -3.405      0.000     68.693     -1.631
     51 C       -1.551      0.136      3.427     68.693      0.000     36.102
     54 C        3.345      0.022     -1.062     -1.631     36.102      0.000
     55 C       -0.024     -0.002      0.047      2.953     -1.700     28.290
     56 C       -0.662      0.018      1.481      2.903     -2.793     25.099
     59 C        0.007     -0.001     -0.062     -0.095      1.103     -1.326
     60 C        0.006     -0.000     -0.007     -0.005      1.150     -0.734
                 55 C       56 C       59 C       60 C  
      0 C        0.000      0.000      0.000      0.000
      1 C        0.000      0.000      0.000      0.000
      2 C        0.000      0.000      0.000      0.000
      5 C        0.000      0.000      0.000      0.000
      6 C        0.000      0.000      0.000      0.000
      7 C        0.000      0.000      0.000      0.000
     14 C        0.000      0.000      0.000      0.000
     15 C        0.000      0.000      0.000      0.000
     18 C        0.000      0.000      0.000      0.000
     20 C        0.000      0.000      0.000      0.000
     22 C        0.000      0.000      0.000      0.000
     23 C        0.000      0.000      0.000      0.000
     26 C       -0.003      0.002     -0.000     -0.000
     29 C        0.058     -0.028     -0.000      0.001
     32 C        0.002      0.004      0.000      0.001
     34 C       -0.001     -0.001      0.001     -0.001
     36 C        0.012     -0.046      0.003      0.000
     39 C        0.091      0.080     -0.001      0.003
     43 C       -0.024     -0.662      0.007      0.006
     44 C       -0.002      0.018     -0.001     -0.000
     49 C        0.047      1.481     -0.062     -0.007
     50 C        2.953      2.903     -0.095     -0.005
     51 C       -1.700     -2.793      1.103      1.150
     54 C       28.290     25.099     -1.326     -0.734
     55 C        0.000     -0.654      0.904      2.968
     56 C       -0.654      0.000     26.699     26.847
     59 C        0.904     26.699      0.000     -0.889
     60 C        2.968     26.847     -0.889      0.000

NMR spin-spin coupling calculation done in   0.3 sec 

Maximum memory used throughout the entire PROP-calculation: 34.3 MB

--------------------------------
SUGGESTED CITATIONS FOR THIS RUN
--------------------------------

Below you find a list of papers that are relevant to this ORCA run
We neither can nor want to force you to cite these papers, but we appreciate if you do
You receive ORCA, which is the product of decades of hard work by many enthusiastic individuals, for free
The only thing we kindly ask in return is that you cite our papers,
We deeply appreciate it, if you show your appreciation for ORCA by not just citing the generic ORCA reference.

Please note that relegating all ORCA citations to the supporting information does *not* help us.
SI sections are not indexed - citations you put there will not count into any citation statistics
But we need these citations in order to attract the funding resources that allow us to do what we are doing

Therefore, if you are a happy ORCA user, please consider citing a few of the papers listed below in the main body of your paper

In addition to the list printed below, the program has created the file inpJ.bibtex that contains the list in bibtex format
You can import this file easily into all common literature databanks and citation aid programs


List of essential papers. We consider these as the minimum necessary citations

  1. Neese,F.
     Software update: the ORCA program system, version 5.0
     WIRES Comput. Molec. Sci., 2022 12(1)e1606
     doi.org/10.1002/wcms.1606

List of papers to cite with high priority. The work reported in these papers was absolutely
necessary for this run to complete.
Our perspective: the developers of density functionals and basis sets usually get cited in chemistry papers
Good! But without the algorithms to do something with them, the functionals or basis sets would not do anything.
Hence, in our opinion, the algorithm design and method developments papers are equally worthy of getting cited

  1. Neese,F.
     An improvement of the resolution of the identity approximation for the formation of the Coulomb matrix
     J. Comp. Chem., 2003 24(14)1740-1747
     doi.org/10.1002/jcc.10318
  2. Neese,F.; Wennmohs,F.; Hansen,A.; Becker,U.
     Efficient, approximate and parallel Hartree-Fock and hybrid DFT calculations. A 'chain-of-spheres' algorithm for the Hartree-Fock exchange
     Chem. Phys., 2009 356(1-3)98-109
     doi.org/10.1016/j.chemphys.2008.10.036
  3. Stoychev,G.L.; Auer,A.A.; Izsak,R.; Neese,F.
     Self-Consistent Field Calculation of Nuclear Magnetic Resonance Chemical Shielding Constants Using Gauge-Including Atomic Orbitals and Approximate Two-Electron Integrals
     J. Chem. Theory Comput., 2018 14(2)619-637
     doi.org/10.1021/acs.jctc.7b01006
  4. Garcia-Rates,M.; Neese,F.
     Effect of the Solute Cavity on the Solvation Energy and its Derivatives within the Framework of the Gaussian Charge Scheme
     J. Comput. Chem., 2020 41 922-939
     doi.org/10.1002/jcc.26139
  5. Helmich-Paris,B.; de Souza,B.; Neese,F.; Izsák,R.
     An improved chain of spheres for exchange algorithm
     J. Chem. Phys., 2021 155 104109
     doi.org/doi: 10.1063/5.0058766.
  6. Neese,F.
     The SHARK Integral Generation and Digestion System
     J. Comp. Chem., 2022  1-16
     doi.org/10.1002/jcc.26942
  7. Grimme,S.; Bannwarth,C.; Dohm,S.; Hansen,A.; Pisarek,J.; Pracht,P.; Seibert,J.; Neese,F.
     Fully Automated Quantum-Chemistry-Based Computation of Spin-Spin-Coupled Nuclear Magnetic Resonance Spectra
     Angew. Chem., Int. Ed., 2017 56 14763-14769
     doi.org/10.1002/anie.201708266
  8. Caldeweyher,E.; Bannwarth,C.; Grimme,S.
     Extension of the D3 dispersion coefficient model
     J. Chem. Phys., 2017 147 034112-XXXX
     doi.org/10.1063/1.4993215
  9. Caldeweyher,E.; Ehlert,S.; Hansen,A.; Neugebauer,H.; Spicher,S.; Bannwarth,C.; Grimme,S.
     A generally applicable atomic-charge dependent London dispersion correction
     J. Chem. Phys., 2019 150 154122-XXXX
     doi.org/10.1063/1.5090222
 10. Caldeweyher,E.; Mewes,J.; Ehlert,S.; Grimme,S.
     Extension and evaluation of the D4 London-dispersion model for periodic systems
     Phys. Chem. Chem. Phys., 2020 22(16)8499-8512
     doi.org/10.1039/D0CP00502A

List of suggested additional citations. These are papers that are important in the 'surrounding' of 
of this run, or papers that preceded the highly important papers. If you like your results we are grateful for a citation.

  1. Izsak,R.; Neese,F.
     An overlap fitted chain of spheres exchange method
     J. Chem. Phys., 2011 135 144105
     doi.org/10.1063/1.3646921
  2. Izsak,R.; Hansen,A.; Neese,F.
     The resolution of identity and chain of spheres approximations for the LPNO-CCSD singles Fock term
     Molec. Phys., 2012 110 2413-2417
     doi.org/10.1080/00268976.2012.687466
  3. Neese,F.
     The ORCA program system
     WIRES Comput. Molec. Sci., 2012 2(1)73-78
     doi.org/10.1002/wcms.81
  4. Izsak,R.; Neese,F.; Klopper,W.
     Robust fitting techniques in the chain of spheres approximation to the Fock exchange: The role of the complementary space
     J. Chem. Phys., 2013 139 
     doi.org/10.1063/1.4819264
  5. Neese,F.
     Software update: the ORCA program system, version 4.0
     WIRES Comput. Molec. Sci., 2018 8(1)1-6
     doi.org/10.1002/wcms.1327
  6. Neese,F.; Wennmohs,F.; Becker,U.; Riplinger,C.
     The ORCA quantum chemistry program package
     J. Chem. Phys., 2020 152 Art. No. L224108
     doi.org/10.1063/5.0004608

Timings for individual modules:

Sum of individual times          ...      134.717 sec (=   2.245 min)
Startup calculation              ...        3.915 sec (=   0.065 min)   2.9 %
SCF iterations                   ...       19.155 sec (=   0.319 min)  14.2 %
Property integrals               ...        0.812 sec (=   0.014 min)   0.6 %
SCF Response                     ...      110.316 sec (=   1.839 min)  81.9 %
Property calculations            ...        0.519 sec (=   0.009 min)   0.4 %
                             ****ORCA TERMINATED NORMALLY****
TOTAL RUN TIME: 0 days 0 hours 2 minutes 15 seconds 24 msec
