
                                 *****************
                                 * O   R   C   A *
                                 *****************

                                            #,                                       
                                            ###                                      
                                            ####                                     
                                            #####                                    
                                            ######                                   
                                           ########,                                 
                                     ,,################,,,,,                         
                               ,,#################################,,                 
                          ,,##########################################,,             
                       ,#########################################, ''#####,          
                    ,#############################################,,   '####,        
                  ,##################################################,,,,####,       
                ,###########''''           ''''###############################       
              ,#####''   ,,,,##########,,,,          '''####'''          '####       
            ,##' ,,,,###########################,,,                        '##       
           ' ,,###''''                  '''############,,,                           
         ,,##''                                '''############,,,,        ,,,,,,###''
      ,#''                                            '''#######################'''  
     '                                                          ''''####''''         
             ,#######,   #######,   ,#######,      ##                                
            ,#'     '#,  ##    ##  ,#'     '#,    #''#        ######   ,####,        
            ##       ##  ##   ,#'  ##            #'  '#       #        #'  '#        
            ##       ##  #######   ##           ,######,      #####,   #    #        
            '#,     ,#'  ##    ##  '#,     ,#' ,#      #,         ##   #,  ,#        
             '#######'   ##     ##  '#######'  #'      '#     #####' # '####'        



                  #######################################################
                  #                        -***-                        #
                  #          Department of theory and spectroscopy      #
                  #    Directorship and core code : Frank Neese         #
                  #        Max Planck Institute fuer Kohlenforschung    #
                  #                Kaiser Wilhelm Platz 1               #
                  #                 D-45470 Muelheim/Ruhr               #
                  #                      Germany                        #
                  #                                                     #
                  #                  All rights reserved                #
                  #                        -***-                        #
                  #######################################################


                         Program Version 5.0.2 -  RELEASE  -


 With contributions from (in alphabetic order):
   Daniel Aravena         : Magnetic Suceptibility
   Michael Atanasov       : Ab Initio Ligand Field Theory (pilot matlab implementation)
   Alexander A. Auer      : GIAO ZORA, VPT2 properties, NMR spectrum
   Ute Becker             : Parallelization
   Giovanni Bistoni       : ED, misc. LED, open-shell LED, HFLD
   Martin Brehm           : Molecular dynamics
   Dmytro Bykov           : SCF Hessian
   Vijay G. Chilkuri      : MRCI spin determinant printing, contributions to CSF-ICE
   Dipayan Datta          : RHF DLPNO-CCSD density
   Achintya Kumar Dutta   : EOM-CC, STEOM-CC
   Dmitry Ganyushin       : Spin-Orbit,Spin-Spin,Magnetic field MRCI
   Miquel Garcia          : C-PCM and meta-GGA Hessian, CC/C-PCM, Gaussian charge scheme
   Yang Guo               : DLPNO-NEVPT2, F12-NEVPT2, CIM, IAO-localization
   Andreas Hansen         : Spin unrestricted coupled pair/coupled cluster methods
   Benjamin Helmich-Paris : MC-RPA, TRAH-SCF, COSX integrals
   Lee Huntington         : MR-EOM, pCC
   Robert Izsak           : Overlap fitted RIJCOSX, COSX-SCS-MP3, EOM
   Marcus Kettner         : VPT2
   Christian Kollmar      : KDIIS, OOCD, Brueckner-CCSD(T), CCSD density, CASPT2, CASPT2-K
   Simone Kossmann        : Meta GGA functionals, TD-DFT gradient, OOMP2, MP2 Hessian
   Martin Krupicka        : Initial AUTO-CI
   Lucas Lang             : DCDCAS
   Marvin Lechner         : AUTO-CI (C++ implementation), FIC-MRCC
   Dagmar Lenk            : GEPOL surface, SMD
   Dimitrios Liakos       : Extrapolation schemes; Compound Job, initial MDCI parallelization
   Dimitrios Manganas     : Further ROCIS development; embedding schemes
   Dimitrios Pantazis     : SARC Basis sets
   Anastasios Papadopoulos: AUTO-CI, single reference methods and gradients
   Taras Petrenko         : DFT Hessian,TD-DFT gradient, ASA, ECA, R-Raman, ABS, FL, XAS/XES, NRVS
   Peter Pinski           : DLPNO-MP2, DLPNO-MP2 Gradient
   Christoph Reimann      : Effective Core Potentials
   Marius Retegan         : Local ZFS, SOC
   Christoph Riplinger    : Optimizer, TS searches, QM/MM, DLPNO-CCSD(T), (RO)-DLPNO pert. Triples
   Tobias Risthaus        : Range-separated hybrids, TD-DFT gradient, RPA, STAB
   Michael Roemelt        : Original ROCIS implementation
   Masaaki Saitow         : Open-shell DLPNO-CCSD energy and density
   Barbara Sandhoefer     : DKH picture change effects
   Avijit Sen             : IP-ROCIS
   Kantharuban Sivalingam : CASSCF convergence, NEVPT2, FIC-MRCI
   Bernardo de Souza      : ESD, SOC TD-DFT
   Georgi Stoychev        : AutoAux, RI-MP2 NMR, DLPNO-MP2 response
   Willem Van den Heuvel  : Paramagnetic NMR
   Boris Wezisla          : Elementary symmetry handling
   Frank Wennmohs         : Technical directorship


 We gratefully acknowledge several colleagues who have allowed us to
 interface, adapt or use parts of their codes:
   Stefan Grimme, W. Hujo, H. Kruse, P. Pracht,  : VdW corrections, initial TS optimization,
                  C. Bannwarth, S. Ehlert          DFT functionals, gCP, sTDA/sTD-DF
   Ed Valeev, F. Pavosevic, A. Kumar             : LibInt (2-el integral package), F12 methods
   Garnet Chan, S. Sharma, J. Yang, R. Olivares  : DMRG
   Ulf Ekstrom                                   : XCFun DFT Library
   Mihaly Kallay                                 : mrcc  (arbitrary order and MRCC methods)
   Jiri Pittner, Ondrej Demel                    : Mk-CCSD
   Frank Weinhold                                : gennbo (NPA and NBO analysis)
   Christopher J. Cramer and Donald G. Truhlar   : smd solvation model
   Lars Goerigk                                  : TD-DFT with DH, B97 family of functionals
   V. Asgeirsson, H. Jonsson                     : NEB implementation
   FAccTs GmbH                                   : IRC, NEB, NEB-TS, DLPNO-Multilevel, CI-OPT
                                                   MM, QMMM, 2- and 3-layer-ONIOM, Crystal-QMMM,
                                                   LR-CPCM, SF, NACMEs, symmetry and pop. for TD-DFT,
                                                   nearIR, NL-DFT gradient (VV10), updates on ESD,
                                                   ML-optimized integration grids
   S Lehtola, MJT Oliveira, MAL Marques          : LibXC Library
   Liviu Ungur et al                             : ANISO software


 Your calculation uses the libint2 library for the computation of 2-el integrals
 For citations please refer to: http://libint.valeyev.net

 Your ORCA version has been built with support for libXC version: 5.1.0
 For citations please refer to: https://tddft.org/programs/libxc/

 This ORCA versions uses:
   CBLAS   interface :  Fast vector & matrix operations
   LAPACKE interface :  Fast linear algebra routines
   SCALAPACK package :  Parallel linear algebra routines
   Shared memory     :  Shared parallel matrices
   BLAS/LAPACK       :  OpenBLAS 0.3.15  USE64BITINT DYNAMIC_ARCH NO_AFFINITY Zen SINGLE_THREADED
        Core in use  :  Zen
   Copyright (c) 2011-2014, The OpenBLAS Project


Your calculation utilizes the atom-pairwise dispersion correction
based on tight binding partial charges (D4)
Cite in your paper:
E.Caldeweyher, C.Bannwarth, S.Grimme, J.Chem.Phys., (2017), 147, 034112.
E.Caldeweyher, S.Ehlert, A.Hansen, H.Neugebauer, S.Grimme, J.Chem.Phys., (2018), in progress.
   

================================================================================

----- Orbital basis set information -----
Your calculation utilizes the basis: pcSseg-1
   F. Jensen, J. Chem. Theory Comput. 11, 132 (2015).

----- AuxJ basis set information -----
Your calculation utilizes the auxiliary basis: def2/J
   F. Weigend, Phys. Chem. Chem. Phys. 8, 1057 (2006).

================================================================================
                                        WARNINGS
                       Please study these warnings very carefully!
================================================================================



WARNING: Found flag for RIJCOSX approximation but no HF exchange needed!
  ===> : RIJCOSX  will be disabled and Split-RI-J is turned on

INFO   : the flag for use of the SHARK integral package has been found!

================================================================================
                                       INPUT FILE
================================================================================
NAME = inpS
|  1> ! revTPSS
|  2> ! D4
|  3> ! pcSseg-1
|  4> ! def2/J RIJCOSX
|  5> ! DEFGRID2
|  6> ! scfconv7
|  7> ! smallprint printgap noloewdin
|  8> ! NOSOSCF
|  9> %MaxCore 4000
| 10> %output
| 11>        print[P_BondOrder_M] 1
| 12>        print[P_Mayer] 1
| 13>        print[P_basis] 2
| 14> end
| 15> %pal
| 16>     nprocs 4
| 17> end
| 18> ! CPCM(chloroform)
| 19> *xyz 0 1
| 20> C   -5.0095770700   0.3309846800   0.3471688400
| 21> C   -6.4297861300  -0.0518076900   0.0037719100
| 22> C   -6.9669789800   0.7623106100  -1.1797209200
| 23> H   -7.0839694700   0.1572522800   0.8672987800
| 24> H   -6.4995994600  -1.1226700500  -0.2166485900
| 25> C   -4.7963368000   1.7849668400   0.5087910200
| 26> C   -5.3767746700   2.6292541600  -0.6030986200
| 27> C   -6.8356090100   2.2548400800  -0.8980187600
| 28> H   -4.7837203500   2.4580082600  -1.5143282300
| 29> H   -5.2931580900   3.6923791100  -0.3541564900
| 30> H   -7.2090479000   2.8271105600  -1.7553471000
| 31> H   -7.4637504000   2.5058727300  -0.0299541500
| 32> O   -8.3172388500   0.3953721000  -1.4919892200
| 33> H   -6.3899289300   0.5087080500  -2.0800187600
| 34> C   -4.0399326600  -0.6093097600   0.4419449600
| 35> C   -4.1839242700   2.3256199700   1.5682391500
| 36> H   -3.7955880500   1.7084492500   2.3736161500
| 37> H   -4.0675427400   3.4031213300   1.6570664100
| 38> C   -2.6329747900  -0.3721221700   0.6680790000
| 39> H   -4.3553840000  -1.6407808200   0.2913511600
| 40> C   -1.6794614400  -1.3130336100   0.8383472300
| 41> H   -2.3249858900   0.6707003000   0.6904788700
| 42> C   -1.9112187800  -2.8019548600   0.8827548200
| 43> C   -0.9982366600  -3.5505939700  -0.1058341300
| 44> H   -2.9561456300  -3.0661495000   0.6993088900
| 45> H   -1.6705256100  -3.1485961500   1.9005882000
| 46> C    0.4783805000  -3.1605159200   0.0421171400
| 47> H   -1.3351440100  -3.3458444900  -1.1299504700
| 48> H   -1.1094342200  -4.6308804400   0.0484938900
| 49> C    0.6809777700  -1.6419886100  -0.0591816600
| 50> H    1.0632488000  -3.6931771200  -0.7144741200
| 51> H    0.8445390500  -3.4948815000   1.0245897000
| 52> C   -0.2309127100  -0.9777873300   1.0213875200
| 53> H    0.0789560500  -1.4514644000   1.9713189400
| 54> C    0.2405089100   0.4716628200   1.0681827600
| 55> H   -8.8626459600   0.6107710000  -0.7235704400
| 56> C    1.7678979500   0.3641795600   0.8373058700
| 57> H   -0.0131409200   0.9577481800   2.0160553100
| 58> H   -0.2270306100   1.0577874000   0.2692436900
| 59> C    2.0648062800  -1.1036400400   0.4014897100
| 60> H    2.3320237900   0.6220456900   1.7393425600
| 61> H    2.0880720300   1.0643248400   0.0559852700
| 62> H    2.3436384200  -1.6825397700   1.2968595700
| 63> C    3.2635732000  -1.1895901500  -0.5744381900
| 64> C    0.3323787300  -1.1294312700  -1.4629822900
| 65> H   -0.7359212900  -1.2368306500  -1.6746157600
| 66> H    0.8850774300  -1.6874922600  -2.2265982800
| 67> H    0.5827672200  -0.0703862500  -1.5806286600
| 68> H    3.0059873100  -0.5717653200  -1.4513909500
| 69> C    3.5508348600  -2.6079454600  -1.0621906500
| 70> C    4.4589689400  -0.5307754900   0.0766810900
| 71> C    5.5958627800  -1.1322146400   0.4291153500
| 72> H    4.3308619200   0.5282211100   0.2787390500
| 73> H    5.6982524400  -2.1990855500   0.2190896800
| 74> C    6.8141119400  -0.5666881800   1.1198926100
| 75> C    7.0754866700  -1.3895770700   2.3954592100
| 76> C    6.8871735800   0.9515241300   1.4028613900
| 77> H    7.6614391100  -0.7761516800   0.4440390300
| 78> H    7.8844512700   1.0927208800   1.8487733600
| 79> C    5.8804161400   1.4683236600   2.4374925800
| 80> C    6.8687036300   1.7985175800   0.1252350900
| 81> H    7.2137158000  -2.4482952000   2.1512285600
| 82> H    6.2337673600  -1.3189986800   3.0924657900
| 83> H    7.9783209300  -1.0371278500   2.9073739100
| 84> H    6.0688837000   2.5287072100   2.6404811100
| 85> H    5.9667106300   0.9311434600   3.3871304800
| 86> H    4.8448352100   1.3772604300   2.0972304100
| 87> H    5.8851552500   1.8142035400  -0.3524188400
| 88> H    7.5884842100   1.4159458000  -0.6076113300
| 89> H    7.1409689300   2.8349156100   0.3549282100
| 90> H    4.4730881600  -2.6346289800  -1.6525228200
| 91> H    2.7422532300  -2.9747158100  -1.6973291600
| 92> H    3.6634234600  -3.3051216500  -0.2234394900
| 93> *
| 94> %eprnmr
| 95>  Nuclei = all H { shift }
| 96>  origin giao
| 97>  giao_2el giao_2el_same_as_scf
| 98>  giao_1el giao_1el_analytic
| 99> end
|100> 
|101>                          ****END OF INPUT****
================================================================================

                       ****************************
                       * Single Point Calculation *
                       ****************************

---------------------------------
CARTESIAN COORDINATES (ANGSTROEM)
---------------------------------
  C     -5.009577    0.330985    0.347169
  C     -6.429786   -0.051808    0.003772
  C     -6.966979    0.762311   -1.179721
  H     -7.083969    0.157252    0.867299
  H     -6.499599   -1.122670   -0.216649
  C     -4.796337    1.784967    0.508791
  C     -5.376775    2.629254   -0.603099
  C     -6.835609    2.254840   -0.898019
  H     -4.783720    2.458008   -1.514328
  H     -5.293158    3.692379   -0.354156
  H     -7.209048    2.827111   -1.755347
  H     -7.463750    2.505873   -0.029954
  O     -8.317239    0.395372   -1.491989
  H     -6.389929    0.508708   -2.080019
  C     -4.039933   -0.609310    0.441945
  C     -4.183924    2.325620    1.568239
  H     -3.795588    1.708449    2.373616
  H     -4.067543    3.403121    1.657066
  C     -2.632975   -0.372122    0.668079
  H     -4.355384   -1.640781    0.291351
  C     -1.679461   -1.313034    0.838347
  H     -2.324986    0.670700    0.690479
  C     -1.911219   -2.801955    0.882755
  C     -0.998237   -3.550594   -0.105834
  H     -2.956146   -3.066149    0.699309
  H     -1.670526   -3.148596    1.900588
  C      0.478380   -3.160516    0.042117
  H     -1.335144   -3.345844   -1.129950
  H     -1.109434   -4.630880    0.048494
  C      0.680978   -1.641989   -0.059182
  H      1.063249   -3.693177   -0.714474
  H      0.844539   -3.494881    1.024590
  C     -0.230913   -0.977787    1.021388
  H      0.078956   -1.451464    1.971319
  C      0.240509    0.471663    1.068183
  H     -8.862646    0.610771   -0.723570
  C      1.767898    0.364180    0.837306
  H     -0.013141    0.957748    2.016055
  H     -0.227031    1.057787    0.269244
  C      2.064806   -1.103640    0.401490
  H      2.332024    0.622046    1.739343
  H      2.088072    1.064325    0.055985
  H      2.343638   -1.682540    1.296860
  C      3.263573   -1.189590   -0.574438
  C      0.332379   -1.129431   -1.462982
  H     -0.735921   -1.236831   -1.674616
  H      0.885077   -1.687492   -2.226598
  H      0.582767   -0.070386   -1.580629
  H      3.005987   -0.571765   -1.451391
  C      3.550835   -2.607945   -1.062191
  C      4.458969   -0.530775    0.076681
  C      5.595863   -1.132215    0.429115
  H      4.330862    0.528221    0.278739
  H      5.698252   -2.199086    0.219090
  C      6.814112   -0.566688    1.119893
  C      7.075487   -1.389577    2.395459
  C      6.887174    0.951524    1.402861
  H      7.661439   -0.776152    0.444039
  H      7.884451    1.092721    1.848773
  C      5.880416    1.468324    2.437493
  C      6.868704    1.798518    0.125235
  H      7.213716   -2.448295    2.151229
  H      6.233767   -1.318999    3.092466
  H      7.978321   -1.037128    2.907374
  H      6.068884    2.528707    2.640481
  H      5.966711    0.931143    3.387130
  H      4.844835    1.377260    2.097230
  H      5.885155    1.814204   -0.352419
  H      7.588484    1.415946   -0.607611
  H      7.140969    2.834916    0.354928
  H      4.473088   -2.634629   -1.652523
  H      2.742253   -2.974716   -1.697329
  H      3.663423   -3.305122   -0.223439

----------------------------
CARTESIAN COORDINATES (A.U.)
----------------------------
  NO LB      ZA    FRAG     MASS         X           Y           Z
   0 C     6.0000    0    12.011   -9.466729    0.625470    0.656054
   1 C     6.0000    0    12.011  -12.150535   -0.097902    0.007128
   2 C     6.0000    0    12.011  -13.165682    1.440558   -2.229349
   3 H     1.0000    0     1.008  -13.386762    0.297164    1.638957
   4 H     1.0000    0     1.008  -12.282463   -2.121539   -0.409407
   5 C     6.0000    0    12.011   -9.063763    3.373098    0.961476
   6 C     6.0000    0    12.011  -10.160632    4.968570   -1.139691
   7 C     6.0000    0    12.011  -12.917429    4.261030   -1.697010
   8 H     1.0000    0     1.008   -9.039921    4.644962   -2.861666
   9 H     1.0000    0     1.008  -10.002619    6.977585   -0.669259
  10 H     1.0000    0     1.008  -13.623126    5.342465   -3.317125
  11 H     1.0000    0     1.008  -14.104444    4.735413   -0.056605
  12 O     8.0000    0    15.999  -15.717304    0.747145   -2.819451
  13 H     1.0000    0     1.008  -12.075216    0.961319   -3.930666
  14 C     6.0000    0    12.011   -7.634366   -1.151429    0.835155
  15 C     6.0000    0    12.011   -7.906471    4.394785    2.963543
  16 H     1.0000    0     1.008   -7.172622    3.228501    4.485484
  17 H     1.0000    0     1.008   -7.686542    6.430967    3.131402
  18 C     6.0000    0    12.011   -4.975601   -0.703209    1.262486
  19 H     1.0000    0     1.008   -8.230483   -3.100626    0.550574
  20 C     6.0000    0    12.011   -3.173722   -2.481274    1.584247
  21 H     1.0000    0     1.008   -4.393587    1.267440    1.304816
  22 C     6.0000    0    12.011   -3.611680   -5.294927    1.668165
  23 C     6.0000    0    12.011   -1.886394   -6.709650   -0.199998
  24 H     1.0000    0     1.008   -5.586306   -5.794183    1.321502
  25 H     1.0000    0     1.008   -3.156836   -5.949984    3.591591
  26 C     6.0000    0    12.011    0.904008   -5.972510    0.079590
  27 H     1.0000    0     1.008   -2.523057   -6.322730   -2.135297
  28 H     1.0000    0     1.008   -2.096527   -8.751096    0.091640
  29 C     6.0000    0    12.011    1.286861   -3.102909   -0.111837
  30 H     1.0000    0     1.008    2.009249   -6.979093   -1.350160
  31 H     1.0000    0     1.008    1.595948   -6.604369    1.936194
  32 C     6.0000    0    12.011   -0.436362   -1.847750    1.930143
  33 H     1.0000    0     1.008    0.149205   -2.742870    3.725253
  34 C     6.0000    0    12.011    0.454496    0.891314    2.018573
  35 H     1.0000    0     1.008  -16.747974    1.154190   -1.367350
  36 C     6.0000    0    12.011    3.340843    0.688200    1.582279
  37 H     1.0000    0     1.008   -0.024833    1.809882    3.809792
  38 H     1.0000    0     1.008   -0.429026    1.998928    0.508797
  39 C     6.0000    0    12.011    3.901918   -2.085577    0.758706
  40 H     1.0000    0     1.008    4.406886    1.175496    3.286881
  41 H     1.0000    0     1.008    3.945884    2.011282    0.105797
  42 H     1.0000    0     1.008    4.428835   -3.179539    2.450709
  43 C     6.0000    0    12.011    6.167260   -2.248000   -1.085531
  44 C     6.0000    0    12.011    0.628105   -2.134316   -2.764636
  45 H     1.0000    0     1.008   -1.390690   -2.337271   -3.164565
  46 H     1.0000    0     1.008    1.672554   -3.188898   -4.207661
  47 H     1.0000    0     1.008    1.101270   -0.133011   -2.986955
  48 H     1.0000    0     1.008    5.680493   -1.080480   -2.742731
  49 C     6.0000    0    12.011    6.710105   -4.928303   -2.007249
  50 C     6.0000    0    12.011    8.426230   -1.003020    0.144906
  51 C     6.0000    0    12.011   10.574648   -2.139576    0.810910
  52 H     1.0000    0     1.008    8.184143    0.998193    0.526740
  53 H     1.0000    0     1.008   10.768137   -4.155669    0.414019
  54 C     6.0000    0    12.011   12.876805   -1.070885    2.116290
  55 C     6.0000    0    12.011   13.370732   -2.625920    4.526762
  56 C     6.0000    0    12.011   13.014872    1.798120    2.651024
  57 H     1.0000    0     1.008   14.478022   -1.466714    0.839112
  58 H     1.0000    0     1.008   14.899454    2.064943    3.493675
  59 C     6.0000    0    12.011   11.112376    2.774730    4.606193
  60 C     6.0000    0    12.011   12.979969    3.398706    0.236660
  61 H     1.0000    0     1.008   13.631947   -4.626607    4.065233
  62 H     1.0000    0     1.008   11.780113   -2.492546    5.843913
  63 H     1.0000    0     1.008   15.076842   -1.959888    5.494140
  64 H     1.0000    0     1.008   11.468528    4.778564    4.989786
  65 H     1.0000    0     1.008   11.275449    1.759606    6.400749
  66 H     1.0000    0     1.008    9.155412    2.602645    3.963191
  67 H     1.0000    0     1.008   11.121332    3.428348   -0.665975
  68 H     1.0000    0     1.008   14.340157    2.675750   -1.148219
  69 H     1.0000    0     1.008   13.494476    5.357214    0.670717
  70 H     1.0000    0     1.008    8.452912   -4.978727   -3.122816
  71 H     1.0000    0     1.008    5.182108   -5.621398   -3.207487
  72 H     1.0000    0     1.008    6.922867   -6.245775   -0.422239

--------------------------------
INTERNAL COORDINATES (ANGSTROEM)
--------------------------------
 C      0   0   0     0.000000000000     0.00000000     0.00000000
 C      1   0   0     1.510445372786     0.00000000     0.00000000
 C      2   1   0     1.533629695574   111.73170013     0.00000000
 H      2   1   3     1.103331576908   109.36224985   241.47915909
 H      2   1   3     1.095538813521   110.69430536   122.91029783
 C      1   2   3     1.478396855860   114.18722993    50.50918337
 C      6   1   2     1.511961564056   114.41959698   312.02197303
 C      3   2   1     1.524551866873   110.29902023   304.98934217
 H      7   6   1     1.100626179444   108.36741360   290.03691304
 H      7   6   1     1.095079255512   110.21977075   172.84076782
 H      8   3   2     1.096340270815   109.70474562   179.20464044
 H      8   3   2     1.100506776141   108.65574835   296.65565997
 O      3   2   1     1.433651658472   111.23033756   180.29629640
 H      3   2   1     1.099016478199   109.01101537    65.11397959
 C      1   2   3     1.354011236534   120.88145814   232.66867851
 C      6   1   2     1.337828559286   123.37077620   129.78672865
 H     16   6   1     1.086433076410   121.40621464     0.68545199
 H     16   6   1     1.087402466176   120.93937100   181.35847873
 C     15   1   2     1.444619328699   126.46950917   175.31700619
 H     15   1   2     1.089091634402   116.14263617   357.96573997
 C     19  15   1     1.350367844959   126.37306622   175.94030038
 H     19  15   1     1.087583385601   115.87806323   355.25858446
 C     21  19  15     1.507504556343   125.68662409   357.26229441
 C     23  21  19     1.539904211477   111.72228177   127.61514929
 H     23  21  19     1.093308437217   112.37444528     3.45742231
 H     23  21  19     1.101852156807   107.71902650   246.18643508
 C     24  23  21     1.534421291756   112.64722404    51.07319366
 H     24  23  21     1.097380148307   109.04990710   288.96463896
 H     24  23  21     1.096905142832   109.16976688   172.98454372
 C     27  24  23     1.535328073054   111.84276172   305.99943429
 H     27  24  23     1.094636568473   108.89444351   182.42489319
 H     27  24  23     1.100511133964   109.20953842    65.97329128
 C     21  19  15     1.498061160034   122.83706198   177.82661925
 H     33  21  19     1.105784028539   106.26410511   124.15086091
 C     33  21  19     1.524904546398   121.02377011     1.93916155
 H     13   3   2     0.966609033279   107.53200001    62.77586092
 C     35  33  21     1.548474755696   103.55539657   196.38959328
 H     35  33  21     1.095024924150   112.14125938    74.42493635
 H     35  33  21     1.095645409617   110.74377218   314.78531638
 C     30  27  24     1.554676377594   116.12897251   166.20818475
 H     37  35  33     1.094715988037   111.65967558   249.12231149
 H     37  35  33     1.096894130987   110.47600276   130.63538175
 H     40  30  27     1.102070526730   106.50194948   320.56417861
 C     40  30  27     1.548181131487   118.89489747    80.92765700
 C     30  27  24     1.534565908088   111.14524673   294.29007251
 H     45  30  27     1.094343769197   111.46223827    66.57204773
 H     45  30  27     1.095453012103   110.66535558   306.46068285
 H     45  30  27     1.094582760090   111.68608895   186.59392442
 H     44  40  30     1.103224435264   106.81020878    62.33038073
 C     44  40  30     1.527138994639   113.48734949   303.34673163
 C     44  40  30     1.512271155656   108.44928491   176.67753387
 C     51  44  40     1.333591602480   126.24129487   115.67277685
 H     51  44  40     1.085685325766   114.31771524   297.05267290
 H     52  51  44     1.092157480924   118.01168557     1.16530018
 C     52  51  44     1.510339172416   129.76485018   182.23715769
 C     55  52  51     1.540302900667   108.39654687   123.50080908
 C     55  52  51     1.546084716932   119.30849534   354.60876653
 H     55  52  51     1.103909576211   105.54898901   236.69124672
 H     57  55  52     1.101515682218   104.04878075   183.20194758
 C     57  55  52     1.533331013358   115.05175399    67.51880921
 C     57  55  52     1.532993152577   112.91996923   297.80597985
 H     56  55  52     1.095280777504   110.68075160    57.76042124
 H     56  55  52     1.095121398990   111.23646994   298.28063756
 H     56  55  52     1.096077923226   110.77853044   177.68027013
 H     60  57  55     1.095964250144   109.76528592   174.71138415
 H     60  57  55     1.094450294620   111.60965760    55.63787260
 H     60  57  55     1.093845838668   112.56007053   294.42026784
 H     61  57  55     1.093511198839   112.50760975    72.38859749
 H     61  57  55     1.096133716982   110.88261073   311.73721200
 H     61  57  55     1.095905196423   110.17185530   192.37835367
 H     50  44  40     1.095333387849   110.67964305   186.63890230
 H     50  44  40     1.091661883963   111.01046897    67.25608183
 H     50  44  40     1.096464473275   111.44093697   306.94370829

---------------------------
INTERNAL COORDINATES (A.U.)
---------------------------
 C      0   0   0     0.000000000000     0.00000000     0.00000000
 C      1   0   0     2.854328094814     0.00000000     0.00000000
 C      2   1   0     2.898140115485   111.73170013     0.00000000
 H      2   1   3     2.084994515263   109.36224985   241.47915909
 H      2   1   3     2.070268326635   110.69430536   122.91029783
 C      1   2   3     2.793765174825   114.18722993    50.50918337
 C      6   1   2     2.857193281081   114.41959698   312.02197303
 C      3   2   1     2.880985505348   110.29902023   304.98934217
 H      7   6   1     2.079882054974   108.36741360   290.03691304
 H      7   6   1     2.069399887856   110.21977075   172.84076782
 H      8   3   2     2.071782861430   109.70474562   179.20464044
 H      8   3   2     2.079656415431   108.65574835   296.65565997
 O      3   2   1     2.709209005953   111.23033756   180.29629640
 H      3   2   1     2.076840160462   109.01101537    65.11397959
 C      1   2   3     2.558710419302   120.88145814   232.66867851
 C      6   1   2     2.528129591188   123.37077620   129.78672865
 H     16   6   1     2.053060977249   121.40621464     0.68545199
 H     16   6   1     2.054892858424   120.93937100   181.35847873
 C     15   1   2     2.729934899011   126.46950917   175.31700619
 H     15   1   2     2.058084923764   116.14263617   357.96573997
 C     19  15   1     2.551825407025   126.37306622   175.94030038
 H     19  15   1     2.055234746589   115.87806323   355.25858446
 C     21  19  15     2.848770757127   125.68662409   357.26229441
 C     23  21  19     2.909997232163   111.72228177   127.61514929
 H     23  21  19     2.066053526245   112.37444528     3.45742231
 H     23  21  19     2.082198816435   107.71902650   246.18643508
 C     24  23  21     2.899636015476   112.64722404    51.07319366
 H     24  23  21     2.073747945103   109.04990710   288.96463896
 H     24  23  21     2.072850314843   109.16976688   172.98454372
 C     27  24  23     2.901349583794   111.84276172   305.99943429
 H     27  24  23     2.068563330590   108.89444351   182.42489319
 H     27  24  23     2.079664650524   109.20953842    65.97329128
 C     21  19  15     2.830925324328   122.83706198   177.82661925
 H     33  21  19     2.089628977202   106.26410511   124.15086091
 C     33  21  19     2.881651973064   121.02377011     1.93916155
 H     13   3   2     1.826626351472   107.53200001    62.77586092
 C     35  33  21     2.926193213556   103.55539657   196.38959328
 H     35  33  21     2.069297216461   112.14125938    74.42493635
 H     35  33  21     2.070469764064   110.74377218   314.78531638
 C     30  27  24     2.937912580529   116.12897251   166.20818475
 H     37  35  33     2.068713411814   111.65967558   249.12231149
 H     37  35  33     2.072829505472   110.47600276   130.63538175
 H     40  30  27     2.082611475786   106.50194948   320.56417861
 C     40  30  27     2.925638344216   118.89489747    80.92765700
 C     30  27  24     2.899909300738   111.14524673   294.29007251
 H     45  30  27     2.068010020146   111.46223827    66.57204773
 H     45  30  27     2.070106185453   110.66535558   306.46068285
 H     45  30  27     2.068461647481   111.68608895   186.59392442
 H     44  40  30     2.084792046899   106.81020878    62.33038073
 C     44  40  30     2.885874468300   113.48734949   303.34673163
 C     44  40  30     2.857778324418   108.44928491   176.67753387
 C     51  44  40     2.520122903184   126.24129487   115.67277685
 H     51  44  40     2.051647933315   114.31771524   297.05267290
 H     52  51  44     2.063878534060   118.01168557     1.16530018
 C     52  51  44     2.854127405199   129.76485018   182.23715769
 C     55  52  51     2.910750645545   108.39654687   123.50080908
 C     55  52  51     2.921676694842   119.30849534   354.60876653
 H     55  52  51     2.086086775653   105.54898901   236.69124672
 H     57  55  52     2.081562971611   104.04878075   183.20194758
 C     57  55  52     2.897575687894   115.05175399    67.51880921
 C     57  55  52     2.896937223547   112.91996923   297.80597985
 H     56  55  52     2.069780709232   110.68075160    57.76042124
 H     56  55  52     2.069479527487   111.23646994   298.28063756
 H     56  55  52     2.071287096335   110.77853044   177.68027013
 H     60  57  55     2.071072285341   109.76528592   174.71138415
 H     60  57  55     2.068211324020   111.60965760    55.63787260
 H     60  57  55     2.067069067812   112.56007053   294.42026784
 H     61  57  55     2.066436690182   112.50760975    72.38859749
 H     61  57  55     2.071392531253   110.88261073   311.73721200
 H     61  57  55     2.070960689981   110.17185530   192.37835367
 H     50  44  40     2.069880128375   110.67964305   186.63890230
 H     50  44  40     2.062941991531   111.01046897    67.25608183
 H     50  44  40     2.072017570064   111.44093697   306.94370829

---------------------
BASIS SET INFORMATION
---------------------
There are 3 groups of distinct atoms

 Group   1 Type C   : 8s5p1d contracted to 3s3p1d pattern {521/311/1}
 Group   2 Type H   : 4s2p contracted to 2s1p pattern {31/2}
 Group   3 Type O   : 8s5p1d contracted to 3s3p1d pattern {521/311/1}

Atom   0C    basis set group =>   1
Atom   1C    basis set group =>   1
Atom   2C    basis set group =>   1
Atom   3H    basis set group =>   2
Atom   4H    basis set group =>   2
Atom   5C    basis set group =>   1
Atom   6C    basis set group =>   1
Atom   7C    basis set group =>   1
Atom   8H    basis set group =>   2
Atom   9H    basis set group =>   2
Atom  10H    basis set group =>   2
Atom  11H    basis set group =>   2
Atom  12O    basis set group =>   3
Atom  13H    basis set group =>   2
Atom  14C    basis set group =>   1
Atom  15C    basis set group =>   1
Atom  16H    basis set group =>   2
Atom  17H    basis set group =>   2
Atom  18C    basis set group =>   1
Atom  19H    basis set group =>   2
Atom  20C    basis set group =>   1
Atom  21H    basis set group =>   2
Atom  22C    basis set group =>   1
Atom  23C    basis set group =>   1
Atom  24H    basis set group =>   2
Atom  25H    basis set group =>   2
Atom  26C    basis set group =>   1
Atom  27H    basis set group =>   2
Atom  28H    basis set group =>   2
Atom  29C    basis set group =>   1
Atom  30H    basis set group =>   2
Atom  31H    basis set group =>   2
Atom  32C    basis set group =>   1
Atom  33H    basis set group =>   2
Atom  34C    basis set group =>   1
Atom  35H    basis set group =>   2
Atom  36C    basis set group =>   1
Atom  37H    basis set group =>   2
Atom  38H    basis set group =>   2
Atom  39C    basis set group =>   1
Atom  40H    basis set group =>   2
Atom  41H    basis set group =>   2
Atom  42H    basis set group =>   2
Atom  43C    basis set group =>   1
Atom  44C    basis set group =>   1
Atom  45H    basis set group =>   2
Atom  46H    basis set group =>   2
Atom  47H    basis set group =>   2
Atom  48H    basis set group =>   2
Atom  49C    basis set group =>   1
Atom  50C    basis set group =>   1
Atom  51C    basis set group =>   1
Atom  52H    basis set group =>   2
Atom  53H    basis set group =>   2
Atom  54C    basis set group =>   1
Atom  55C    basis set group =>   1
Atom  56C    basis set group =>   1
Atom  57H    basis set group =>   2
Atom  58H    basis set group =>   2
Atom  59C    basis set group =>   1
Atom  60C    basis set group =>   1
Atom  61H    basis set group =>   2
Atom  62H    basis set group =>   2
Atom  63H    basis set group =>   2
Atom  64H    basis set group =>   2
Atom  65H    basis set group =>   2
Atom  66H    basis set group =>   2
Atom  67H    basis set group =>   2
Atom  68H    basis set group =>   2
Atom  69H    basis set group =>   2
Atom  70H    basis set group =>   2
Atom  71H    basis set group =>   2
Atom  72H    basis set group =>   2

-------------------------
BASIS SET IN INPUT FORMAT
-------------------------

 # Basis set for element : H 
 NewGTO H 
 S 3 
   1      12.2518000000      0.0372173893
   2       1.8687100000      0.2538082070
   3       0.4182080000      0.7973867639
 S 1 
   1       0.1061000000      1.0000000000
 P 2 
   1       9.0000000000      0.0402678705
   2       1.0000000000      0.9880231245
  end;

 # Basis set for element : C 
 NewGTO C 
 S 5 
   1    1243.2000000000      0.0056300977
   2     187.1450000000      0.0419506039
   3      42.5126000000      0.1846643605
   4      11.7393000000      0.4665574214
   5       3.5054800000      0.4482347783
 S 2 
   1       5.3908900000     -0.1481148174
   2       0.4933410000      1.0519817143
 S 1 
   1       0.1497410000      1.0000000000
 P 3 
   1      59.6736000000      0.0113906672
   2       9.1805600000      0.1672414929
   3       1.9365800000      0.9041087436
 P 1 
   1       0.5262960000      1.0000000000
 P 1 
   1       0.1363190000      1.0000000000
 D 1 
   1       0.8000000000      1.0000000000
  end;

 # Basis set for element : O 
 NewGTO O 
 S 5 
   1    2288.6400000000      0.0054511382
   2     344.4160000000      0.0407189228
   3      78.2538000000      0.1813694209
   4      21.7195000000      0.4655368202
   5       6.5590700000      0.4512113212
 S 2 
   1      10.4656000000     -0.1502112012
   2       0.9643510000      1.0528679834
 S 1 
   1       0.2851270000      1.0000000000
 P 3 
   1     110.8840000000      0.0113058003
   2      17.0590000000      0.1699226452
   3       3.6899900000      0.9008060328
 P 1 
   1       0.9929960000      1.0000000000
 P 1 
   1       0.2449240000      1.0000000000
 D 1 
   1       1.0000000000      1.0000000000
  end;

---------------------------------
AUXILIARY/J BASIS SET INFORMATION
---------------------------------
There are 3 groups of distinct atoms

 Group   1 Type C   : 12s5p4d2f1g contracted to 6s4p3d1f1g pattern {711111/2111/211/2/1}
 Group   2 Type H   : 5s2p1d contracted to 3s1p1d pattern {311/2/1}
 Group   3 Type O   : 12s5p4d2f1g contracted to 6s4p3d1f1g pattern {711111/2111/211/2/1}

Atom   0C    basis set group =>   1
Atom   1C    basis set group =>   1
Atom   2C    basis set group =>   1
Atom   3H    basis set group =>   2
Atom   4H    basis set group =>   2
Atom   5C    basis set group =>   1
Atom   6C    basis set group =>   1
Atom   7C    basis set group =>   1
Atom   8H    basis set group =>   2
Atom   9H    basis set group =>   2
Atom  10H    basis set group =>   2
Atom  11H    basis set group =>   2
Atom  12O    basis set group =>   3
Atom  13H    basis set group =>   2
Atom  14C    basis set group =>   1
Atom  15C    basis set group =>   1
Atom  16H    basis set group =>   2
Atom  17H    basis set group =>   2
Atom  18C    basis set group =>   1
Atom  19H    basis set group =>   2
Atom  20C    basis set group =>   1
Atom  21H    basis set group =>   2
Atom  22C    basis set group =>   1
Atom  23C    basis set group =>   1
Atom  24H    basis set group =>   2
Atom  25H    basis set group =>   2
Atom  26C    basis set group =>   1
Atom  27H    basis set group =>   2
Atom  28H    basis set group =>   2
Atom  29C    basis set group =>   1
Atom  30H    basis set group =>   2
Atom  31H    basis set group =>   2
Atom  32C    basis set group =>   1
Atom  33H    basis set group =>   2
Atom  34C    basis set group =>   1
Atom  35H    basis set group =>   2
Atom  36C    basis set group =>   1
Atom  37H    basis set group =>   2
Atom  38H    basis set group =>   2
Atom  39C    basis set group =>   1
Atom  40H    basis set group =>   2
Atom  41H    basis set group =>   2
Atom  42H    basis set group =>   2
Atom  43C    basis set group =>   1
Atom  44C    basis set group =>   1
Atom  45H    basis set group =>   2
Atom  46H    basis set group =>   2
Atom  47H    basis set group =>   2
Atom  48H    basis set group =>   2
Atom  49C    basis set group =>   1
Atom  50C    basis set group =>   1
Atom  51C    basis set group =>   1
Atom  52H    basis set group =>   2
Atom  53H    basis set group =>   2
Atom  54C    basis set group =>   1
Atom  55C    basis set group =>   1
Atom  56C    basis set group =>   1
Atom  57H    basis set group =>   2
Atom  58H    basis set group =>   2
Atom  59C    basis set group =>   1
Atom  60C    basis set group =>   1
Atom  61H    basis set group =>   2
Atom  62H    basis set group =>   2
Atom  63H    basis set group =>   2
Atom  64H    basis set group =>   2
Atom  65H    basis set group =>   2
Atom  66H    basis set group =>   2
Atom  67H    basis set group =>   2
Atom  68H    basis set group =>   2
Atom  69H    basis set group =>   2
Atom  70H    basis set group =>   2
Atom  71H    basis set group =>   2
Atom  72H    basis set group =>   2

-------------------------------------
AUXILIARY/J BASIS SET IN INPUT FORMAT
-------------------------------------

 # Auxiliary/J basis set for element : H 
 NewAuxJGTO H 
 S 3 
   1      15.6752927000      0.1007184237
   2       3.6063578000      0.3404257499
   3       1.2080016000      0.6491996172
 S 1 
   1       0.4726794000      1.0000000000
 S 1 
   1       0.2018100000      1.0000000000
 P 2 
   1       2.0281365000      0.5596620919
   2       0.5358730000      0.5596620919
 D 1 
   1       2.2165124000      1.0000000000
  end;

 # Auxiliary/J basis set for element : C 
 NewAuxJGTO C 
 S 7 
   1    1861.0916331000      0.0134602335
   2     642.9939764000      0.0299160374
   3     235.1105725000      0.1008649584
   4      90.7028894000      0.2370970548
   5      36.7794552000      0.3924037254
   6      15.6046273000      0.3195862154
   7       6.8907294000      0.0530104441
 S 1 
   1       3.1478850000     -1.0000000000
 S 1 
   1       1.4777287000      1.0000000000
 S 1 
   1       0.7076466000      1.0000000000
 S 1 
   1       0.3430122000      1.0000000000
 S 1 
   1       0.1669453000      1.0000000000
 P 2 
   1      13.5472892000     -0.6769313712
   2       5.4669419000     -0.3779500978
 P 1 
   1       2.1751721000      1.0000000000
 P 1 
   1       0.8582194000      1.0000000000
 P 1 
   1       0.3376720000      1.0000000000
 D 2 
   1       5.9287253000     -0.3533329857
   2       1.9809209000     -0.7456525731
 D 1 
   1       0.8055417000     -1.0000000000
 D 1 
   1       0.3531244000     -1.0000000000
 F 2 
   1       1.6755626000      0.6311076882
   2       0.5997536000      0.4968166032
 G 1 
   1       1.0024600000     -1.0000000000
  end;

 # Auxiliary/J basis set for element : O 
 NewAuxJGTO O 
 S 7 
   1    2876.8216605000      0.0168151159
   2    1004.7443032000      0.0340137548
   3     369.7579954000      0.1194951309
   4     142.9442404000      0.2664627624
   5      57.8366425000      0.4202764046
   6      24.3864983000      0.2765077335
   7      10.6622662000      0.0057008815
 S 1 
   1       4.8070437000     -1.0000000000
 S 1 
   1       2.2210770000      1.0000000000
 S 1 
   1       1.0447795000      1.0000000000
 S 1 
   1       0.4968425000      1.0000000000
 S 1 
   1       0.2371384000      1.0000000000
 P 2 
   1      64.2613382000     -0.2731534179
   2      16.3006076000     -0.8168011598
 P 1 
   1       4.3550542000      1.0000000000
 P 1 
   1       1.2019554000      1.0000000000
 P 1 
   1       0.3354196000      1.0000000000
 D 2 
   1       9.2146611000     -0.4661230638
   2       2.8435251000     -0.6600908911
 D 1 
   1       0.9955759000     -1.0000000000
 D 1 
   1       0.3649441000     -1.0000000000
 F 2 
   1       2.6420115000      0.5931563945
   2       0.7345613000      0.5931563945
 G 1 
   1       1.3931000000     -1.0000000000
  end;



           ************************************************************
           *        Program running with 4 parallel MPI-processes     *
           *              working on a common directory               *
           ************************************************************
------------------------------------------------------------------------------
                           ORCA GTO INTEGRAL CALCULATION
                           -- RI-GTO INTEGRALS CHOSEN --
------------------------------------------------------------------------------
------------------------------------------------------------------------------
                   ___                                                        
                  /   \      - P O W E R E D   B Y -                         
                 /     \                                                     
                 |  |  |   _    _      __       _____    __    __             
                 |  |  |  | |  | |    /  \     |  _  \  |  |  /  |          
                  \  \/   | |  | |   /    \    | | | |  |  | /  /          
                 / \  \   | |__| |  /  /\  \   | |_| |  |  |/  /          
                |  |  |   |  __  | /  /__\  \  |    /   |      \           
                |  |  |   | |  | | |   __   |  |    \   |  |\   \          
                \     /   | |  | | |  |  |  |  | |\  \  |  | \   \       
                 \___/    |_|  |_| |__|  |__|  |_| \__\ |__|  \__/        
                                                                              
                      - O R C A' S   B I G   F R I E N D -                    
                                      &                                       
                       - I N T E G R A L  F E E D E R -                       
                                                                              
 v1 FN, 2020, v2 2021                                                         
------------------------------------------------------------------------------


Reading SHARK input file inpS.SHARKINP.tmp ... ok
----------------------
SHARK INTEGRAL PACKAGE
----------------------

Number of atoms                             ...     73
Number of basis functions                   ...    713
Number of shells                            ...    335
Maximum angular momentum                    ...      2
Integral batch strategy                     ... SHARK/LIBINT Hybrid
RI-J (if used) integral strategy            ... SPLIT-RIJ (Revised 2003 algorithm where possible)
Printlevel                                  ...      1
Contraction scheme used                     ... SEGMENTED contraction
Coulomb Range Separation                    ... NOT USED
Exchange Range Separation                   ... NOT USED
Finite Nucleus Model                        ... NOT USED
Auxiliary Coulomb fitting basis             ... AVAILABLE
   # of basis functions in Aux-J            ...   1905
   # of shells in Aux-J                     ...    655
   Maximum angular momentum in Aux-J        ...      4
Auxiliary J/K fitting basis                 ... NOT available
Auxiliary Correlation fitting basis         ... NOT available
Auxiliary 'external' fitting basis          ... NOT available
Integral threshold                          ...     3.000000e-11
Primitive cut-off                           ...     1.000000e-12
Primitive pair pre-selection threshold      ...     1.000000e-12

Calculating pre-screening integrals         ... done (  0.0 sec) Dimension = 335
Organizing shell pair data                  ... done (  0.2 sec)
Shell pair information
Total number of shell pairs                 ...     56280
Shell pairs after pre-screening             ...     31792
Total number of primitive shell pairs       ...    225367
Primitive shell pairs kept                  ...     74849
          la=0 lb=0:   9735 shell pairs
          la=1 lb=0:  13074 shell pairs
          la=1 lb=1:   4262 shell pairs
          la=2 lb=0:   2777 shell pairs
          la=2 lb=1:   1749 shell pairs
          la=2 lb=2:    195 shell pairs

Calculating one electron integrals          ... done (  0.1 sec)
Calculating RI/J V-Matrix + Cholesky decomp.... done (  0.1 sec)
Calculating Nuclear repulsion               ... done (  0.0 sec) ENN=   2778.499358712256 Eh

SHARK setup successfully completed in   0.6 seconds

Maximum memory used throughout the entire GTOINT-calculation: 61.3 MB


           ************************************************************
           *        Program running with 4 parallel MPI-processes     *
           *              working on a common directory               *
           ************************************************************
-------------------------------------------------------------------------------
                                 ORCA SCF
-------------------------------------------------------------------------------

------------
SCF SETTINGS
------------
Hamiltonian:
 Density Functional     Method          .... DFT(GTOs)
 Exchange Functional    Exchange        .... revTPSS
 Correlation Functional Correlation     .... revTPSS
 LDA part of GGA corr.  LDAOpt          .... PW91-LDA
 Gradients option       PostSCFGGA      .... off
   Density functional embedding theory  .... OFF
 RI-approximation to the Coulomb term is turned on
   Number of AuxJ basis functions       .... 1905


General Settings:
 Integral files         IntName         .... inpS
 Hartree-Fock type      HFTyp           .... RHF
 Total Charge           Charge          ....    0
 Multiplicity           Mult            ....    1
 Number of Electrons    NEL             ....  220
 Basis Dimension        Dim             ....  713
 Nuclear Repulsion      ENuc            ....   2778.4993587123 Eh

Convergence Acceleration:
 DIIS                   CNVDIIS         .... on
   Start iteration      DIISMaxIt       ....    12
   Startup error        DIISStart       ....  0.200000
   # of expansion vecs  DIISMaxEq       ....     5
   Bias factor          DIISBfac        ....   1.050
   Max. coefficient     DIISMaxC        ....  10.000
 Trust-Rad. Augm. Hess. CNVTRAH         .... auto
   Auto Start mean grad. ratio tolernc. ....  1.125000
   Auto Start start iteration           ....    20
   Auto Start num. interpolation iter.  ....    10
   Max. Number of Micro iterations      ....    16
   Max. Number of Macro iterations      .... Maxiter - #DIIS iter
   Number of Davidson start vectors     ....     2
   Converg. threshold I  (grad. norm)   ....   1.000e-04
   Converg. threshold II (energy diff.) ....   1.000e-07
   Grad. Scal. Fac. for Micro threshold ....   0.100
   Minimum threshold for Micro iter.    ....   0.010
   NR start threshold (gradient norm)   ....   0.001
   Initial trust radius                 ....   0.400
   Minimum AH scaling param. (alpha)    ....   1.000
   Maximum AH scaling param. (alpha)    .... 1000.000
   Orbital update algorithm             .... Taylor
   White noise on init. David. guess    .... on
   Maximum white noise                  ....   0.010
   Quad. conv. algorithm                .... NR
 SOSCF                  CNVSOSCF        .... off
 Level Shifting         CNVShift        .... on
   Level shift para.    LevelShift      ....    0.2500
   Turn off err/grad.   ShiftErr        ....    0.0010
 Zerner damping         CNVZerner       .... off
 Static damping         CNVDamp         .... on
   Fraction old density DampFac         ....    0.7000
   Max. Damping (<1)    DampMax         ....    0.9800
   Min. Damping (>=0)   DampMin         ....    0.0000
   Turn off err/grad.   DampErr         ....    0.1000
 Fernandez-Rico         CNVRico         .... off

SCF Procedure:
 Maximum # iterations   MaxIter         ....   125
 SCF integral mode      SCFMode         .... Direct
   Integral package                     .... SHARK and LIBINT hybrid scheme
 Reset frequency        DirectResetFreq ....    20
 Integral Threshold     Thresh          ....  3.000e-11 Eh
 Primitive CutOff       TCut            ....  1.000e-12 Eh

Convergence Tolerance:
 Convergence Check Mode ConvCheckMode   .... Total+1el-Energy
 Convergence forced     ConvForced      .... 0
 Energy Change          TolE            ....  1.000e-07 Eh
 1-El. energy change                    ....  1.000e-04 Eh
 DIIS Error             TolErr          ....  1.000e-07


Diagonalization of the overlap matrix:
Smallest eigenvalue                        ... 5.068e-04
Time for diagonalization                   ...    0.061 sec
Threshold for overlap eigenvalues          ... 1.000e-08
Number of eigenvalues below threshold      ... 0
Time for construction of square roots      ...    0.072 sec
Total time needed                          ...    0.135 sec

Time for model grid setup =    0.780 sec

------------------------------
INITIAL GUESS: MODEL POTENTIAL
------------------------------
Loading Hartree-Fock densities                     ... done
Calculating cut-offs                               ... done
Initializing the effective Hamiltonian             ... done
Setting up the integral package (SHARK)            ... done
Starting the Coulomb interaction                   ... done (   0.7 sec)
Reading the grid                                   ... done
Mapping shells                                     ... done
Starting the XC term evaluation                    ... done (   0.4 sec)
  promolecular density results
     # of electrons  =    219.979327268
     EX              =   -164.434498087
     EC              =     -7.327465764
     EX+EC           =   -171.761963850
Transforming the Hamiltonian                       ... done (   0.0 sec)
Diagonalizing the Hamiltonian                      ... done (   0.1 sec)
Back transforming the eigenvectors                 ... done (   0.0 sec)
Now organizing SCF variables                       ... done
                      ------------------
                      INITIAL GUESS DONE (   2.0 sec)
                      ------------------
-------------------
DFT GRID GENERATION
-------------------

General Integration Accuracy     IntAcc      ... 4.388
Radial Grid Type                 RadialGrid  ... OptM3 with GC (2021)
Angular Grid (max. ang.)         AngularGrid ... 4 (Lebedev-302)
Angular grid pruning method      GridPruning ... 4 (adaptive)
Weight generation scheme         WeightScheme... Becke
Basis function cutoff            BFCut       ... 1.0000e-11
Integration weight cutoff        WCut        ... 1.0000e-14
Angular grids for H and He will be reduced by one unit
Partially contracted basis set               ... off
Rotationally invariant grid construction     ... off

Total number of grid points                  ...   309805
Total number of batches                      ...     4876
Average number of points per batch           ...       63
Average number of grid points per atom       ...     4244
Time for grid setup =    2.946 sec


--------------------
CPCM SOLVATION MODEL
--------------------
CPCM parameters:
  Epsilon                                         ...       4.9000
  Refrac                                          ...       1.4500
  Rsolv                                           ...       1.3000
  Surface type                                    ... GAUSSIAN VDW
  Epsilon function type                           ...         CPCM
Radii:
 Radius for C  used is    3.8550 Bohr (=   2.0400 Ang.)
 Radius for H  used is    2.4944 Bohr (=   1.3200 Ang.)
 Radius for O  used is    3.4469 Bohr (=   1.8240 Ang.)
Calculating surface                               ...        done! (  0.0s)
GEPOL surface points                              ...         3606
GEPOL Volume                                      ...    3577.4859
GEPOL Surface-area                                ...    1768.3293
Calculating surface distance matrix               ...        done! (  0.1s)
Performing Cholesky decomposition & store         ...        done! (  0.4s)
Overall time for CPCM initialization              ...                 0.5s
--------------
SCF ITERATIONS
--------------
ITER       Energy         Delta-E        Max-DP      RMS-DP      [F,P]     Damp
               ***  Starting incremental Fock matrix formation  ***

  HOMO= 109 E= -1.860 eV LUMO=  7.832 eV gap=   9.692 eV
  0  -1167.5207095097   0.000000000000 0.05354986  0.00082950  0.2614545 0.7000

  HOMO= 109 E= -3.348 eV LUMO=  6.717 eV gap=  10.064 eV
  1  -1167.8925914768  -0.371881967136 0.02886475  0.00061289  0.1019642 0.7000
                               ***Turning on DIIS***

  HOMO= 109 E= -4.326 eV LUMO=  5.824 eV gap=  10.150 eV
  2  -1168.0386227229  -0.146031246070 0.05168525  0.00101109  0.0310093 0.0000

  HOMO= 109 E= -4.955 eV LUMO=  5.231 eV gap=  10.186 eV
  3  -1168.2352735386  -0.196650815751 0.02311504  0.00047382  0.0545002 0.0000

  HOMO= 109 E= -4.990 eV LUMO=  5.196 eV gap=  10.186 eV
  4  -1168.3021518658  -0.066878327208 0.00753688  0.00015137  0.0104362 0.0000

  HOMO= 109 E= -4.941 eV LUMO=  5.253 eV gap=  10.193 eV
  5  -1168.3051823042  -0.003030438359 0.00311868  0.00005663  0.0092835 0.0000

  HOMO= 109 E= -4.922 eV LUMO=  5.269 eV gap=  10.190 eV
  6  -1168.3054460436  -0.000263739409 0.00123757  0.00001914  0.0029250 0.0000

  HOMO= 109 E= -4.923 eV LUMO= -1.536 eV gap=   3.387 eV
  7  -1168.3054664125  -0.000020368846 0.00074416  0.00001166  0.0005205 0.0000

  HOMO= 109 E= -4.922 eV LUMO= -1.534 eV gap=   3.387 eV
  8  -1168.3054692545  -0.000002842067 0.00027992  0.00000298  0.0003830 0.0000

  HOMO= 109 E= -4.920 eV LUMO= -1.532 eV gap=   3.388 eV
  9  -1168.3054699199  -0.000000665373 0.00017482  0.00000157  0.0002808 0.0000

  HOMO= 109 E= -4.920 eV LUMO= -1.533 eV gap=   3.387 eV
 10  -1168.3054702020  -0.000000282113 0.00005899  0.00000069  0.0001071 0.0000

  HOMO= 109 E= -4.920 eV LUMO= -1.533 eV gap=   3.387 eV
 11  -1168.3054702385  -0.000000036451 0.00002492  0.00000026  0.0000307 0.0000

  HOMO= 109 E= -4.920 eV LUMO= -1.533 eV gap=   3.387 eV
 12  -1168.3054702124   0.000000026041 0.00000964  0.00000011  0.0000152 0.0000

  HOMO= 109 E= -4.920 eV LUMO= -1.533 eV gap=   3.387 eV
 13  -1168.3054702463  -0.000000033887 0.00000504  0.00000005  0.0000088 0.0000
                 **** Energy Check signals convergence ****

               *****************************************************
               *                     SUCCESS                       *
               *           SCF CONVERGED AFTER  14 CYCLES          *
               *****************************************************


----------------
TOTAL SCF ENERGY
----------------

Total Energy       :        -1168.30547026 Eh          -31791.20808 eV

Components:
Nuclear Repulsion  :         2778.49935871 Eh           75606.81133 eV
Electronic Energy  :        -3946.80482897 Eh         -107398.01941 eV
One Electron Energy:        -7103.35806224 Eh         -193292.19966 eV
Two Electron Energy:         3156.55323327 Eh           85894.18025 eV
CPCM Dielectric    :           -0.01060756 Eh              -0.28865 eV

Virial components:
Potential Energy   :        -2330.40653158 Eh          -63413.58561 eV
Kinetic Energy     :         1162.10106133 Eh           31622.37753 eV
Virial Ratio       :            2.00533896


DFT components:
N(Alpha)           :      110.000223646636 electrons
N(Beta)            :      110.000223646636 electrons
N(Total)           :      220.000447293272 electrons
E(X)               :     -169.585201562953 Eh       
E(C)               :       -7.443202833841 Eh       
E(XC)              :     -177.028404396794 Eh       
DFET-embed. en.    :        0.000000000000 Eh       
CPCM Solvation Model Properties:
Surface-charge          :           -0.04511593
Charge-correction       :           -0.00003059 Eh              -0.00083 eV
Free-energy (cav+disp)  :  This term is not implemented in the current solvation scheme

---------------
SCF CONVERGENCE
---------------

  Last Energy change         ...   -1.0226e-08  Tolerance :   1.0000e-07
  Last MAX-Density change    ...    2.9314e-06  Tolerance :   1.0000e-05
  Last RMS-Density change    ...    2.5665e-08  Tolerance :   1.0000e-06
  Last DIIS Error            ...    3.1428e-06  Tolerance :   1.0000e-07

             **** THE GBW FILE WAS UPDATED (inpS.gbw) ****
             **** DENSITY inpS.scfp WAS UPDATED ****
             **** ENERGY FILE WAS UPDATED (inpS.en.tmp) ****
             **** THE GBW FILE WAS UPDATED (inpS.gbw) ****
             **** DENSITY inpS.scfp WAS UPDATED ****
----------------
ORBITAL ENERGIES
----------------

  NO   OCC          E(Eh)            E(eV) 
   0   2.0000     -18.905700      -514.4503 
   1   2.0000     -10.057161      -273.6693 
   2   2.0000     -10.015941      -272.5476 
   3   2.0000     -10.013515      -272.4816 
   4   2.0000     -10.013425      -272.4792 
   5   2.0000     -10.011751      -272.4336 
   6   2.0000     -10.011549      -272.4281 
   7   2.0000     -10.011511      -272.4271 
   8   2.0000     -10.010303      -272.3942 
   9   2.0000     -10.008518      -272.3456 
  10   2.0000     -10.007908      -272.3290 
  11   2.0000     -10.007787      -272.3257 
  12   2.0000     -10.006908      -272.3018 
  13   2.0000     -10.006714      -272.2965 
  14   2.0000     -10.006627      -272.2942 
  15   2.0000     -10.005930      -272.2752 
  16   2.0000     -10.004151      -272.2268 
  17   2.0000     -10.001054      -272.1425 
  18   2.0000     -10.000600      -272.1302 
  19   2.0000     -10.000211      -272.1196 
  20   2.0000      -9.999789      -272.1081 
  21   2.0000      -9.998606      -272.0759 
  22   2.0000      -9.998284      -272.0671 
  23   2.0000      -9.997556      -272.0473 
  24   2.0000      -9.995848      -272.0009 
  25   2.0000      -9.995691      -271.9966 
  26   2.0000      -9.995190      -271.9830 
  27   2.0000      -9.994367      -271.9605 
  28   2.0000      -9.994290      -271.9585 
  29   2.0000      -0.955948       -26.0127 
  30   2.0000      -0.807535       -21.9741 
  31   2.0000      -0.791159       -21.5285 
  32   2.0000      -0.769225       -20.9317 
  33   2.0000      -0.756125       -20.5752 
  34   2.0000      -0.733839       -19.9688 
  35   2.0000      -0.727800       -19.8044 
  36   2.0000      -0.708404       -19.2767 
  37   2.0000      -0.708059       -19.2673 
  38   2.0000      -0.692781       -18.8515 
  39   2.0000      -0.676041       -18.3960 
  40   2.0000      -0.660066       -17.9613 
  41   2.0000      -0.653440       -17.7810 
  42   2.0000      -0.635895       -17.3036 
  43   2.0000      -0.629441       -17.1280 
  44   2.0000      -0.623438       -16.9646 
  45   2.0000      -0.616532       -16.7767 
  46   2.0000      -0.590631       -16.0719 
  47   2.0000      -0.585642       -15.9361 
  48   2.0000      -0.562724       -15.3125 
  49   2.0000      -0.549215       -14.9449 
  50   2.0000      -0.547715       -14.9041 
  51   2.0000      -0.539111       -14.6700 
  52   2.0000      -0.527435       -14.3522 
  53   2.0000      -0.513204       -13.9650 
  54   2.0000      -0.488420       -13.2906 
  55   2.0000      -0.475574       -12.9410 
  56   2.0000      -0.472235       -12.8502 
  57   2.0000      -0.464183       -12.6311 
  58   2.0000      -0.451345       -12.2817 
  59   2.0000      -0.444529       -12.0962 
  60   2.0000      -0.435219       -11.8429 
  61   2.0000      -0.429634       -11.6909 
  62   2.0000      -0.415985       -11.3195 
  63   2.0000      -0.414314       -11.2741 
  64   2.0000      -0.412902       -11.2356 
  65   2.0000      -0.407437       -11.0869 
  66   2.0000      -0.402397       -10.9498 
  67   2.0000      -0.396508       -10.7895 
  68   2.0000      -0.395775       -10.7696 
  69   2.0000      -0.391502       -10.6533 
  70   2.0000      -0.386093       -10.5061 
  71   2.0000      -0.382424       -10.4063 
  72   2.0000      -0.377145       -10.2626 
  73   2.0000      -0.373825       -10.1723 
  74   2.0000      -0.372034       -10.1236 
  75   2.0000      -0.369406       -10.0520 
  76   2.0000      -0.358184        -9.7467 
  77   2.0000      -0.357167        -9.7190 
  78   2.0000      -0.353599        -9.6219 
  79   2.0000      -0.348033        -9.4705 
  80   2.0000      -0.347140        -9.4462 
  81   2.0000      -0.344114        -9.3638 
  82   2.0000      -0.342619        -9.3231 
  83   2.0000      -0.336430        -9.1547 
  84   2.0000      -0.330636        -8.9971 
  85   2.0000      -0.328189        -8.9305 
  86   2.0000      -0.325055        -8.8452 
  87   2.0000      -0.320575        -8.7233 
  88   2.0000      -0.319613        -8.6971 
  89   2.0000      -0.315473        -8.5845 
  90   2.0000      -0.311691        -8.4815 
  91   2.0000      -0.306940        -8.3523 
  92   2.0000      -0.304265        -8.2795 
  93   2.0000      -0.295359        -8.0371 
  94   2.0000      -0.289759        -7.8847 
  95   2.0000      -0.287720        -7.8293 
  96   2.0000      -0.284888        -7.7522 
  97   2.0000      -0.283935        -7.7263 
  98   2.0000      -0.279673        -7.6103 
  99   2.0000      -0.277307        -7.5459 
 100   2.0000      -0.274280        -7.4635 
 101   2.0000      -0.273519        -7.4428 
 102   2.0000      -0.268702        -7.3118 
 103   2.0000      -0.264289        -7.1917 
 104   2.0000      -0.261113        -7.1052 
 105   2.0000      -0.249893        -6.7999 
 106   2.0000      -0.233498        -6.3538 
 107   2.0000      -0.227419        -6.1884 
 108   2.0000      -0.211599        -5.7579 
 109   2.0000      -0.180811        -4.9201 
 110   0.0000      -0.056323        -1.5326 
 111   0.0000      -0.013136        -0.3575 
 112   0.0000      -0.003104        -0.0845 
 113   0.0000       0.030880         0.8403 
 114   0.0000       0.039454         1.0736 
 115   0.0000       0.041939         1.1412 
 116   0.0000       0.047518         1.2930 
 117   0.0000       0.049078         1.3355 
 118   0.0000       0.049634         1.3506 
 119   0.0000       0.055751         1.5171 
 120   0.0000       0.060005         1.6328 
 121   0.0000       0.068565         1.8657 
 122   0.0000       0.070916         1.9297 
 123   0.0000       0.073512         2.0004 
 124   0.0000       0.075174         2.0456 
 125   0.0000       0.077247         2.1020 
 126   0.0000       0.085156         2.3172 
 127   0.0000       0.087897         2.3918 
 128   0.0000       0.090586         2.4650 
 129   0.0000       0.092063         2.5052 
 130   0.0000       0.098860         2.6901 
 131   0.0000       0.101726         2.7681 
 132   0.0000       0.104887         2.8541 
 133   0.0000       0.105773         2.8782 
 134   0.0000       0.107709         2.9309 
 135   0.0000       0.110500         3.0069 
 136   0.0000       0.113620         3.0918 
 137   0.0000       0.118987         3.2378 
 138   0.0000       0.121778         3.3138 
 139   0.0000       0.124962         3.4004 
 140   0.0000       0.129266         3.5175 
 141   0.0000       0.130457         3.5499 
 142   0.0000       0.131162         3.5691 
 143   0.0000       0.137130         3.7315 
 144   0.0000       0.137507         3.7418 
 145   0.0000       0.140211         3.8153 
 146   0.0000       0.144159         3.9228 
 147   0.0000       0.144949         3.9443 
 148   0.0000       0.147650         4.0178 
 149   0.0000       0.154529         4.2050 
 150   0.0000       0.157688         4.2909 
 151   0.0000       0.158497         4.3129 
 152   0.0000       0.163201         4.4409 
 153   0.0000       0.166454         4.5294 
 154   0.0000       0.169299         4.6069 
 155   0.0000       0.172483         4.6935 
 156   0.0000       0.174854         4.7580 
 157   0.0000       0.175879         4.7859 
 158   0.0000       0.180062         4.8997 
 159   0.0000       0.184376         5.0171 
 160   0.0000       0.188795         5.1374 
 161   0.0000       0.192376         5.2348 
 162   0.0000       0.196335         5.3425 
 163   0.0000       0.199398         5.4259 
 164   0.0000       0.201864         5.4930 
 165   0.0000       0.204862         5.5746 
 166   0.0000       0.208399         5.6708 
 167   0.0000       0.211763         5.7624 
 168   0.0000       0.216852         5.9008 
 169   0.0000       0.221482         6.0268 
 170   0.0000       0.225331         6.1316 
 171   0.0000       0.228286         6.2120 
 172   0.0000       0.229936         6.2569 
 173   0.0000       0.230944         6.2843 
 174   0.0000       0.243275         6.6199 
 175   0.0000       0.252546         6.8721 
 176   0.0000       0.255522         6.9531 
 177   0.0000       0.260192         7.0802 
 178   0.0000       0.268180         7.2976 
 179   0.0000       0.271529         7.3887 
 180   0.0000       0.277674         7.5559 
 181   0.0000       0.286154         7.7866 
 182   0.0000       0.289124         7.8675 
 183   0.0000       0.294744         8.0204 
 184   0.0000       0.305829         8.3220 
 185   0.0000       0.332267         9.0415 
 186   0.0000       0.338141         9.2013 
 187   0.0000       0.343242         9.3401 
 188   0.0000       0.351560         9.5664 
 189   0.0000       0.353383         9.6160 
 190   0.0000       0.354046         9.6341 
 191   0.0000       0.356170         9.6919 
 192   0.0000       0.368487        10.0270 
 193   0.0000       0.370029        10.0690 
 194   0.0000       0.370680        10.0867 
 195   0.0000       0.373038        10.1509 
 196   0.0000       0.382295        10.4028 
 197   0.0000       0.384553        10.4642 
 198   0.0000       0.389154        10.5894 
 199   0.0000       0.397244        10.8096 
 200   0.0000       0.398542        10.8449 
 201   0.0000       0.404198        10.9988 
 202   0.0000       0.408096        11.1049 
 203   0.0000       0.415917        11.3177 
 204   0.0000       0.428081        11.6487 
 205   0.0000       0.430342        11.7102 
 206   0.0000       0.435241        11.8435 
 207   0.0000       0.440730        11.9929 
 208   0.0000       0.451210        12.2780 
 209   0.0000       0.456598        12.4247 
 210   0.0000       0.458174        12.4675 
 211   0.0000       0.466700        12.6995 
 212   0.0000       0.471502        12.8302 
 213   0.0000       0.476002        12.9527 
 214   0.0000       0.481297        13.0967 
 215   0.0000       0.483882        13.1671 
 216   0.0000       0.486346        13.2341 
 217   0.0000       0.491953        13.3867 
 218   0.0000       0.494435        13.4543 
 219   0.0000       0.503960        13.7134 
 220   0.0000       0.508008        13.8236 
 221   0.0000       0.514712        14.0060 
 222   0.0000       0.516266        14.0483 
 223   0.0000       0.527351        14.3499 
 224   0.0000       0.531974        14.4757 
 225   0.0000       0.538818        14.6620 
 226   0.0000       0.540937        14.7197 
 227   0.0000       0.541333        14.7304 
 228   0.0000       0.547065        14.8864 
 229   0.0000       0.548075        14.9139 
 230   0.0000       0.550241        14.9728 
 231   0.0000       0.555811        15.1244 
 232   0.0000       0.558181        15.1889 
 233   0.0000       0.564764        15.3680 
 234   0.0000       0.568447        15.4682 
 235   0.0000       0.569518        15.4974 
 236   0.0000       0.571830        15.5603 
 237   0.0000       0.574438        15.6313 
 238   0.0000       0.577063        15.7027 
 239   0.0000       0.579975        15.7819 
 240   0.0000       0.581856        15.8331 
 241   0.0000       0.583465        15.8769 
 242   0.0000       0.586252        15.9527 
 243   0.0000       0.592668        16.1273 
 244   0.0000       0.593691        16.1551 
 245   0.0000       0.596592        16.2341 
 246   0.0000       0.598535        16.2870 
 247   0.0000       0.601076        16.3561 
 248   0.0000       0.603620        16.4253 
 249   0.0000       0.604141        16.4395 
 250   0.0000       0.607090        16.5198 
 251   0.0000       0.609038        16.5728 
 252   0.0000       0.611289        16.6340 
 253   0.0000       0.613416        16.6919 
 254   0.0000       0.616500        16.7758 
 255   0.0000       0.619655        16.8617 
 256   0.0000       0.623043        16.9539 
 257   0.0000       0.628353        17.0984 
 258   0.0000       0.629612        17.1326 
 259   0.0000       0.631049        17.1717 
 260   0.0000       0.631934        17.1958 
 261   0.0000       0.633909        17.2495 
 262   0.0000       0.640003        17.4154 
 263   0.0000       0.642810        17.4918 
 264   0.0000       0.645080        17.5535 
 265   0.0000       0.650649        17.7051 
 266   0.0000       0.652181        17.7467 
 267   0.0000       0.653676        17.7874 
 268   0.0000       0.656544        17.8655 
 269   0.0000       0.659386        17.9428 
 270   0.0000       0.663442        18.0532 
 271   0.0000       0.665188        18.1007 
 272   0.0000       0.668830        18.1998 
 273   0.0000       0.669783        18.2257 
 274   0.0000       0.674103        18.3433 
 275   0.0000       0.676246        18.4016 
 276   0.0000       0.681599        18.5473 
 277   0.0000       0.684549        18.6275 
 278   0.0000       0.690289        18.7837 
 279   0.0000       0.692883        18.8543 
 280   0.0000       0.698603        19.0100 
 281   0.0000       0.699400        19.0317 
 282   0.0000       0.700552        19.0630 
 283   0.0000       0.705946        19.2098 
 284   0.0000       0.709234        19.2992 
 285   0.0000       0.717338        19.5198 
 286   0.0000       0.722354        19.6563 
 287   0.0000       0.724687        19.7197 
 288   0.0000       0.728387        19.8204 
 289   0.0000       0.737434        20.0666 
 290   0.0000       0.742045        20.1921 
 291   0.0000       0.745050        20.2738 
 292   0.0000       0.752971        20.4894 
 293   0.0000       0.754453        20.5297 
 294   0.0000       0.759442        20.6655 
 295   0.0000       0.762075        20.7371 
 296   0.0000       0.777621        21.1601 
 297   0.0000       0.781879        21.2760 
 298   0.0000       0.790148        21.5010 
 299   0.0000       0.792921        21.5765 
 300   0.0000       0.796780        21.6815 
 301   0.0000       0.805089        21.9076 
 302   0.0000       0.831332        22.6217 
 303   0.0000       0.836765        22.7695 
 304   0.0000       0.844071        22.9683 
 305   0.0000       0.855140        23.2695 
 306   0.0000       0.867482        23.6054 
 307   0.0000       0.886257        24.1163 
 308   0.0000       0.893053        24.3012 
 309   0.0000       0.906269        24.6608 
 310   0.0000       0.916041        24.9267 
 311   0.0000       0.924481        25.1564 
 312   0.0000       0.944562        25.7028 
 313   0.0000       0.954022        25.9603 
 314   0.0000       0.967179        26.3183 
 315   0.0000       0.979167        26.6445 
 316   0.0000       0.987162        26.8620 
 317   0.0000       1.017895        27.6983 
 318   0.0000       1.029395        28.0113 
 319   0.0000       1.038664        28.2635 
 320   0.0000       1.045023        28.4365 
 321   0.0000       1.060088        28.8465 
 322   0.0000       1.067261        29.0416 
 323   0.0000       1.106315        30.1044 
 324   0.0000       1.121562        30.5192 
 325   0.0000       1.135480        30.8980 
 326   0.0000       1.146328        31.1932 
 327   0.0000       1.154362        31.4118 
 328   0.0000       1.173626        31.9360 
 329   0.0000       1.181537        32.1512 
 330   0.0000       1.204190        32.7677 
 331   0.0000       1.215781        33.0831 
 332   0.0000       1.236470        33.6461 
 333   0.0000       1.250353        34.0238 
 334   0.0000       1.265772        34.4434 
 335   0.0000       1.270118        34.5617 
 336   0.0000       1.275813        34.7166 
 337   0.0000       1.282099        34.8877 
 338   0.0000       1.287332        35.0301 
 339   0.0000       1.313005        35.7287 
 340   0.0000       1.326199        36.0877 
 341   0.0000       1.335137        36.3309 
 342   0.0000       1.349420        36.7196 
 343   0.0000       1.353356        36.8267 
 344   0.0000       1.361733        37.0546 
 345   0.0000       1.376814        37.4650 
 346   0.0000       1.382018        37.6066 
 347   0.0000       1.388016        37.7698 
 348   0.0000       1.401982        38.1499 
 349   0.0000       1.410558        38.3832 
 350   0.0000       1.416586        38.5473 
 351   0.0000       1.434489        39.0344 
 352   0.0000       1.442996        39.2659 
 353   0.0000       1.451980        39.5104 
 354   0.0000       1.456225        39.6259 
 355   0.0000       1.464826        39.8599 
 356   0.0000       1.486851        40.4593 
 357   0.0000       1.497996        40.7625 
 358   0.0000       1.507172        41.0122 
 359   0.0000       1.514079        41.2002 
 360   0.0000       1.519980        41.3608 
 361   0.0000       1.526290        41.5325 
 362   0.0000       1.540766        41.9264 
 363   0.0000       1.548838        42.1460 
 364   0.0000       1.558522        42.4095 
 365   0.0000       1.563178        42.5362 
 366   0.0000       1.572673        42.7946 
 367   0.0000       1.577470        42.9252 
 368   0.0000       1.592794        43.3421 
 369   0.0000       1.602599        43.6089 
 370   0.0000       1.608879        43.7798 
 371   0.0000       1.620990        44.1094 
 372   0.0000       1.628174        44.3049 
 373   0.0000       1.635246        44.4973 
 374   0.0000       1.636350        44.5274 
 375   0.0000       1.651318        44.9346 
 376   0.0000       1.660716        45.1904 
 377   0.0000       1.670763        45.4638 
 378   0.0000       1.676811        45.6283 
 379   0.0000       1.685485        45.8644 
 380   0.0000       1.690684        46.0059 
 381   0.0000       1.693465        46.0815 
 382   0.0000       1.699967        46.2585 
 383   0.0000       1.702437        46.3257 
 384   0.0000       1.710562        46.5468 
 385   0.0000       1.716579        46.7105 
 386   0.0000       1.725840        46.9625 
 387   0.0000       1.728264        47.0285 
 388   0.0000       1.732249        47.1369 
 389   0.0000       1.734440        47.1965 
 390   0.0000       1.738381        47.3037 
 391   0.0000       1.741991        47.4020 
 392   0.0000       1.752038        47.6754 
 393   0.0000       1.762750        47.9669 
 394   0.0000       1.768907        48.1344 
 395   0.0000       1.773093        48.2483 
 396   0.0000       1.781103        48.4663 
 397   0.0000       1.783206        48.5235 
 398   0.0000       1.784057        48.5467 
 399   0.0000       1.794763        48.8380 
 400   0.0000       1.798814        48.9482 
 401   0.0000       1.799959        48.9794 
 402   0.0000       1.807824        49.1934 
 403   0.0000       1.808513        49.2121 
 404   0.0000       1.818871        49.4940 
 405   0.0000       1.819470        49.5103 
 406   0.0000       1.831056        49.8256 
 407   0.0000       1.836001        49.9601 
 408   0.0000       1.846889        50.2564 
 409   0.0000       1.856531        50.5188 
 410   0.0000       1.865683        50.7678 
 411   0.0000       1.868554        50.8459 
 412   0.0000       1.880398        51.1682 
 413   0.0000       1.883011        51.2393 
 414   0.0000       1.890107        51.4324 
 415   0.0000       1.895452        51.5779 
 416   0.0000       1.903930        51.8086 
 417   0.0000       1.906738        51.8850 
 418   0.0000       1.909745        51.9668 
 419   0.0000       1.917936        52.1897 
 420   0.0000       1.921642        52.2905 
 421   0.0000       1.936835        52.7039 
 422   0.0000       1.944218        52.9049 
 423   0.0000       1.945545        52.9410 
 424   0.0000       1.949460        53.0475 
 425   0.0000       1.952937        53.1421 
 426   0.0000       1.966829        53.5201 
 427   0.0000       1.968828        53.5745 
 428   0.0000       1.973624        53.7050 
 429   0.0000       1.979717        53.8708 
 430   0.0000       1.981647        53.9234 
 431   0.0000       1.986565        54.0572 
 432   0.0000       1.992084        54.2074 
 433   0.0000       1.994404        54.2705 
 434   0.0000       2.004818        54.5539 
 435   0.0000       2.009052        54.6691 
 436   0.0000       2.012622        54.7662 
 437   0.0000       2.013189        54.7816 
 438   0.0000       2.017816        54.9076 
 439   0.0000       2.023786        55.0700 
 440   0.0000       2.027488        55.1708 
 441   0.0000       2.035576        55.3908 
 442   0.0000       2.037633        55.4468 
 443   0.0000       2.044181        55.6250 
[...]

 --------------
 Nucleus  47H :
 --------------

Diamagnetic contribution to the shielding tensor (ppm) : 
            31.004          4.038        -0.219
             1.892         45.980        -5.567
             0.017         -5.436        42.422

Paramagnetic contribution to the shielding tensor (ppm): 
            -2.471         -3.677         0.979
            -1.161        -12.238         2.348
             0.183          2.115       -10.915

Total shielding tensor (ppm): 
            28.532          0.360         0.760
             0.731         33.742        -3.219
             0.200         -3.321        31.507


 Diagonalized sT*s matrix:
 
 sDSO            31.597           37.708           50.101  iso=      39.802
 sPSO            -3.525           -8.082          -14.017  iso=      -8.541
        ---------------  ---------------  ---------------
 Total           28.072           29.626           36.084  iso=      31.261

 --------------
 Nucleus  48H :
 --------------

Diamagnetic contribution to the shielding tensor (ppm) : 
            35.750         -0.041        -1.701
             0.816         30.636        -9.295
            -5.771         -9.692        48.031

Paramagnetic contribution to the shielding tensor (ppm): 
            -5.027          0.777         1.817
            -0.695         -2.248         7.147
             6.952          7.183       -17.781

Total shielding tensor (ppm): 
            30.723          0.735         0.116
             0.121         28.388        -2.149
             1.181         -2.508        30.250


 Diagonalized sT*s matrix:
 
 sDSO            28.311           37.403           48.704  iso=      38.139
 sPSO            -1.628           -6.633          -16.795  iso=      -8.352
        ---------------  ---------------  ---------------
 Total           26.683           30.770           31.908  iso=      29.787

 --------------
 Nucleus  52H :
 --------------

Diamagnetic contribution to the shielding tensor (ppm) : 
            39.623          1.329         0.018
             4.572         45.292        -1.208
             4.730          0.024        24.146

Paramagnetic contribution to the shielding tensor (ppm): 
            -5.939          1.086         2.680
            -0.526        -23.315         2.397
            -1.979          0.637        -2.497

Total shielding tensor (ppm): 
            33.684          2.415         2.698
             4.046         21.977         1.189
             2.751          0.660        21.649


 Diagonalized sT*s matrix:
 
 sDSO            33.078           34.542           41.441  iso=      36.354
 sPSO           -12.203          -13.232           -6.317  iso=     -10.584
        ---------------  ---------------  ---------------
 Total           20.875           21.311           35.124  iso=      25.770

 --------------
 Nucleus  53H :
 --------------

Diamagnetic contribution to the shielding tensor (ppm) : 
            37.956         -4.809        -1.266
            -3.701         45.874        -3.256
            -2.543         -3.923        34.570

Paramagnetic contribution to the shielding tensor (ppm): 
            -6.879          4.567         5.011
             4.550        -22.007         4.871
             6.512          5.280        -9.609

Total shielding tensor (ppm): 
            31.078         -0.242         3.745
             0.849         23.867         1.615
             3.969          1.357        24.961


 Diagonalized sT*s matrix:
 
 sDSO            41.428           42.105           34.867  iso=      39.467
 sPSO           -19.239          -17.422           -1.833  iso=     -12.831
        ---------------  ---------------  ---------------
 Total           22.189           24.683           33.034  iso=      26.635

 --------------
 Nucleus  57H :
 --------------

Diamagnetic contribution to the shielding tensor (ppm) : 
            41.162         -2.912        -3.898
            -6.784         20.814         3.762
            -6.233          6.734        21.391

Paramagnetic contribution to the shielding tensor (ppm): 
            -9.231          1.250         0.815
             5.332          7.479        -2.469
             2.301         -6.073         7.124

Total shielding tensor (ppm): 
            31.932         -1.662        -3.082
            -1.452         28.294         1.293
            -3.933          0.662        28.515


 Diagonalized sT*s matrix:
 
 sDSO            22.258           18.707           42.402  iso=      27.789
 sPSO             4.064            9.055           -7.746  iso=       1.791
        ---------------  ---------------  ---------------
 Total           26.322           27.763           34.656  iso=      29.580

 --------------
 Nucleus  58H :
 --------------

Diamagnetic contribution to the shielding tensor (ppm) : 
            41.224          4.216         6.846
             5.364         15.242         4.572
             5.959          4.935        20.793

Paramagnetic contribution to the shielding tensor (ppm): 
            -6.544         -2.385        -3.718
            -3.353         13.265        -4.446
            -2.884         -5.274         6.713

Total shielding tensor (ppm): 
            34.681          1.831         3.129
             2.011         28.507         0.126
             3.075         -0.339        27.506


 Diagonalized sT*s matrix:
 
 sDSO            20.466           12.540           44.254  iso=      25.753
 sPSO             5.605           15.842           -8.013  iso=       4.478
        ---------------  ---------------  ---------------
 Total           26.071           28.382           36.241  iso=      30.231

 --------------
 Nucleus  61H :
 --------------

Diamagnetic contribution to the shielding tensor (ppm) : 
            26.243         -5.493         1.377
           -13.814         35.353        -9.794
             7.326          0.690        20.054

Paramagnetic contribution to the shielding tensor (ppm): 
             1.715          3.364         0.120
            11.271          0.523         9.465
            -5.669         -2.254         7.618

Total shielding tensor (ppm): 
            27.958         -2.129         1.497
            -2.543         35.876        -0.329
             1.657         -1.564        27.672


 Diagonalized sT*s matrix:
 
 sDSO            18.323           22.272           41.054  iso=      27.216
 sPSO             7.814            6.385           -4.342  iso=       3.285
        ---------------  ---------------  ---------------
 Total           26.136           28.657           36.712  iso=      30.502

 --------------
 Nucleus  62H :
 --------------

Diamagnetic contribution to the shielding tensor (ppm) : 
            33.992          0.018        -6.335
            -6.733         25.114        -3.501
             1.844         -5.976        37.176

Paramagnetic contribution to the shielding tensor (ppm): 
            -3.729         -0.485         4.029
             6.565          4.248         1.293
            -3.948          4.328        -4.448

Total shielding tensor (ppm): 
            30.262         -0.467        -2.306
            -0.168         29.362        -2.208
            -2.105         -1.648        32.728


 Diagonalized sT*s matrix:
 
 sDSO            23.648           33.880           38.754  iso=      32.094
 sPSO             4.088           -3.751           -4.266  iso=      -1.310
        ---------------  ---------------  ---------------
 Total           27.736           30.129           34.488  iso=      30.784

 --------------
 Nucleus  63H :
 --------------

Diamagnetic contribution to the shielding tensor (ppm) : 
            35.758         -0.750        10.243
            -3.885         13.268         0.957
            12.578          2.778        23.871

Paramagnetic contribution to the shielding tensor (ppm): 
            -2.133          0.539        -4.910
             3.178         15.015        -2.207
            -6.462         -3.191         6.718

Total shielding tensor (ppm): 
            33.625         -0.211         5.332
            -0.708         28.283        -1.250
             6.116         -0.413        30.589


 Diagonalized sT*s matrix:
 
 sDSO            18.069           12.523           42.305  iso=      24.299
 sPSO             8.048           15.751           -4.199  iso=       6.533
        ---------------  ---------------  ---------------
 Total           26.117           28.274           38.106  iso=      30.832

 --------------
 Nucleus  64H :
 --------------

Diamagnetic contribution to the shielding tensor (ppm) : 
            24.853          0.717         0.248
             8.029         42.756         4.989
             8.970          6.065        27.091

Paramagnetic contribution to the shielding tensor (ppm): 
             3.113         -0.126        -0.462
            -7.111         -7.116        -1.130
            -9.310         -1.343         2.344

Total shielding tensor (ppm): 
            27.965          0.591        -0.214
             0.919         35.640         3.859
            -0.340          4.722        29.435


 Diagonalized sT*s matrix:
 
 sDSO            27.424           22.609           44.666  iso=      31.566
 sPSO            -0.518            5.663           -6.804  iso=      -0.553
        ---------------  ---------------  ---------------
 Total           26.906           28.272           37.862  iso=      31.013

 --------------
 Nucleus  65H :
 --------------

Diamagnetic contribution to the shielding tensor (ppm) : 
            27.469          0.362        -0.330
             4.159         30.518         2.728
             4.738         -5.953        39.631

Paramagnetic contribution to the shielding tensor (ppm): 
            -0.586         -1.144        -0.793
            -5.425         -1.403        -3.212
            -5.019          4.533        -3.931

Total shielding tensor (ppm): 
            26.883         -0.782        -1.122
            -1.267         29.115        -0.484
            -0.281         -1.420        35.700


 Diagonalized sT*s matrix:
 
 sDSO            29.943           28.023           39.652  iso=      32.539
 sPSO            -3.567            1.430           -3.783  iso=      -1.973
        ---------------  ---------------  ---------------
 Total           26.376           29.454           35.869  iso=      30.566

 --------------
 Nucleus  66H :
 --------------

Diamagnetic contribution to the shielding tensor (ppm) : 
            42.087         -0.766        -0.274
             4.006         34.311         6.659
            10.045          8.445        32.726

Paramagnetic contribution to the shielding tensor (ppm): 
            -4.562          1.259         2.538
            -3.269         -7.400        -4.334
            -8.594         -4.869        -5.449

Total shielding tensor (ppm): 
            37.524          0.493         2.264
             0.738         26.911         2.325
             1.451          3.576        27.277


 Diagonalized sT*s matrix:
 
 sDSO            25.724           39.187           44.212  iso=      36.375
 sPSO            -1.637           -9.532           -6.241  iso=      -5.804
        ---------------  ---------------  ---------------
 Total           24.087           29.655           37.971  iso=      30.571

 --------------
 Nucleus  67H :
 --------------

Diamagnetic contribution to the shielding tensor (ppm) : 
            37.945          1.344         5.171
             7.454         32.896        -4.864
            -3.439         -9.949        26.586

Paramagnetic contribution to the shielding tensor (ppm): 
            -5.124          0.703        -1.945
            -6.379         -3.934         2.682
             7.129          6.887         2.566

Total shielding tensor (ppm): 
            32.821          2.046         3.227
             1.075         28.961        -2.182
             3.690         -3.062        29.153


 Diagonalized sT*s matrix:
 
 sDSO            22.037           39.675           35.715  iso=      32.476
 sPSO             2.787           -8.465           -0.814  iso=      -2.164
        ---------------  ---------------  ---------------
 Total           24.824           31.210           34.901  iso=      30.312

 --------------
 Nucleus  68H :
 --------------

Diamagnetic contribution to the shielding tensor (ppm) : 
            33.325          0.336        -7.417
             5.036         22.274         3.245
           -13.185          2.044        27.685

Paramagnetic contribution to the shielding tensor (ppm): 
            -2.075          0.081         2.729
            -4.362          5.988        -4.460
             7.583         -2.377         5.206

Total shielding tensor (ppm): 
            31.251          0.418        -4.687
             0.675         28.262        -1.215
            -5.603         -0.332        32.891


 Diagonalized sT*s matrix:
 
 sDSO            21.211           22.003           40.070  iso=      27.761
 sPSO             5.644            6.167           -2.692  iso=       3.040
        ---------------  ---------------  ---------------
 Total           26.856           28.171           37.378  iso=      30.801

 --------------
 Nucleus  69H :
 --------------

Diamagnetic contribution to the shielding tensor (ppm) : 
            27.559          5.254         1.011
            12.238         38.295        -1.497
            -6.396          0.253        17.212

Paramagnetic contribution to the shielding tensor (ppm): 
             0.320         -1.899        -1.630
            -8.804         -1.966         0.620
             5.907         -2.372        10.613

Total shielding tensor (ppm): 
            27.879          3.354        -0.619
             3.434         36.329        -0.877
            -0.489         -2.120        27.825


 Diagonalized sT*s matrix:
 
 sDSO            23.178           17.429           42.459  iso=      27.689
 sPSO             3.506           10.140           -4.680  iso=       2.989
        ---------------  ---------------  ---------------
 Total           26.684           27.570           37.779  iso=      30.677

 --------------
 Nucleus  70H :
 --------------

Diamagnetic contribution to the shielding tensor (ppm) : 
            34.885         -7.295        -9.175
            -5.724         23.944         3.023
           -16.819          0.860        37.960

Paramagnetic contribution to the shielding tensor (ppm): 
            -0.969          5.956         5.164
             4.063          3.858        -0.014
            12.387          2.983        -7.441

Total shielding tensor (ppm): 
            33.916         -1.339        -4.012
            -1.661         27.802         3.009
            -4.431          3.844        30.520


 Diagonalized sT*s matrix:
 
 sDSO            26.946           19.916           49.927  iso=      32.263
 sPSO            -1.678            9.246          -12.120  iso=      -1.517
        ---------------  ---------------  ---------------
 Total           25.268           29.162           37.807  iso=      30.746

 --------------
 Nucleus  71H :
 --------------

Diamagnetic contribution to the shielding tensor (ppm) : 
            31.900          2.412         5.244
            -2.888         35.444         8.080
            -1.527          5.048        41.747

Paramagnetic contribution to the shielding tensor (ppm): 
             1.292         -1.828        -4.365
             3.922         -6.444        -3.212
             2.684         -0.331       -12.957

Total shielding tensor (ppm): 
            33.192          0.585         0.879
             1.034         29.000         4.869
             1.156          4.717        28.790


 Diagonalized sT*s matrix:
 
 sDSO            32.053           36.164           40.873  iso=      36.363
 sPSO            -7.955           -4.036           -6.118  iso=      -6.036
        ---------------  ---------------  ---------------
 Total           24.098           32.128           34.755  iso=      30.327

 --------------
 Nucleus  72H :
 --------------

Diamagnetic contribution to the shielding tensor (ppm) : 
            27.848         -5.531        -1.025
            -6.732         40.205        -4.003
            -0.222        -10.172        41.271

Paramagnetic contribution to the shielding tensor (ppm): 
             3.237          4.321         1.899
             5.132         -6.448         1.288
             0.673          7.479       -13.130

Total shielding tensor (ppm): 
            31.085         -1.209         0.874
            -1.601         33.757        -2.715
             0.451         -2.693        28.141


 Diagonalized sT*s matrix:
 
 sDSO            36.414           26.122           46.788  iso=      36.441
 sPSO            -9.365            4.408          -11.384  iso=      -5.447
        ---------------  ---------------  ---------------
 Total           27.049           30.530           35.404  iso=      30.994



--------------------------------
CHEMICAL SHIELDING SUMMARY (ppm)
--------------------------------


  Nucleus  Element    Isotropic     Anisotropy
  -------  -------  ------------   ------------
      3       H           29.636          5.427 
      4       H           29.131          5.309 
      8       H           29.566          6.406 
      9       H           29.422          7.768 
     10       H           29.628          8.798 
     11       H           30.529          6.225 
     13       H           28.185          2.730 
     16       H           26.854          5.134 
     17       H           26.514          5.017 
     19       H           25.448         10.780 
     21       H           25.694         15.023 
     24       H           28.889         10.005 
     25       H           30.002          9.366 
     27       H           30.227          7.154 
     28       H           30.150         11.783 
     30       H           29.721          8.292 
     31       H           30.449          6.748 
     33       H           29.839          4.049 
     35       H           31.116         14.866 
     37       H           30.334         10.731 
     38       H           30.228          9.502 
     40       H           29.833         10.727 
     41       H           30.254          8.182 
     42       H           30.801          5.232 
     45       H           31.048          8.317 
     46       H           31.276          9.255 
     47       H           31.261          7.235 
     48       H           29.787          3.182 
     52       H           25.770         14.031 
     53       H           26.635          9.599 
     57       H           29.580          7.613 
     58       H           30.231          9.014 
     61       H           30.502          9.315 
     62       H           30.784          5.556 
     63       H           30.832         10.910 
     64       H           31.013         10.273 
     65       H           30.566          7.955 
     66       H           30.571         11.100 
     67       H           30.312          6.885 
     68       H           30.801          9.865 
     69       H           30.677         10.652 
     70       H           30.746         10.592 
     71       H           30.327          6.642 
     72       H           30.994          6.615 



Maximum memory used throughout the entire EPRNMR-calculation: 141.0 MB

Timings for individual modules:

Sum of individual times         ...      148.323 sec (=   2.472 min)
GTO integral calculation        ...        0.791 sec (=   0.013 min)   0.5 %
SCF iterations                  ...       99.101 sec (=   1.652 min)  66.8 %
EPR/NMR calculation             ...       48.432 sec (=   0.807 min)  32.7 %
                             ****ORCA TERMINATED NORMALLY****
TOTAL RUN TIME: 0 days 0 hours 2 minutes 28 seconds 833 msec
