
                                 *****************
                                 * O   R   C   A *
                                 *****************

                                            #,                                       
                                            ###                                      
                                            ####                                     
                                            #####                                    
                                            ######                                   
                                           ########,                                 
                                     ,,################,,,,,                         
                               ,,#################################,,                 
                          ,,##########################################,,             
                       ,#########################################, ''#####,          
                    ,#############################################,,   '####,        
                  ,##################################################,,,,####,       
                ,###########''''           ''''###############################       
              ,#####''   ,,,,##########,,,,          '''####'''          '####       
            ,##' ,,,,###########################,,,                        '##       
           ' ,,###''''                  '''############,,,                           
         ,,##''                                '''############,,,,        ,,,,,,###''
      ,#''                                            '''#######################'''  
     '                                                          ''''####''''         
             ,#######,   #######,   ,#######,      ##                                
            ,#'     '#,  ##    ##  ,#'     '#,    #''#        ######   ,####,        
            ##       ##  ##   ,#'  ##            #'  '#       #        #'  '#        
            ##       ##  #######   ##           ,######,      #####,   #    #        
            '#,     ,#'  ##    ##  '#,     ,#' ,#      #,         ##   #,  ,#        
             '#######'   ##     ##  '#######'  #'      '#     #####' # '####'        



                  #######################################################
                  #                        -***-                        #
                  #          Department of theory and spectroscopy      #
                  #    Directorship and core code : Frank Neese         #
                  #        Max Planck Institute fuer Kohlenforschung    #
                  #                Kaiser Wilhelm Platz 1               #
                  #                 D-45470 Muelheim/Ruhr               #
                  #                      Germany                        #
                  #                                                     #
                  #                  All rights reserved                #
                  #                        -***-                        #
                  #######################################################


                         Program Version 5.0.2 -  RELEASE  -


 With contributions from (in alphabetic order):
   Daniel Aravena         : Magnetic Suceptibility
   Michael Atanasov       : Ab Initio Ligand Field Theory (pilot matlab implementation)
   Alexander A. Auer      : GIAO ZORA, VPT2 properties, NMR spectrum
   Ute Becker             : Parallelization
   Giovanni Bistoni       : ED, misc. LED, open-shell LED, HFLD
   Martin Brehm           : Molecular dynamics
   Dmytro Bykov           : SCF Hessian
   Vijay G. Chilkuri      : MRCI spin determinant printing, contributions to CSF-ICE
   Dipayan Datta          : RHF DLPNO-CCSD density
   Achintya Kumar Dutta   : EOM-CC, STEOM-CC
   Dmitry Ganyushin       : Spin-Orbit,Spin-Spin,Magnetic field MRCI
   Miquel Garcia          : C-PCM and meta-GGA Hessian, CC/C-PCM, Gaussian charge scheme
   Yang Guo               : DLPNO-NEVPT2, F12-NEVPT2, CIM, IAO-localization
   Andreas Hansen         : Spin unrestricted coupled pair/coupled cluster methods
   Benjamin Helmich-Paris : MC-RPA, TRAH-SCF, COSX integrals
   Lee Huntington         : MR-EOM, pCC
   Robert Izsak           : Overlap fitted RIJCOSX, COSX-SCS-MP3, EOM
   Marcus Kettner         : VPT2
   Christian Kollmar      : KDIIS, OOCD, Brueckner-CCSD(T), CCSD density, CASPT2, CASPT2-K
   Simone Kossmann        : Meta GGA functionals, TD-DFT gradient, OOMP2, MP2 Hessian
   Martin Krupicka        : Initial AUTO-CI
   Lucas Lang             : DCDCAS
   Marvin Lechner         : AUTO-CI (C++ implementation), FIC-MRCC
   Dagmar Lenk            : GEPOL surface, SMD
   Dimitrios Liakos       : Extrapolation schemes; Compound Job, initial MDCI parallelization
   Dimitrios Manganas     : Further ROCIS development; embedding schemes
   Dimitrios Pantazis     : SARC Basis sets
   Anastasios Papadopoulos: AUTO-CI, single reference methods and gradients
   Taras Petrenko         : DFT Hessian,TD-DFT gradient, ASA, ECA, R-Raman, ABS, FL, XAS/XES, NRVS
   Peter Pinski           : DLPNO-MP2, DLPNO-MP2 Gradient
   Christoph Reimann      : Effective Core Potentials
   Marius Retegan         : Local ZFS, SOC
   Christoph Riplinger    : Optimizer, TS searches, QM/MM, DLPNO-CCSD(T), (RO)-DLPNO pert. Triples
   Tobias Risthaus        : Range-separated hybrids, TD-DFT gradient, RPA, STAB
   Michael Roemelt        : Original ROCIS implementation
   Masaaki Saitow         : Open-shell DLPNO-CCSD energy and density
   Barbara Sandhoefer     : DKH picture change effects
   Avijit Sen             : IP-ROCIS
   Kantharuban Sivalingam : CASSCF convergence, NEVPT2, FIC-MRCI
   Bernardo de Souza      : ESD, SOC TD-DFT
   Georgi Stoychev        : AutoAux, RI-MP2 NMR, DLPNO-MP2 response
   Willem Van den Heuvel  : Paramagnetic NMR
   Boris Wezisla          : Elementary symmetry handling
   Frank Wennmohs         : Technical directorship


 We gratefully acknowledge several colleagues who have allowed us to
 interface, adapt or use parts of their codes:
   Stefan Grimme, W. Hujo, H. Kruse, P. Pracht,  : VdW corrections, initial TS optimization,
                  C. Bannwarth, S. Ehlert          DFT functionals, gCP, sTDA/sTD-DF
   Ed Valeev, F. Pavosevic, A. Kumar             : LibInt (2-el integral package), F12 methods
   Garnet Chan, S. Sharma, J. Yang, R. Olivares  : DMRG
   Ulf Ekstrom                                   : XCFun DFT Library
   Mihaly Kallay                                 : mrcc  (arbitrary order and MRCC methods)
   Jiri Pittner, Ondrej Demel                    : Mk-CCSD
   Frank Weinhold                                : gennbo (NPA and NBO analysis)
   Christopher J. Cramer and Donald G. Truhlar   : smd solvation model
   Lars Goerigk                                  : TD-DFT with DH, B97 family of functionals
   V. Asgeirsson, H. Jonsson                     : NEB implementation
   FAccTs GmbH                                   : IRC, NEB, NEB-TS, DLPNO-Multilevel, CI-OPT
                                                   MM, QMMM, 2- and 3-layer-ONIOM, Crystal-QMMM,
                                                   LR-CPCM, SF, NACMEs, symmetry and pop. for TD-DFT,
                                                   nearIR, NL-DFT gradient (VV10), updates on ESD,
                                                   ML-optimized integration grids
   S Lehtola, MJT Oliveira, MAL Marques          : LibXC Library
   Liviu Ungur et al                             : ANISO software


 Your calculation uses the libint2 library for the computation of 2-el integrals
 For citations please refer to: http://libint.valeyev.net

 Your ORCA version has been built with support for libXC version: 5.1.0
 For citations please refer to: https://tddft.org/programs/libxc/

 This ORCA versions uses:
   CBLAS   interface :  Fast vector & matrix operations
   LAPACKE interface :  Fast linear algebra routines
   SCALAPACK package :  Parallel linear algebra routines
   Shared memory     :  Shared parallel matrices
   BLAS/LAPACK       :  OpenBLAS 0.3.15  USE64BITINT DYNAMIC_ARCH NO_AFFINITY Zen SINGLE_THREADED
        Core in use  :  Zen
   Copyright (c) 2011-2014, The OpenBLAS Project


Your calculation utilizes the atom-pairwise dispersion correction
based on tight binding partial charges (D4)
Cite in your paper:
E.Caldeweyher, C.Bannwarth, S.Grimme, J.Chem.Phys., (2017), 147, 034112.
E.Caldeweyher, S.Ehlert, A.Hansen, H.Neugebauer, S.Grimme, J.Chem.Phys., (2018), in progress.
   

================================================================================

----- Orbital basis set information -----
Your calculation utilizes the basis: pcJ-0
   F. Jensen, Theor. Chem. Acc. 126, 371 (2010).

----- AuxJ basis set information -----
Your calculation utilizes the auxiliary basis: def2/J
   F. Weigend, Phys. Chem. Chem. Phys. 8, 1057 (2006).

================================================================================
                                        WARNINGS
                       Please study these warnings very carefully!
================================================================================


INFO   : the flag for use of the SHARK integral package has been found!

================================================================================
                                       INPUT FILE
================================================================================
NAME = inpJ
|  1> ! pbe0
|  2> ! D4
|  3> ! pcJ-0
|  4> ! def2/J RIJCOSX
|  5> ! DEFGRID2
|  6> ! scfconv7
|  7> ! smallprint printgap noloewdin
|  8> ! NOSOSCF
|  9> %MaxCore 4000
| 10> %output
| 11>        print[P_BondOrder_M] 1
| 12>        print[P_Mayer] 1
| 13>        print[P_basis] 2
| 14> end
| 15> %pal
| 16>     nprocs 4
| 17> end
| 18> ! CPCM(chloroform)
| 19> *xyz 0 1
| 20> C   -5.1689377700   0.0063993000  -0.4132372400
| 21> C   -6.5642456000  -0.5494681200  -0.5716961300
| 22> C   -7.5185013300   0.1082638900   0.4335754300
| 23> H   -6.5671460500  -1.6368823100  -0.4357676800
| 24> H   -6.9393772300  -0.3325716100  -1.5828027500
| 25> C   -5.0992597900   1.4818353000  -0.5027327200
| 26> C   -6.0885270000   2.2050412100   0.3844691200
| 27> C   -7.5054491400   1.6273999400   0.2557066300
| 28> H   -6.0877780200   3.2765110000   0.1576895000
| 29> H   -5.7582931500   2.0975819400   1.4289077000
| 30> H   -7.9085220900   1.8613466300  -0.7390836000
| 31> H   -8.1682788400   2.0883828800   0.9972091900
| 32> O   -7.1809525900  -0.2729831500   1.7774472300
| 33> H   -8.5360403300  -0.2694091400   0.2739107500
| 34> C   -4.1197251700  -0.8025576900  -0.1328099900
| 35> C   -4.2646347100   2.1282097700  -1.3236604200
| 36> H   -3.5731885700   1.5898670800  -1.9664729100
| 37> H   -4.2624481100   3.2144476400  -1.3766505200
| 38> C   -2.7648152100  -0.3818309800   0.1401404000
| 39> H   -4.3357317300  -1.8688687200  -0.0816985100
| 40> C   -1.7075296100  -1.1903327600   0.3683836100
| 41> H   -2.5996621600   0.6924643400   0.1782978300
| 42> C   -1.7354697700  -2.6977303600   0.3548136300
| 43> C   -0.6699470300  -3.2801213000  -0.5927354500
| 44> H   -2.7199578900  -3.0928493900   0.0905403500
| 45> H   -1.5121961100  -3.0471794700   1.3755906600
| 46> C    0.7263735900  -2.7003141500  -0.3338246900
| 47> H   -0.9675597500  -3.0837565500  -1.6306633400
| 48> H   -0.6428635200  -4.3705105400  -0.4769511700
| 49> C    0.7247002600  -1.1657198900  -0.3789160200
| 50> H    1.4274520700  -3.1206997400  -1.0621732400
| 51> H    1.0704097400  -3.0171140300   0.6624762700
| 52> C   -0.3337721200  -0.6673126900   0.6559587000
| 53> H   -0.0204476400  -1.1235775400   1.6133835500
| 54> C   -0.0666550700   0.8298796500   0.7600922500
| 55> H   -6.2166179600  -0.2476359000   1.8560253500
| 56> C    1.4759392600   0.9249823100   0.6635940700
| 57> H   -0.4591176900   1.2586145600   1.6882621500
| 58> H   -0.5404924400   1.3662560500  -0.0697550700
| 59> C    1.9958180700  -0.4680916100   0.1854050900
| 60> H    1.9155022800   1.1936789300   1.6277021100
| 61> H    1.7828002100   1.7038134000  -0.0445154500
| 62> H    2.2928189900  -1.0571358900   1.0679830700
| 63> C    3.2177617300  -0.3405513500  -0.7334768000
| 64> C    0.3892439600  -0.6543425600  -1.7871347500
| 65> H    0.5214335700   0.4293892200  -1.8657794700
| 66> H   -0.6482604200  -0.8760878600  -2.0562531200
| 67> H    1.0373937500  -1.1218006200  -2.5359664600
| 68> H    2.9241896900   0.2924314300  -1.5864184000
| 69> C    3.7195576900  -1.6781450300  -1.3083585200
| 70> C    4.4045924400   0.3348927700  -0.0804456100
| 71> C    4.6437775100   0.4618707200   1.2249134000
| 72> H    5.1565607300   0.6813263500  -0.7914161500
| 73> H    3.8959392500   0.1085770300   1.9322391000
| 74> C    5.8866309200   1.0438898600   1.8532468900
| 75> C    6.7405431700   1.8431192300   0.8676406100
| 76> C    6.7125598000  -0.0663321000   2.5651540100
| 77> H    5.5512452800   1.7313468800   2.6494790000
| 78> H    7.0652229200  -0.7515179800   1.7777838600
| 79> C    5.8650747600  -0.8696865800   3.5569943000
| 80> C    7.9331064800   0.5114622200   3.2888927600
| 81> H    7.2336037400   1.1833846300   0.1433346800
| 82> H    7.5175251000   2.4092981500   1.3872244100
| 83> H    6.1247926800   2.5567316700   0.3105614100
| 84> H    5.0660710200  -1.4293145500   3.0623125700
| 85> H    5.4053849000  -0.2039682400   4.2993796400
| 86> H    6.4904194600  -1.5893505400   4.0962853400
| 87> H    8.6499776000   0.9676723700   2.6007699400
| 88> H    8.4582322500  -0.2771961200   3.8388370400
| 89> H    7.6228416400   1.2753067400   4.0139446000
| 90> H    3.0083816400  -2.1192183300  -2.0113229900
| 91> H    3.9029398400  -2.3958491500  -0.4999009000
| 92> H    4.6647372300  -1.5298308000  -1.8428028600
| 93> *
| 94> %eprnmr
| 95>  Nuclei = all H { ssfc }
| 96>  SpinSpinRThresh 8.0
| 97> end
| 98> 
| 99>                          ****END OF INPUT****
================================================================================

                       ****************************
                       * Single Point Calculation *
                       ****************************

---------------------------------
CARTESIAN COORDINATES (ANGSTROEM)
---------------------------------
  C     -5.168938    0.006399   -0.413237
  C     -6.564246   -0.549468   -0.571696
  C     -7.518501    0.108264    0.433575
  H     -6.567146   -1.636882   -0.435768
  H     -6.939377   -0.332572   -1.582803
  C     -5.099260    1.481835   -0.502733
  C     -6.088527    2.205041    0.384469
  C     -7.505449    1.627400    0.255707
  H     -6.087778    3.276511    0.157690
  H     -5.758293    2.097582    1.428908
  H     -7.908522    1.861347   -0.739084
  H     -8.168279    2.088383    0.997209
  O     -7.180953   -0.272983    1.777447
  H     -8.536040   -0.269409    0.273911
  C     -4.119725   -0.802558   -0.132810
  C     -4.264635    2.128210   -1.323660
  H     -3.573189    1.589867   -1.966473
  H     -4.262448    3.214448   -1.376651
  C     -2.764815   -0.381831    0.140140
  H     -4.335732   -1.868869   -0.081699
  C     -1.707530   -1.190333    0.368384
  H     -2.599662    0.692464    0.178298
  C     -1.735470   -2.697730    0.354814
  C     -0.669947   -3.280121   -0.592735
  H     -2.719958   -3.092849    0.090540
  H     -1.512196   -3.047179    1.375591
  C      0.726374   -2.700314   -0.333825
  H     -0.967560   -3.083757   -1.630663
  H     -0.642864   -4.370511   -0.476951
  C      0.724700   -1.165720   -0.378916
  H      1.427452   -3.120700   -1.062173
  H      1.070410   -3.017114    0.662476
  C     -0.333772   -0.667313    0.655959
  H     -0.020448   -1.123578    1.613384
  C     -0.066655    0.829880    0.760092
  H     -6.216618   -0.247636    1.856025
  C      1.475939    0.924982    0.663594
  H     -0.459118    1.258615    1.688262
  H     -0.540492    1.366256   -0.069755
  C      1.995818   -0.468092    0.185405
  H      1.915502    1.193679    1.627702
  H      1.782800    1.703813   -0.044515
  H      2.292819   -1.057136    1.067983
  C      3.217762   -0.340551   -0.733477
  C      0.389244   -0.654343   -1.787135
  H      0.521434    0.429389   -1.865779
  H     -0.648260   -0.876088   -2.056253
  H      1.037394   -1.121801   -2.535966
  H      2.924190    0.292431   -1.586418
  C      3.719558   -1.678145   -1.308359
  C      4.404592    0.334893   -0.080446
  C      4.643778    0.461871    1.224913
  H      5.156561    0.681326   -0.791416
  H      3.895939    0.108577    1.932239
  C      5.886631    1.043890    1.853247
  C      6.740543    1.843119    0.867641
  C      6.712560   -0.066332    2.565154
  H      5.551245    1.731347    2.649479
  H      7.065223   -0.751518    1.777784
  C      5.865075   -0.869687    3.556994
  C      7.933106    0.511462    3.288893
  H      7.233604    1.183385    0.143335
  H      7.517525    2.409298    1.387224
  H      6.124793    2.556732    0.310561
  H      5.066071   -1.429315    3.062313
  H      5.405385   -0.203968    4.299380
  H      6.490419   -1.589351    4.096285
  H      8.649978    0.967672    2.600770
  H      8.458232   -0.277196    3.838837
  H      7.622842    1.275307    4.013945
  H      3.008382   -2.119218   -2.011323
  H      3.902940   -2.395849   -0.499901
  H      4.664737   -1.529831   -1.842803

----------------------------
CARTESIAN COORDINATES (A.U.)
----------------------------
  NO LB      ZA    FRAG     MASS         X           Y           Z
   0 C     6.0000    0    12.011   -9.767877    0.012093   -0.780905
   1 C     6.0000    0    12.011  -12.404626   -1.038344   -1.080349
   2 C     6.0000    0    12.011  -14.207908    0.204589    0.819339
   3 H     1.0000    0     1.008  -12.410108   -3.093259   -0.823482
   4 H     1.0000    0     1.008  -13.113523   -0.628469   -2.991064
   5 C     6.0000    0    12.011   -9.636204    2.800263   -0.950027
   6 C     6.0000    0    12.011  -11.505649    4.166924    0.726541
   7 C     6.0000    0    12.011  -14.183243    3.075340    0.483216
   8 H     1.0000    0     1.008  -11.504233    6.191708    0.297990
   9 H     1.0000    0     1.008  -10.881597    3.963855    2.700244
  10 H     1.0000    0     1.008  -14.944941    3.517435   -1.396666
  11 H     1.0000    0     1.008  -15.435810    3.946472    1.884452
  12 O     8.0000    0    15.999  -13.570034   -0.515863    3.358888
  13 H     1.0000    0     1.008  -16.130778   -0.509109    0.517616
  14 C     6.0000    0    12.011   -7.785152   -1.516614   -0.250975
  15 C     6.0000    0    12.011   -8.058992    4.021734   -2.501356
  16 H     1.0000    0     1.008   -6.752348    3.004413   -3.716095
  17 H     1.0000    0     1.008   -8.054860    6.074426   -2.601492
  18 C     6.0000    0    12.011   -5.224744   -0.721556    0.264827
  19 H     1.0000    0     1.008   -8.193346   -3.531650   -0.154388
  20 C     6.0000    0    12.011   -3.226763   -2.249403    0.696144
  21 H     1.0000    0     1.008   -4.912650    1.308568    0.336934
  22 C     6.0000    0    12.011   -3.279563   -5.097972    0.670501
  23 C     6.0000    0    12.011   -1.266016   -6.198531   -1.120108
  24 H     1.0000    0     1.008   -5.139976   -5.844638    0.171096
  25 H     1.0000    0     1.008   -2.857637   -5.758335    2.599490
  26 C     6.0000    0    12.011    1.372647   -5.102854   -0.630837
  27 H     1.0000    0     1.008   -1.828423   -5.827455   -3.081507
  28 H     1.0000    0     1.008   -1.214836   -8.259068   -0.901307
  29 C     6.0000    0    12.011    1.369485   -2.202891   -0.716048
  30 H     1.0000    0     1.008    2.697493   -5.897268   -2.007217
  31 H     1.0000    0     1.008    2.022781   -5.701519    1.251899
  32 C     6.0000    0    12.011   -0.630738   -1.261038    1.239582
  33 H     1.0000    0     1.008   -0.038640   -2.123254    3.048853
  34 C     6.0000    0    12.011   -0.125960    1.568245    1.436366
  35 H     1.0000    0     1.008  -11.747705   -0.467964    3.507380
  36 C     6.0000    0    12.011    2.789121    1.747963    1.254011
  37 H     1.0000    0     1.008   -0.867607    2.378437    3.190353
  38 H     1.0000    0     1.008   -1.021383    2.581850   -0.131818
  39 C     6.0000    0    12.011    3.771550   -0.884565    0.350365
  40 H     1.0000    0     1.008    3.619775    2.255726    3.075911
  41 H     1.0000    0     1.008    3.369004    3.219741   -0.084122
  42 H     1.0000    0     1.008    4.332800   -1.997697    2.018196
  43 C     6.0000    0    12.011    6.080688   -0.643549   -1.386070
  44 C     6.0000    0    12.011    0.735564   -1.236528   -3.377195
  45 H     1.0000    0     1.008    0.985367    0.811428   -3.525812
  46 H     1.0000    0     1.008   -1.225035   -1.655566   -3.885755
  47 H     1.0000    0     1.008    1.960390   -2.119896   -4.792282
  48 H     1.0000    0     1.008    5.525918    0.552615   -2.997896
  49 C     6.0000    0    12.011    7.028945   -3.171235   -2.472439
  50 C     6.0000    0    12.011    8.323473    0.632856   -0.152020
  51 C     6.0000    0    12.011    8.775468    0.872809    2.314751
  52 H     1.0000    0     1.008    9.744488    1.287520   -1.495560
  53 H     1.0000    0     1.008    7.362258    0.205181    3.651403
  54 C     6.0000    0    12.011   11.124120    1.972666    3.502129
  55 C     6.0000    0    12.011   12.737781    3.482991    1.639603
  56 C     6.0000    0    12.011   12.684900   -0.125350    4.847439
  57 H     1.0000    0     1.008   10.490333    3.271771    5.006790
  58 H     1.0000    0     1.008   13.351336   -1.420163    3.359525
  59 C     6.0000    0    12.011   11.083385   -1.643469    6.721745
  60 C     6.0000    0    12.011   14.991399    0.966524    6.215107
  61 H     1.0000    0     1.008   13.669530    2.236273    0.270863
  62 H     1.0000    0     1.008   14.206064    4.552914    2.621474
  63 H     1.0000    0     1.008   11.574181    4.831523    0.586876
  64 H     1.0000    0     1.008    9.573487   -2.701013    5.786932
  65 H     1.0000    0     1.008   10.214697   -0.385444    8.124650
  66 H     1.0000    0     1.008   12.265115   -3.003437    7.740857
  67 H     1.0000    0     1.008   16.346089    1.828636    4.914743
  68 H     1.0000    0     1.008   15.983743   -0.523825    7.254351
  69 H     1.0000    0     1.008   14.405083    2.409980    7.585256
  70 H     1.0000    0     1.008    5.685017   -4.004742   -3.800850
  71 H     1.0000    0     1.008    7.375487   -4.527499   -0.944676
  72 H     1.0000    0     1.008    8.815076   -2.890961   -3.482393

--------------------------------
INTERNAL COORDINATES (ANGSTROEM)
--------------------------------
 C      0   0   0     0.000000000000     0.00000000     0.00000000
 C      1   0   0     1.510291941612     0.00000000     0.00000000
 C      2   1   0     1.534205431017   110.37095225     0.00000000
 H      2   1   3     1.095880731076   110.77143661   237.88881492
 H      2   1   3     1.100047468469   109.81101399   118.70426427
 C      1   2   3     1.479789124143   113.83639714   305.60348919
 C      6   1   2     1.512879210624   114.22809945    50.32975007
 C      3   2   1     1.529569223045   110.13811349    56.86740893
 H      7   6   1     1.095206404246   110.23033766   188.57396717
 H      7   6   1     1.100660636975   108.27729204    71.88006352
 H      8   3   2     1.098547431150   108.28115018    64.63941613
 H      8   3   2     1.096209162824   109.50184926   181.60321564
 O      3   2   1     1.437108163020   110.66505113   292.82901084
 H      3   2   1     1.097048469371   109.50898720   177.27180320
 C      1   2   3     1.354214877415   121.17504992   121.75435557
 C      6   1   2     1.337281297357   123.26018322   232.23183814
 H     16   6   1     1.086792764835   121.38253261   359.05017532
 H     16   6   1     1.087531812013   120.92667717   178.46538679
 C     15   1   2     1.444746995019   126.28216030   184.98444942
 H     15   1   2     1.089169605732   116.16053435     3.05212958
 C     19  15   1     1.350415836378   126.28704328   182.76864297
 H     19  15   1     1.087585377781   115.89298455     3.83611234
 C     21  19  15     1.507717586746   125.63000082     1.28441462
 C     23  21  19     1.540249062801   111.76198367   126.40841168
 H     23  21  19     1.093241177788   112.34649092     2.55138323
 H     23  21  19     1.101794696259   107.75830789   244.97382055
 C     24  23  21     1.533923852958   112.51755986    51.13978906
 H     24  23  21     1.097463781174   109.06036549   289.04393160
 H     24  23  21     1.096853778184   109.14912434   173.03592634
 C     27  24  23     1.535257493354   111.83140034   305.91913157
 H     27  24  23     1.094863776771   108.99419345   182.29894817
 H     27  24  23     1.100608304244   109.18009492    65.80171141
 C     21  19  15     1.497818102221   122.78407920   180.54019267
 H     33  21  19     1.105898813866   106.38007493   124.98385028
 C     33  21  19     1.524395033314   121.11696009     2.41405259
 H     13   3   2     0.967862739567   107.63768462    42.04033731
 C     35  33  21     1.548532751230   103.33346597   195.18393306
 H     35  33  21     1.095143777965   112.30900089    73.46367799
 H     35  33  21     1.095841261405   110.68517675   313.72572801
 C     30  27  24     1.555919027182   115.88930975   166.48516185
 H     37  35  33     1.093122973386   111.14378600   251.43479612
 H     37  35  33     1.096430846748   111.26424616   133.04396525
 H     40  30  27     1.101874131225   105.72506245   321.37210938
 C     40  30  27     1.534195800380   118.08151156    82.34606266
 C     30  27  24     1.535290752389   111.10729651   294.68976542
 H     45  30  27     1.094592917919   111.67192300   187.94561790
 H     45  30  27     1.094536894610   111.41716253    67.97097084
 H     45  30  27     1.095154837472   110.83555698   307.87610493
 H     44  40  30     1.101980542232   107.40640689    63.04318377
 C     44  40  30     1.539949684320   114.26223099   304.19649523
 C     44  40  30     1.513684785071   113.77787172   180.83180582
 C     51  44  40     1.333152295308   127.27184395    21.01105247
 H     51  44  40     1.091307309269   113.63160804   196.51793825
 H     52  51  44     1.088295980142   118.82805771   355.77192550
 C     52  51  44     1.509381943953   126.30374959   174.85517706
 C     55  52  51     1.529494509878   113.13829318    15.62340586
 C     55  52  51     1.556137224923   110.63246377   249.30006573
 H     55  52  51     1.104113334246   106.86815608   134.35110695
 H     57  55  52     1.101727152915   106.65767029    65.29317527
 C     57  55  52     1.532108506088   112.12735552   306.93092999
 C     57  55  52     1.532115613306   111.70765520   183.67877561
 H     56  55  52     1.096803331668   111.23614994   288.99770087
 H     56  55  52     1.092806851288   111.17947153   168.82297580
 H     56  55  52     1.094864656262   110.76141032    49.10986503
 H     60  57  55     1.093755208141   112.30753142    64.23221795
 H     60  57  55     1.098012599493   110.57111109   303.42989233
 H     60  57  55     1.095357035384   110.33044008   184.36037069
 H     61  57  55     1.093409767223   112.48024458   296.20062998
 H     61  57  55     1.095526249195   110.33465722   176.07238452
 H     61  57  55     1.097917525300   110.43833037    57.06039977
 H     50  44  40     1.092920891990   112.24819915    67.55433629
 H     50  44  40     1.096508978595   110.35155389   306.27335286
 H     50  44  40     1.095897908664   110.21485421   187.45705189

---------------------------
INTERNAL COORDINATES (A.U.)
---------------------------
 C      0   0   0     0.000000000000     0.00000000     0.00000000
 C      1   0   0     2.854038151914     0.00000000     0.00000000
 C      2   1   0     2.899228097796   110.37095225     0.00000000
 H      2   1   3     2.070914457174   110.77143661   237.88881492
 H      2   1   3     2.078788449719   109.81101399   118.70426427
 C      1   2   3     2.796396180586   113.83639714   305.60348919
 C      6   1   2     2.858927381783   114.22809945    50.32975007
 C      3   2   1     2.890466934430   110.13811349    56.86740893
 H      7   6   1     2.069640164141   110.23033766   188.57396717
 H      7   6   1     2.079947170271   108.27729204    71.88006352
 H      8   3   2     2.075953789997   108.28115018    64.63941613
 H      8   3   2     2.071535103233   109.50184926   181.60321564
 O      3   2   1     2.715740852931   110.66505113   292.82901084
 H      3   2   1     2.073121162749   109.50898720   177.27180320
 C      1   2   3     2.559095244795   121.17504992   121.75435557
 C      6   1   2     2.527095416019   123.26018322   232.23183814
 H     16   6   1     2.053740689865   121.38253261   359.05017532
 H     16   6   1     2.055137286631   120.92667717   178.46538679
 C     15   1   2     2.730176153391   126.28216030   184.98444942
 H     15   1   2     2.058232268225   116.16053435     3.05212958
 C     19  15   1     2.551916097665   126.28704328   182.76864297
 H     19  15   1     2.055238511263   115.89298455     3.83611234
 C     21  19  15     2.849173326247   125.63000082     1.28441462
 C     23  21  19     2.910648906723   111.76198367   126.40841168
 H     23  21  19     2.065926424345   112.34649092     2.55138323
 H     23  21  19     2.082090231737   107.75830789   244.97382055
 C     24  23  21     2.898695992379   112.51755986    51.13978906
 H     24  23  21     2.073905988316   109.06036549   289.04393160
 H     24  23  21     2.072753249725   109.14912434   173.03592634
 C     27  24  23     2.901216207489   111.83140034   305.91913157
 H     27  24  23     2.068992692048   108.99419345   182.29894817
 H     27  24  23     2.079848275741   109.18009492    65.80171141
 C     21  19  15     2.830466011628   122.78407920   180.54019267
 H     33  21  19     2.089845890035   106.38007493   124.98385028
 C     33  21  19     2.880689132872   121.11696009     2.41405259
 H     13   3   2     1.828995513009   107.63768462    42.04033731
 C     35  33  21     2.926302809231   103.33346597   195.18393306
 H     35  33  21     2.069521817622   112.30900089    73.46367799
 H     35  33  21     2.070839870305   110.68517675   313.72572801
 C     30  27  24     2.940260847931   115.88930975   166.48516185
 H     37  35  33     2.065703050397   111.14378600   251.43479612
 H     37  35  33     2.071954025137   111.26424616   133.04396525
 H     40  30  27     2.082240342067   105.72506245   321.37210938
 C     40  30  27     2.899209898531   118.08151156    82.34606266
 C     30  27  24     2.901279057957   111.10729651   294.68976542
 H     45  30  27     2.068480842996   111.67192300   187.94561790
 H     45  30  27     2.068374974286   111.41716253    67.97097084
 H     45  30  27     2.069542717060   110.83555698   307.87610493
 H     44  40  30     2.082441429728   107.40640689    63.04318377
 C     44  40  30     2.910083163384   114.26223099   304.19649523
 C     44  40  30     2.860449696867   113.77787172   180.83180582
 C     51  44  40     2.519292732941   127.27184395    21.01105247
 H     51  44  40     2.062271942466   113.63160804   196.51793825
 H     52  51  44     2.056581355117   118.82805771   355.77192550
 C     52  51  44     2.852318505556   126.30374959   174.85517706
 C     55  52  51     2.890325747005   113.13829318    15.62340586
 C     55  52  51     2.940673181905   110.63246377   249.30006573
 H     55  52  51     2.086471822536   106.86815608   134.35110695
 H     57  55  52     2.081962593314   106.65767029    65.29317527
 C     57  55  52     2.895265483958   112.12735552   306.93092999
 C     57  55  52     2.895278914652   111.70765520   183.67877561
 H     56  55  52     2.072657919626   111.23614994   288.99770087
 H     56  55  52     2.065105666207   111.17947153   168.82297580
 H     56  55  52     2.068994354044   110.76141032    49.10986503
 H     60  57  55     2.066897800937   112.30753142    64.23221795
 H     60  57  55     2.074943104637   110.57111109   303.42989233
 H     60  57  55     2.069924815740   110.33044008   184.36037069
 H     61  57  55     2.066245012205   112.48024458   296.20062998
 H     61  57  55     2.070244583500   110.33465722   176.07238452
 H     61  57  55     2.074763440450   110.43833037    57.06039977
 H     50  44  40     2.065321171903   112.24819915    67.55433629
 H     50  44  40     2.072101672930   110.35155389   306.27335286
 H     50  44  40     2.070946918111   110.21485421   187.45705189

---------------------
BASIS SET INFORMATION
---------------------
There are 3 groups of distinct atoms

 Group   1 Type C   : 7s4p contracted to 4s3p pattern {4111/211}
 Group   2 Type H   : 5s contracted to 3s pattern {311}
 Group   3 Type O   : 7s4p contracted to 4s3p pattern {4111/211}

Atom   0C    basis set group =>   1
Atom   1C    basis set group =>   1
Atom   2C    basis set group =>   1
Atom   3H    basis set group =>   2
Atom   4H    basis set group =>   2
Atom   5C    basis set group =>   1
Atom   6C    basis set group =>   1
Atom   7C    basis set group =>   1
Atom   8H    basis set group =>   2
Atom   9H    basis set group =>   2
Atom  10H    basis set group =>   2
Atom  11H    basis set group =>   2
Atom  12O    basis set group =>   3
Atom  13H    basis set group =>   2
Atom  14C    basis set group =>   1
Atom  15C    basis set group =>   1
Atom  16H    basis set group =>   2
Atom  17H    basis set group =>   2
Atom  18C    basis set group =>   1
Atom  19H    basis set group =>   2
Atom  20C    basis set group =>   1
Atom  21H    basis set group =>   2
Atom  22C    basis set group =>   1
Atom  23C    basis set group =>   1
Atom  24H    basis set group =>   2
Atom  25H    basis set group =>   2
Atom  26C    basis set group =>   1
Atom  27H    basis set group =>   2
Atom  28H    basis set group =>   2
Atom  29C    basis set group =>   1
Atom  30H    basis set group =>   2
Atom  31H    basis set group =>   2
Atom  32C    basis set group =>   1
Atom  33H    basis set group =>   2
Atom  34C    basis set group =>   1
Atom  35H    basis set group =>   2
Atom  36C    basis set group =>   1
Atom  37H    basis set group =>   2
Atom  38H    basis set group =>   2
Atom  39C    basis set group =>   1
Atom  40H    basis set group =>   2
Atom  41H    basis set group =>   2
Atom  42H    basis set group =>   2
Atom  43C    basis set group =>   1
Atom  44C    basis set group =>   1
Atom  45H    basis set group =>   2
Atom  46H    basis set group =>   2
Atom  47H    basis set group =>   2
Atom  48H    basis set group =>   2
Atom  49C    basis set group =>   1
Atom  50C    basis set group =>   1
Atom  51C    basis set group =>   1
Atom  52H    basis set group =>   2
Atom  53H    basis set group =>   2
Atom  54C    basis set group =>   1
Atom  55C    basis set group =>   1
Atom  56C    basis set group =>   1
Atom  57H    basis set group =>   2
Atom  58H    basis set group =>   2
Atom  59C    basis set group =>   1
Atom  60C    basis set group =>   1
Atom  61H    basis set group =>   2
Atom  62H    basis set group =>   2
Atom  63H    basis set group =>   2
Atom  64H    basis set group =>   2
Atom  65H    basis set group =>   2
Atom  66H    basis set group =>   2
Atom  67H    basis set group =>   2
Atom  68H    basis set group =>   2
Atom  69H    basis set group =>   2
Atom  70H    basis set group =>   2
Atom  71H    basis set group =>   2
Atom  72H    basis set group =>   2

-------------------------
BASIS SET IN INPUT FORMAT
-------------------------

 # Basis set for element : H 
 NewGTO H 
 S 3 
   1    1357.7500000000      0.0012928364
   2      54.3100000000      0.0588280685
   3       4.3448000000      0.9761499708
 S 1 
   1       0.6604910000      1.0000000000
 S 1 
   1       0.1366870000      1.0000000000
  end;

 # Basis set for element : C 
 NewGTO C 
 S 4 
   1  139534.0000000000      0.0001655246
   2    5581.3600000000      0.0074486101
   3     446.5090000000      0.1285821065
   4      67.4620000000      0.9218029311
 S 1 
   1      15.0674000000      1.0000000000
 S 1 
   1       3.9387600000      1.0000000000
 S 1 
   1       0.2999150000      1.0000000000
 P 2 
   1      28.3900000000      0.0816325586
   2       4.3676900000      0.9660360576
 P 1 
   1       0.8698170000      1.0000000000
 P 1 
   1       0.1889340000      1.0000000000
  end;

 # Basis set for element : O 
 NewGTO O 
 S 4 
   1  253789.0000000000      0.0001641076
   2   10151.6000000000      0.0074010921
   3     812.1250000000      0.1277711901
   4     122.6930000000      0.9223372164
 S 1 
   1      27.5608000000      1.0000000000
 S 1 
   1       7.3172600000      1.0000000000
 S 1 
   1       0.5792400000      1.0000000000
 P 2 
   1      53.4157000000      0.0793786106
   2       8.2177900000      0.9670506337
 P 1 
   1       1.6754400000      1.0000000000
 P 1 
   1       0.3506720000      1.0000000000
  end;

---------------------------------
AUXILIARY/J BASIS SET INFORMATION
---------------------------------
There are 3 groups of distinct atoms

 Group   1 Type C   : 12s5p4d2f1g contracted to 6s4p3d1f1g pattern {711111/2111/211/2/1}
 Group   2 Type H   : 5s2p1d contracted to 3s1p1d pattern {311/2/1}
 Group   3 Type O   : 12s5p4d2f1g contracted to 6s4p3d1f1g pattern {711111/2111/211/2/1}

Atom   0C    basis set group =>   1
Atom   1C    basis set group =>   1
Atom   2C    basis set group =>   1
Atom   3H    basis set group =>   2
Atom   4H    basis set group =>   2
Atom   5C    basis set group =>   1
Atom   6C    basis set group =>   1
Atom   7C    basis set group =>   1
Atom   8H    basis set group =>   2
Atom   9H    basis set group =>   2
Atom  10H    basis set group =>   2
Atom  11H    basis set group =>   2
Atom  12O    basis set group =>   3
Atom  13H    basis set group =>   2
Atom  14C    basis set group =>   1
Atom  15C    basis set group =>   1
Atom  16H    basis set group =>   2
Atom  17H    basis set group =>   2
Atom  18C    basis set group =>   1
Atom  19H    basis set group =>   2
Atom  20C    basis set group =>   1
Atom  21H    basis set group =>   2
Atom  22C    basis set group =>   1
Atom  23C    basis set group =>   1
Atom  24H    basis set group =>   2
Atom  25H    basis set group =>   2
Atom  26C    basis set group =>   1
Atom  27H    basis set group =>   2
Atom  28H    basis set group =>   2
Atom  29C    basis set group =>   1
Atom  30H    basis set group =>   2
Atom  31H    basis set group =>   2
Atom  32C    basis set group =>   1
Atom  33H    basis set group =>   2
Atom  34C    basis set group =>   1
Atom  35H    basis set group =>   2
Atom  36C    basis set group =>   1
Atom  37H    basis set group =>   2
Atom  38H    basis set group =>   2
Atom  39C    basis set group =>   1
Atom  40H    basis set group =>   2
Atom  41H    basis set group =>   2
Atom  42H    basis set group =>   2
Atom  43C    basis set group =>   1
Atom  44C    basis set group =>   1
Atom  45H    basis set group =>   2
Atom  46H    basis set group =>   2
Atom  47H    basis set group =>   2
Atom  48H    basis set group =>   2
Atom  49C    basis set group =>   1
Atom  50C    basis set group =>   1
Atom  51C    basis set group =>   1
Atom  52H    basis set group =>   2
Atom  53H    basis set group =>   2
Atom  54C    basis set group =>   1
Atom  55C    basis set group =>   1
Atom  56C    basis set group =>   1
Atom  57H    basis set group =>   2
Atom  58H    basis set group =>   2
Atom  59C    basis set group =>   1
Atom  60C    basis set group =>   1
Atom  61H    basis set group =>   2
Atom  62H    basis set group =>   2
Atom  63H    basis set group =>   2
Atom  64H    basis set group =>   2
Atom  65H    basis set group =>   2
Atom  66H    basis set group =>   2
Atom  67H    basis set group =>   2
Atom  68H    basis set group =>   2
Atom  69H    basis set group =>   2
Atom  70H    basis set group =>   2
Atom  71H    basis set group =>   2
Atom  72H    basis set group =>   2

-------------------------------------
AUXILIARY/J BASIS SET IN INPUT FORMAT
-------------------------------------

 # Auxiliary/J basis set for element : H 
 NewAuxJGTO H 
 S 3 
   1      15.6752927000      0.1007184237
   2       3.6063578000      0.3404257499
   3       1.2080016000      0.6491996172
 S 1 
   1       0.4726794000      1.0000000000
 S 1 
   1       0.2018100000      1.0000000000
 P 2 
   1       2.0281365000      0.5596620919
   2       0.5358730000      0.5596620919
 D 1 
   1       2.2165124000      1.0000000000
  end;

 # Auxiliary/J basis set for element : C 
 NewAuxJGTO C 
 S 7 
   1    1861.0916331000      0.0134602335
   2     642.9939764000      0.0299160374
   3     235.1105725000      0.1008649584
   4      90.7028894000      0.2370970548
   5      36.7794552000      0.3924037254
   6      15.6046273000      0.3195862154
   7       6.8907294000      0.0530104441
 S 1 
   1       3.1478850000     -1.0000000000
 S 1 
   1       1.4777287000      1.0000000000
 S 1 
   1       0.7076466000      1.0000000000
 S 1 
   1       0.3430122000      1.0000000000
 S 1 
   1       0.1669453000      1.0000000000
 P 2 
   1      13.5472892000     -0.6769313712
   2       5.4669419000     -0.3779500978
 P 1 
   1       2.1751721000      1.0000000000
 P 1 
   1       0.8582194000      1.0000000000
 P 1 
   1       0.3376720000      1.0000000000
 D 2 
   1       5.9287253000     -0.3533329857
   2       1.9809209000     -0.7456525731
 D 1 
   1       0.8055417000     -1.0000000000
 D 1 
   1       0.3531244000     -1.0000000000
 F 2 
   1       1.6755626000      0.6311076882
   2       0.5997536000      0.4968166032
 G 1 
   1       1.0024600000     -1.0000000000
  end;

 # Auxiliary/J basis set for element : O 
 NewAuxJGTO O 
 S 7 
   1    2876.8216605000      0.0168151159
   2    1004.7443032000      0.0340137548
   3     369.7579954000      0.1194951309
   4     142.9442404000      0.2664627624
   5      57.8366425000      0.4202764046
   6      24.3864983000      0.2765077335
   7      10.6622662000      0.0057008815
 S 1 
   1       4.8070437000     -1.0000000000
 S 1 
   1       2.2210770000      1.0000000000
 S 1 
   1       1.0447795000      1.0000000000
 S 1 
   1       0.4968425000      1.0000000000
 S 1 
   1       0.2371384000      1.0000000000
 P 2 
   1      64.2613382000     -0.2731534179
   2      16.3006076000     -0.8168011598
 P 1 
   1       4.3550542000      1.0000000000
 P 1 
   1       1.2019554000      1.0000000000
 P 1 
   1       0.3354196000      1.0000000000
 D 2 
   1       9.2146611000     -0.4661230638
   2       2.8435251000     -0.6600908911
 D 1 
   1       0.9955759000     -1.0000000000
 D 1 
   1       0.3649441000     -1.0000000000
 F 2 
   1       2.6420115000      0.5931563945
   2       0.7345613000      0.5931563945
 G 1 
   1       1.3931000000     -1.0000000000
  end;



           ************************************************************
           *        Program running with 4 parallel MPI-processes     *
           *              working on a common directory               *
           ************************************************************
------------------------------------------------------------------------------
                           ORCA GTO INTEGRAL CALCULATION
                           -- RI-GTO INTEGRALS CHOSEN --
------------------------------------------------------------------------------
------------------------------------------------------------------------------
                   ___                                                        
                  /   \      - P O W E R E D   B Y -                         
                 /     \                                                     
                 |  |  |   _    _      __       _____    __    __             
                 |  |  |  | |  | |    /  \     |  _  \  |  |  /  |          
                  \  \/   | |  | |   /    \    | | | |  |  | /  /          
                 / \  \   | |__| |  /  /\  \   | |_| |  |  |/  /          
                |  |  |   |  __  | /  /__\  \  |    /   |      \           
                |  |  |   | |  | | |   __   |  |    \   |  |\   \          
                \     /   | |  | | |  |  |  |  | |\  \  |  | \   \       
                 \___/    |_|  |_| |__|  |__|  |_| \__\ |__|  \__/        
                                                                              
                      - O R C A' S   B I G   F R I E N D -                    
                                      &                                       
                       - I N T E G R A L  F E E D E R -                       
                                                                              
 v1 FN, 2020, v2 2021                                                         
------------------------------------------------------------------------------


Reading SHARK input file inpJ.SHARKINP.tmp ... ok
----------------------
SHARK INTEGRAL PACKAGE
----------------------

Number of atoms                             ...     73
Number of basis functions                   ...    509
Number of shells                            ...    335
Maximum angular momentum                    ...      1
Integral batch strategy                     ... SHARK/LIBINT Hybrid
RI-J (if used) integral strategy            ... SPLIT-RIJ (Revised 2003 algorithm where possible)
Printlevel                                  ...      1
Contraction scheme used                     ... SEGMENTED contraction
Coulomb Range Separation                    ... NOT USED
Exchange Range Separation                   ... NOT USED
Finite Nucleus Model                        ... NOT USED
Auxiliary Coulomb fitting basis             ... AVAILABLE
   # of basis functions in Aux-J            ...   1905
   # of shells in Aux-J                     ...    655
   Maximum angular momentum in Aux-J        ...      4
Auxiliary J/K fitting basis                 ... NOT available
Auxiliary Correlation fitting basis         ... NOT available
Auxiliary 'external' fitting basis          ... NOT available
Integral threshold                          ...     3.000000e-11
Primitive cut-off                           ...     1.000000e-12
Primitive pair pre-selection threshold      ...     1.000000e-12

Calculating pre-screening integrals         ... done (  0.0 sec) Dimension = 335
Organizing shell pair data                  ... done (  0.1 sec)
Shell pair information
Total number of shell pairs                 ...     56280
Shell pairs after pre-screening             ...     21946
Total number of primitive shell pairs       ...    145865
Primitive shell pairs kept                  ...     37734
          la=0 lb=0:  11041 shell pairs
          la=1 lb=0:   9027 shell pairs
          la=1 lb=1:   1878 shell pairs

Calculating one electron integrals          ... done (  0.0 sec)
Calculating RI/J V-Matrix + Cholesky decomp.... done (  0.2 sec)
Calculating Nuclear repulsion               ... done (  0.0 sec) ENN=   2790.882068974634 Eh

SHARK setup successfully completed in   0.5 seconds

Maximum memory used throughout the entire GTOINT-calculation: 46.4 MB


           ************************************************************
           *        Program running with 4 parallel MPI-processes     *
           *              working on a common directory               *
           ************************************************************
-------------------------------------------------------------------------------
                                 ORCA SCF
-------------------------------------------------------------------------------

------------
SCF SETTINGS
------------
Hamiltonian:
 Density Functional     Method          .... DFT(GTOs)
 Exchange Functional    Exchange        .... PBE
   PBE kappa parameter   XKappa         ....  0.804000
   PBE mue parameter    XMuePBE         ....  0.219520
 Correlation Functional Correlation     .... PBE
   PBE beta parameter  CBetaPBE         ....  0.066725
 LDA part of GGA corr.  LDAOpt          .... PW91-LDA
 Gradients option       PostSCFGGA      .... off
 Hybrid DFT is turned on
   Fraction HF Exchange ScalHFX         ....  0.250000
   Scaling of DF-GGA-X  ScalDFX         ....  0.750000
   Scaling of DF-GGA-C  ScalDFC         ....  1.000000
   Scaling of DF-LDA-C  ScalLDAC        ....  1.000000
   Perturbative correction              ....  0.000000
   Density functional embedding theory  .... OFF
   NL short-range parameter             ....  6.900000
 RI-approximation to the Coulomb term is turned on
   Number of AuxJ basis functions       .... 1905
   RIJ-COSX (HFX calculated with COS-X)).... on


General Settings:
 Integral files         IntName         .... inpJ
 Hartree-Fock type      HFTyp           .... RHF
 Total Charge           Charge          ....    0
 Multiplicity           Mult            ....    1
 Number of Electrons    NEL             ....  220
 Basis Dimension        Dim             ....  509
 Nuclear Repulsion      ENuc            ....   2790.8820689746 Eh

Convergence Acceleration:
 DIIS                   CNVDIIS         .... on
   Start iteration      DIISMaxIt       ....    12
   Startup error        DIISStart       ....  0.200000
   # of expansion vecs  DIISMaxEq       ....     5
   Bias factor          DIISBfac        ....   1.050
   Max. coefficient     DIISMaxC        ....  10.000
 Trust-Rad. Augm. Hess. CNVTRAH         .... auto
   Auto Start mean grad. ratio tolernc. ....  1.125000
   Auto Start start iteration           ....    20
   Auto Start num. interpolation iter.  ....    10
   Max. Number of Micro iterations      ....    16
   Max. Number of Macro iterations      .... Maxiter - #DIIS iter
   Number of Davidson start vectors     ....     2
   Converg. threshold I  (grad. norm)   ....   1.000e-04
   Converg. threshold II (energy diff.) ....   1.000e-07
   Grad. Scal. Fac. for Micro threshold ....   0.100
   Minimum threshold for Micro iter.    ....   0.010
   NR start threshold (gradient norm)   ....   0.001
   Initial trust radius                 ....   0.400
   Minimum AH scaling param. (alpha)    ....   1.000
   Maximum AH scaling param. (alpha)    .... 1000.000
   Orbital update algorithm             .... Taylor
   White noise on init. David. guess    .... on
   Maximum white noise                  ....   0.010
   Quad. conv. algorithm                .... NR
 SOSCF                  CNVSOSCF        .... off
 Level Shifting         CNVShift        .... on
   Level shift para.    LevelShift      ....    0.2500
   Turn off err/grad.   ShiftErr        ....    0.0010
 Zerner damping         CNVZerner       .... off
 Static damping         CNVDamp         .... on
   Fraction old density DampFac         ....    0.7000
   Max. Damping (<1)    DampMax         ....    0.9800
   Min. Damping (>=0)   DampMin         ....    0.0000
   Turn off err/grad.   DampErr         ....    0.1000
 Fernandez-Rico         CNVRico         .... off

SCF Procedure:
 Maximum # iterations   MaxIter         ....   125
 SCF integral mode      SCFMode         .... Direct
   Integral package                     .... SHARK and LIBINT hybrid scheme
 Reset frequency        DirectResetFreq ....    20
 Integral Threshold     Thresh          ....  3.000e-11 Eh
 Primitive CutOff       TCut            ....  1.000e-12 Eh

Convergence Tolerance:
 Convergence Check Mode ConvCheckMode   .... Total+1el-Energy
 Convergence forced     ConvForced      .... 0
 Energy Change          TolE            ....  1.000e-07 Eh
 1-El. energy change                    ....  1.000e-04 Eh
 DIIS Error             TolErr          ....  1.000e-07


Diagonalization of the overlap matrix:
Smallest eigenvalue                        ... 7.514e-03
Time for diagonalization                   ...    0.036 sec
Threshold for overlap eigenvalues          ... 1.000e-08
Number of eigenvalues below threshold      ... 0
Time for construction of square roots      ...    0.029 sec
Total time needed                          ...    0.067 sec

Time for model grid setup =    0.754 sec

------------------------------
INITIAL GUESS: MODEL POTENTIAL
------------------------------
Loading Hartree-Fock densities                     ... done
Calculating cut-offs                               ... done
Initializing the effective Hamiltonian             ... done
Setting up the integral package (SHARK)            ... done
Starting the Coulomb interaction                   ... done (   0.4 sec)
Reading the grid                                   ... done
Mapping shells                                     ... done
Starting the XC term evaluation                    ... done (   0.2 sec)
  promolecular density results
     # of electrons  =    219.976615628
     EX              =   -164.432829531
     EC              =     -7.329309049
     EX+EC           =   -171.762138580
Transforming the Hamiltonian                       ... done (   0.0 sec)
Diagonalizing the Hamiltonian                      ... done (   0.0 sec)
Back transforming the eigenvectors                 ... done (   0.0 sec)
Now organizing SCF variables                       ... done
                      ------------------
                      INITIAL GUESS DONE (   1.4 sec)
                      ------------------
-------------------
DFT GRID GENERATION
-------------------

General Integration Accuracy     IntAcc      ... 4.388
Radial Grid Type                 RadialGrid  ... OptM3 with GC (2021)
Angular Grid (max. ang.)         AngularGrid ... 4 (Lebedev-302)
Angular grid pruning method      GridPruning ... 4 (adaptive)
Weight generation scheme         WeightScheme... Becke
Basis function cutoff            BFCut       ... 1.0000e-11
Integration weight cutoff        WCut        ... 1.0000e-14
Angular grids for H and He will be reduced by one unit
Partially contracted basis set               ... off
Rotationally invariant grid construction     ... off

Total number of grid points                  ...   309821
Total number of batches                      ...     4878
Average number of points per batch           ...       63
Average number of grid points per atom       ...     4244
Time for grid setup =    3.041 sec

--------------------
COSX GRID GENERATION
--------------------

GRIDX 1
-------
General Integration Accuracy     IntAcc      ... 3.816
Radial Grid Type                 RadialGrid  ... OptM3 with GC (2021)
Angular Grid (max. ang.)         AngularGrid ... 1 (Lebedev-50)
Angular grid pruning method      GridPruning ... 4 (adaptive)
Weight generation scheme         WeightScheme... Becke
Basis function cutoff            BFCut       ... 1.0000e-11
Integration weight cutoff        WCut        ... 1.0000e-14
Angular grids for H and He will be reduced by one unit
Partially contracted basis set               ... on
Rotationally invariant grid construction     ... off

Total number of grid points                  ...    39335
Total number of batches                      ...      653
Average number of points per batch           ...       60
Average number of grid points per atom       ...      539
UseSFitting                                  ... on

GRIDX 2
-------
General Integration Accuracy     IntAcc      ... 4.020
Radial Grid Type                 RadialGrid  ... OptM3 with GC (2021)
Angular Grid (max. ang.)         AngularGrid ... 2 (Lebedev-110)
Angular grid pruning method      GridPruning ... 4 (adaptive)
Weight generation scheme         WeightScheme... Becke
Basis function cutoff            BFCut       ... 1.0000e-11
Integration weight cutoff        WCut        ... 1.0000e-14
Angular grids for H and He will be reduced by one unit
Partially contracted basis set               ... on
Rotationally invariant grid construction     ... off

Total number of grid points                  ...    81334
Total number of batches                      ...     1312
Average number of points per batch           ...       61
Average number of grid points per atom       ...     1114
UseSFitting                                  ... on

GRIDX 3
-------
General Integration Accuracy     IntAcc      ... 4.338
Radial Grid Type                 RadialGrid  ... OptM3 with GC (2021)
Angular Grid (max. ang.)         AngularGrid ... 3 (Lebedev-194)
Angular grid pruning method      GridPruning ... 4 (adaptive)
Weight generation scheme         WeightScheme... Becke
Basis function cutoff            BFCut       ... 1.0000e-11
Integration weight cutoff        WCut        ... 1.0000e-14
Angular grids for H and He will be reduced by one unit
Partially contracted basis set               ... on
Rotationally invariant grid construction     ... off

Total number of grid points                  ...   176214
Total number of batches                      ...     2790
Average number of points per batch           ...       63
Average number of grid points per atom       ...     2414
UseSFitting                                  ... on

Time for X-Grid setup             =    2.907 sec


--------------------
CPCM SOLVATION MODEL
--------------------
CPCM parameters:
  Epsilon                                         ...       4.9000
  Refrac                                          ...       1.4500
  Rsolv                                           ...       1.3000
  Surface type                                    ... GAUSSIAN VDW
  Epsilon function type                           ...         CPCM
Radii:
 Radius for C  used is    3.8550 Bohr (=   2.0400 Ang.)
 Radius for H  used is    2.4944 Bohr (=   1.3200 Ang.)
 Radius for O  used is    3.4469 Bohr (=   1.8240 Ang.)
Calculating surface                               ...        done! (  0.0s)
GEPOL surface points                              ...         3591
GEPOL Volume                                      ...    3564.7412
GEPOL Surface-area                                ...    1769.3230
Calculating surface distance matrix               ...        done! (  0.1s)
Performing Cholesky decomposition & store         ...        done! (  0.4s)
Overall time for CPCM initialization              ...                 0.5s
--------------
SCF ITERATIONS
--------------
ITER       Energy         Delta-E        Max-DP      RMS-DP      [F,P]     Damp
               ***  Starting incremental Fock matrix formation  ***

  HOMO= 109 E= -4.000 eV LUMO=  7.702 eV gap=  11.701 eV
  0  -1165.0089279920   0.000000000000 0.09745563  0.00106406  0.1954864 0.7000

  HOMO= 109 E= -4.858 eV LUMO=  7.021 eV gap=  11.879 eV
  1  -1165.2274939623  -0.218565970355 0.06534342  0.00078338  0.0963376 0.7000
                               ***Turning on DIIS***

  HOMO= 109 E= -5.452 eV LUMO=  6.474 eV gap=  11.926 eV
  2  -1165.3282717395  -0.100777777186 0.10346474  0.00138842  0.0375525 0.0000

  HOMO= 109 E= -6.007 eV LUMO=  5.946 eV gap=  11.953 eV
  3  -1165.4725262201  -0.144254480624 0.05150321  0.00057067  0.0456234 0.0000

  HOMO= 109 E= -6.077 eV LUMO=  5.875 eV gap=  11.952 eV
  4  -1165.5080075791  -0.035481358927 0.01162539  0.00013413  0.0061793 0.0000

  HOMO= 109 E= -6.027 eV LUMO=  5.933 eV gap=  11.959 eV
  5  -1165.5088631884  -0.000855609350 0.00251175  0.00003798  0.0051616 0.0000

  HOMO= 109 E= -6.013 eV LUMO=  5.947 eV gap=  11.960 eV
  6  -1165.5089413196  -0.000078131196 0.00116996  0.00001170  0.0010483 0.0000

  HOMO= 109 E= -6.015 eV LUMO= -0.858 eV gap=   5.157 eV
  7  -1165.5089461329  -0.000004813249 0.00051630  0.00000596  0.0002368 0.0000
               *** Restarting incremental Fock matrix formation ***
                                   *** Resetting DIIS ***

  HOMO= 109 E= -6.014 eV LUMO= -0.856 eV gap=   5.158 eV
  8  -1165.5089587640  -0.000012631154 0.00029351  0.00000281  0.0001254 0.0000

  HOMO= 109 E= -6.014 eV LUMO= -0.856 eV gap=   5.158 eV
  9  -1165.5089588050  -0.000000040956 0.00013350  0.00000128  0.0001663 0.0000

  HOMO= 109 E= -6.014 eV LUMO= -0.857 eV gap=   5.158 eV
 10  -1165.5089589355  -0.000000130529 0.00006293  0.00000039  0.0000355 0.0000

  HOMO= 109 E= -6.014 eV LUMO= -0.856 eV gap=   5.158 eV
 11  -1165.5089589772  -0.000000041732 0.00002563  0.00000017  0.0000215 0.0000

  HOMO= 109 E= -6.014 eV LUMO= -0.856 eV gap=   5.158 eV
 12  -1165.5089589714   0.000000005837 0.00000705  0.00000005  0.0000035 0.0000
                 **** Energy Check signals convergence ****

               *****************************************************
               *                     SUCCESS                       *
               *           SCF CONVERGED AFTER  13 CYCLES          *
               *****************************************************

Old exchange energy                            =    -42.067614856 Eh
New exchange energy                            =    -42.067666217 Eh
Exchange energy change after final integration =     -0.000051361 Eh
Total energy after final integration           =  -1165.509010343 Eh
Final COS-X integration done in                =    13.584 sec

----------------
TOTAL SCF ENERGY
----------------

Total Energy       :        -1165.50901034 Eh          -31715.11254 eV

Components:
Nuclear Repulsion  :         2790.88206897 Eh           75943.76200 eV
Electronic Energy  :        -3956.39107932 Eh         -107658.87454 eV
One Electron Energy:        -7123.50776699 Eh         -193840.50100 eV
Two Electron Energy:         3167.11668767 Eh           86181.62646 eV
Max COSX asymmetry :            0.00000188 Eh               0.00005 eV
CPCM Dielectric    :           -0.01365311 Eh              -0.37152 eV

Virial components:
Potential Energy   :        -2322.40206506 Eh          -63195.77300 eV
Kinetic Energy     :         1156.89305472 Eh           31480.66046 eV
Virial Ratio       :            2.00744750


DFT components:
N(Alpha)           :      110.000171497196 electrons
N(Beta)            :      110.000171497196 electrons
N(Total)           :      220.000342994392 electrons
E(X)               :     -125.745433952638 Eh       
E(C)               :       -7.329277591680 Eh       
E(XC)              :     -133.074711544317 Eh       
DFET-embed. en.    :        0.000000000000 Eh       
CPCM Solvation Model Properties:
Surface-charge          :           -0.03436280
Charge-correction       :           -0.00008854 Eh              -0.00241 eV
Free-energy (cav+disp)  :  This term is not implemented in the current solvation scheme

---------------
SCF CONVERGENCE
---------------

  Last Energy change         ...   -1.0976e-08  Tolerance :   1.0000e-07
  Last MAX-Density change    ...    0.0000e+00  Tolerance :   1.0000e-05
  Last RMS-Density change    ...    0.0000e+00  Tolerance :   1.0000e-06
  Last DIIS Error            ...    2.3951e-06  Tolerance :   1.0000e-07

             **** THE GBW FILE WAS UPDATED (inpJ.gbw) ****
             **** DENSITY inpJ.scfp WAS UPDATED ****
             **** ENERGY FILE WAS UPDATED (inpJ.en.tmp) ****
             **** THE GBW FILE WAS UPDATED (inpJ.gbw) ****
             **** DENSITY inpJ.scfp WAS UPDATED ****
----------------
ORBITAL ENERGIES
----------------

  NO   OCC          E(Eh)            E(eV) 
   0   2.0000     -19.212218      -522.7910 
   1   2.0000     -10.300387      -280.2878 
   2   2.0000     -10.270352      -279.4705 
   3   2.0000     -10.268204      -279.4120 
   4   2.0000     -10.263933      -279.2958 
   5   2.0000     -10.257358      -279.1169 
   6   2.0000     -10.257041      -279.1083 
   7   2.0000     -10.251846      -278.9669 
   8   2.0000     -10.251680      -278.9624 
   9   2.0000     -10.250545      -278.9315 
  10   2.0000     -10.248048      -278.8636 
  11   2.0000     -10.247548      -278.8500 
  12   2.0000     -10.246055      -278.8093 
  13   2.0000     -10.244633      -278.7706 
  14   2.0000     -10.244445      -278.7655 
  15   2.0000     -10.243510      -278.7401 
  16   2.0000     -10.242824      -278.7214 
  17   2.0000     -10.241680      -278.6903 
  18   2.0000     -10.241470      -278.6846 
  19   2.0000     -10.241225      -278.6779 
  20   2.0000     -10.239821      -278.6397 
  21   2.0000     -10.234104      -278.4841 
  22   2.0000     -10.233797      -278.4758 
  23   2.0000     -10.232880      -278.4508 
  24   2.0000     -10.227021      -278.2914 
  25   2.0000     -10.224781      -278.2304 
  26   2.0000     -10.224705      -278.2284 
  27   2.0000     -10.224646      -278.2268 
  28   2.0000     -10.220599      -278.1166 
  29   2.0000      -1.043033       -28.3824 
  30   2.0000      -0.901475       -24.5304 
  31   2.0000      -0.882107       -24.0033 
  32   2.0000      -0.860165       -23.4063 
  33   2.0000      -0.845953       -23.0195 
  34   2.0000      -0.822440       -22.3797 
  35   2.0000      -0.814356       -22.1598 
  36   2.0000      -0.795840       -21.6559 
  37   2.0000      -0.794921       -21.6309 
  38   2.0000      -0.777759       -21.1639 
  39   2.0000      -0.758073       -20.6282 
  40   2.0000      -0.740179       -20.1413 
  41   2.0000      -0.733377       -19.9562 
  42   2.0000      -0.715290       -19.4640 
  43   2.0000      -0.702947       -19.1282 
  44   2.0000      -0.702313       -19.1109 
  45   2.0000      -0.695968       -18.9383 
  46   2.0000      -0.670455       -18.2440 
  47   2.0000      -0.663452       -18.0534 
  48   2.0000      -0.631929       -17.1957 
  49   2.0000      -0.622215       -16.9313 
  50   2.0000      -0.612477       -16.6663 
  51   2.0000      -0.607218       -16.5232 
  52   2.0000      -0.596514       -16.2320 
  53   2.0000      -0.586529       -15.9603 
  54   2.0000      -0.566736       -15.4217 
  55   2.0000      -0.541009       -14.7216 
  56   2.0000      -0.530683       -14.4406 
  57   2.0000      -0.529241       -14.4014 
  58   2.0000      -0.515032       -14.0147 
  59   2.0000      -0.511796       -13.9267 
  60   2.0000      -0.501122       -13.6362 
  61   2.0000      -0.493540       -13.4299 
  62   2.0000      -0.481745       -13.1090 
  63   2.0000      -0.478421       -13.0185 
  64   2.0000      -0.474065       -12.9000 
  65   2.0000      -0.468812       -12.7570 
  66   2.0000      -0.465117       -12.6565 
  67   2.0000      -0.460934       -12.5426 
  68   2.0000      -0.458925       -12.4880 
  69   2.0000      -0.450892       -12.2694 
  70   2.0000      -0.449549       -12.2328 
  71   2.0000      -0.442694       -12.0463 
  72   2.0000      -0.439954       -11.9718 
  73   2.0000      -0.433370       -11.7926 
  74   2.0000      -0.432500       -11.7689 
  75   2.0000      -0.421376       -11.4662 
  76   2.0000      -0.418393       -11.3851 
  77   2.0000      -0.415404       -11.3037 
  78   2.0000      -0.409413       -11.1407 
  79   2.0000      -0.403610       -10.9828 
  80   2.0000      -0.400891       -10.9088 
  81   2.0000      -0.399010       -10.8576 
  82   2.0000      -0.393935       -10.7195 
  83   2.0000      -0.389100       -10.5880 
  84   2.0000      -0.388222       -10.5641 
  85   2.0000      -0.381211       -10.3733 
  86   2.0000      -0.375162       -10.2087 
  87   2.0000      -0.373149       -10.1539 
  88   2.0000      -0.366702        -9.9785 
  89   2.0000      -0.362859        -9.8739 
  90   2.0000      -0.361208        -9.8290 
  91   2.0000      -0.359960        -9.7950 
  92   2.0000      -0.354825        -9.6553 
  93   2.0000      -0.345639        -9.4053 
  94   2.0000      -0.340758        -9.2725 
  95   2.0000      -0.339115        -9.2278 
  96   2.0000      -0.336668        -9.1612 
  97   2.0000      -0.333161        -9.0658 
  98   2.0000      -0.330911        -9.0046 
  99   2.0000      -0.329679        -8.9710 
 100   2.0000      -0.327385        -8.9086 
 101   2.0000      -0.325414        -8.8550 
 102   2.0000      -0.319020        -8.6810 
 103   2.0000      -0.315898        -8.5960 
 104   2.0000      -0.310647        -8.4531 
 105   2.0000      -0.300888        -8.1876 
 106   2.0000      -0.276344        -7.5197 
 107   2.0000      -0.274713        -7.4753 
 108   2.0000      -0.255566        -6.9543 
 109   2.0000      -0.221021        -6.0143 
 110   0.0000      -0.031473        -0.8564 
 111   0.0000       0.019509         0.5309 
 112   0.0000       0.028347         0.7714 
 113   0.0000       0.080133         2.1805 
 114   0.0000       0.089394         2.4325 
 115   0.0000       0.102459         2.7880 
 116   0.0000       0.104317         2.8386 
 117   0.0000       0.106871         2.9081 
 118   0.0000       0.109207         2.9717 
 119   0.0000       0.117879         3.2076 
 120   0.0000       0.119543         3.2529 
 121   0.0000       0.122043         3.3210 
 122   0.0000       0.124034         3.3751 
 123   0.0000       0.130489         3.5508 
 124   0.0000       0.134183         3.6513 
 125   0.0000       0.134417         3.6577 
 126   0.0000       0.139487         3.7956 
 127   0.0000       0.142005         3.8641 
 128   0.0000       0.144491         3.9318 
 129   0.0000       0.153065         4.1651 
 130   0.0000       0.156247         4.2517 
 131   0.0000       0.160880         4.3778 
 132   0.0000       0.162339         4.4175 
 133   0.0000       0.165345         4.4993 
 134   0.0000       0.167172         4.5490 
 135   0.0000       0.171349         4.6626 
 136   0.0000       0.173964         4.7338 
 137   0.0000       0.175317         4.7706 
 138   0.0000       0.177471         4.8292 
 139   0.0000       0.179437         4.8827 
 140   0.0000       0.181341         4.9346 
 141   0.0000       0.185322         5.0429 
 142   0.0000       0.186809         5.0833 
 143   0.0000       0.192042         5.2257 
 144   0.0000       0.195738         5.3263 
 145   0.0000       0.197699         5.3797 
 146   0.0000       0.201435         5.4813 
 147   0.0000       0.202455         5.5091 
 148   0.0000       0.203569         5.5394 
 149   0.0000       0.204809         5.5731 
 150   0.0000       0.207992         5.6598 
 151   0.0000       0.218553         5.9471 
 152   0.0000       0.221048         6.0150 
 153   0.0000       0.225550         6.1375 
 154   0.0000       0.228665         6.2223 
 155   0.0000       0.232438         6.3250 
 156   0.0000       0.241241         6.5645 
 157   0.0000       0.245333         6.6758 
 158   0.0000       0.248433         6.7602 
 159   0.0000       0.251950         6.8559 
 160   0.0000       0.258162         7.0249 
 161   0.0000       0.258762         7.0413 
 162   0.0000       0.263441         7.1686 
 163   0.0000       0.266196         7.2436 
 164   0.0000       0.269771         7.3408 
 165   0.0000       0.273217         7.4346 
 166   0.0000       0.275553         7.4982 
 167   0.0000       0.279244         7.5986 
 168   0.0000       0.281755         7.6670 
 169   0.0000       0.288500         7.8505 
 170   0.0000       0.295434         8.0392 
 171   0.0000       0.298141         8.1128 
 172   0.0000       0.302873         8.2416 
 173   0.0000       0.304581         8.2881 
 174   0.0000       0.310894         8.4599 
 175   0.0000       0.318559         8.6684 
 176   0.0000       0.326182         8.8759 
 177   0.0000       0.332005         9.0343 
 178   0.0000       0.344038         9.3618 
 179   0.0000       0.356079         9.6894 
 180   0.0000       0.362104         9.8534 
 181   0.0000       0.379667        10.3313 
 182   0.0000       0.382803        10.4166 
 183   0.0000       0.410585        11.1726 
 184   0.0000       0.420489        11.4421 
 185   0.0000       0.464801        12.6479 
 186   0.0000       0.483531        13.1575 
 187   0.0000       0.498701        13.5703 
 188   0.0000       0.505762        13.7625 
 189   0.0000       0.516135        14.0448 
 190   0.0000       0.523040        14.2327 
 191   0.0000       0.530389        14.4326 
 192   0.0000       0.555724        15.1220 
 193   0.0000       0.563474        15.3329 
 194   0.0000       0.568684        15.4747 
 195   0.0000       0.573772        15.6131 
 196   0.0000       0.574425        15.6309 
 197   0.0000       0.585272        15.9261 
 198   0.0000       0.591105        16.0848 
 199   0.0000       0.606319        16.4988 
 200   0.0000       0.615391        16.7456 
 201   0.0000       0.626075        17.0364 
 202   0.0000       0.627143        17.0654 
 203   0.0000       0.638594        17.3770 
 204   0.0000       0.643896        17.5213 
 205   0.0000       0.648769        17.6539 
 206   0.0000       0.652463        17.7544 
 207   0.0000       0.659981        17.9590 
 208   0.0000       0.666546        18.1376 
 209   0.0000       0.669195        18.2097 
 210   0.0000       0.677352        18.4317 
 211   0.0000       0.682938        18.5837 
 212   0.0000       0.688530        18.7359 
 213   0.0000       0.692647        18.8479 
 214   0.0000       0.703822        19.1520 
 215   0.0000       0.707901        19.2630 
 216   0.0000       0.711254        19.3542 
 217   0.0000       0.717102        19.5133 
 218   0.0000       0.720414        19.6035 
 219   0.0000       0.725689        19.7470 
 220   0.0000       0.731610        19.9081 
 221   0.0000       0.733381        19.9563 
 222   0.0000       0.738943        20.1077 
 223   0.0000       0.739837        20.1320 
 224   0.0000       0.744360        20.2551 
 225   0.0000       0.749219        20.3873 
 226   0.0000       0.753985        20.5170 
 227   0.0000       0.758531        20.6407 
 228   0.0000       0.761718        20.7274 
 229   0.0000       0.763610        20.7789 
 230   0.0000       0.766193        20.8492 
 231   0.0000       0.777647        21.1608 
 232   0.0000       0.780432        21.2366 
 233   0.0000       0.787750        21.4358 
 234   0.0000       0.790308        21.5054 
 235   0.0000       0.795603        21.6495 
 236   0.0000       0.798453        21.7270 
 237   0.0000       0.805908        21.9299 
 238   0.0000       0.811077        22.0705 
 239   0.0000       0.818264        22.2661 
 240   0.0000       0.820221        22.3193 
 241   0.0000       0.827325        22.5127 
 242   0.0000       0.835442        22.7335 
 243   0.0000       0.847854        23.0713 
 244   0.0000       0.852003        23.1842 
 245   0.0000       0.855588        23.2817 
 246   0.0000       0.860719        23.4214 
 247   0.0000       0.862880        23.4802 
 248   0.0000       0.863803        23.5053 
 249   0.0000       0.867693        23.6111 
 250   0.0000       0.871298        23.7092 
 251   0.0000       0.873418        23.7669 
 252   0.0000       0.874478        23.7958 
 253   0.0000       0.880578        23.9617 
 254   0.0000       0.883108        24.0306 
 255   0.0000       0.884412        24.0661 
 256   0.0000       0.887429        24.1482 
 257   0.0000       0.890851        24.2413 
 258   0.0000       0.893033        24.3007 
 259   0.0000       0.896374        24.3916 
 260   0.0000       0.902837        24.5674 
 261   0.0000       0.904732        24.6190 
 262   0.0000       0.907914        24.7056 
 263   0.0000       0.910814        24.7845 
 264   0.0000       0.912655        24.8346 
 265   0.0000       0.918219        24.9860 
 266   0.0000       0.923668        25.1343 
 267   0.0000       0.926929        25.2230 
 268   0.0000       0.930029        25.3074 
 269   0.0000       0.934431        25.4271 
 270   0.0000       0.940611        25.5953 
 271   0.0000       0.945496        25.7283 
 272   0.0000       0.948018        25.7969 
 273   0.0000       0.955904        26.0115 
 274   0.0000       0.961699        26.1692 
 275   0.0000       0.963258        26.2116 
 276   0.0000       0.966763        26.3070 
 277   0.0000       0.972342        26.4588 
 278   0.0000       0.974265        26.5111 
 279   0.0000       0.981817        26.7166 
 280   0.0000       0.992632        27.0109 
 281   0.0000       0.996852        27.1257 
 282   0.0000       1.004563        27.3356 
 283   0.0000       1.004681        27.3387 
 284   0.0000       1.019281        27.7360 
 285   0.0000       1.019631        27.7456 
 286   0.0000       1.030594        28.0439 
 287   0.0000       1.038261        28.2525 
 288   0.0000       1.040180        28.3047 
 289   0.0000       1.059822        28.8392 
 290   0.0000       1.073452        29.2101 
 291   0.0000       1.076389        29.2900 
 292   0.0000       1.078549        29.3488 
 293   0.0000       1.092272        29.7222 
 294   0.0000       1.101246        29.9664 
 295   0.0000       1.108132        30.1538 
 296   0.0000       1.115479        30.3537 
 297   0.0000       1.139324        31.0026 
 298   0.0000       1.142356        31.0851 
 299   0.0000       1.157885        31.5077 
 300   0.0000       1.161951        31.6183 
 301   0.0000       1.173935        31.9444 
 302   0.0000       1.210296        32.9338 
 303   0.0000       1.213790        33.0289 
 304   0.0000       1.226078        33.3633 
 305   0.0000       1.232337        33.5336 
 306   0.0000       1.246213        33.9112 
 307   0.0000       1.283256        34.9192 
 308   0.0000       1.294333        35.2206 
 309   0.0000       1.311474        35.6870 
 310   0.0000       1.328809        36.1587 
 311   0.0000       1.334503        36.3137 
 312   0.0000       1.351717        36.7821 
 313   0.0000       1.368811        37.2472 
 314   0.0000       1.411943        38.4209 
 315   0.0000       1.490627        40.5620 
 316   0.0000       1.527066        41.5536 
 317   0.0000       1.560550        42.4647 
 318   0.0000       1.591768        43.3142 
 319   0.0000       1.675779        45.6003 
 320   0.0000       6.202057       168.7665 
 321   0.0000       6.231989       169.5811 
 322   0.0000       6.248353       170.0263 
 323   0.0000       6.269357       170.5979 
 324   0.0000       6.287872       171.1017 
 325   0.0000       6.297765       171.3709 
 326   0.0000       6.300999       171.4589 
 327   0.0000       6.313190       171.7906 
 328   0.0000       6.322976       172.0569 
 329   0.0000       6.324319       172.0935 
 330   0.0000       6.341488       172.5607 
 331   0.0000       6.350616       172.8091 
 332   0.0000       6.361399       173.1025 
 333   0.0000       6.376866       173.5234 
 334   0.0000       6.385923       173.7698 
 335   0.0000       6.390067       173.8826 
 336   0.0000       6.398978       174.1250 
 337   0.0000       6.407974       174.3698 
 338   0.0000       6.415292       174.5690 
 339   0.0000       6.422483       174.7646 
 340   0.0000       6.427983       174.9143 
 341   0.0000       6.443057       175.3245 
 342   0.0000       6.455257       175.6565 
 343   0.0000       6.466323       175.9576 
 344   0.0000       6.473156       176.1435 
 345   0.0000       6.483194       176.4167 
 346   0.0000       6.485770       176.4868 
 347   0.0000       6.494303       176.7190 
 348   0.0000       6.508681       177.1102 
 349   0.0000       6.512303       177.2088 
 350   0.0000       6.527080       177.6109 
 351   0.0000       6.534741       177.8193 
 352   0.0000       6.540930       177.9877 
 353   0.0000       6.545411       178.1097 
 354   0.0000       6.548437       178.1920 
 355   0.0000       6.553821       178.3385 
 356   0.0000       6.559868       178.5031 
 357   0.0000       6.566433       178.6817 
 358   0.0000       6.571821       178.8283 
 359   0.0000       6.575116       178.9180 
 360   0.0000       6.583766       179.1534 
 361   0.0000       6.585419       179.1984 
 362   0.0000       6.592838       179.4003 
 363   0.0000       6.597180       179.5184 
 364   0.0000       6.602735       179.6695 
 365   0.0000       6.608432       179.8246 
 366   0.0000       6.610826       179.8897 
 367   0.0000       6.613204       179.9544 
 368   0.0000       6.614256       179.9831 
 369   0.0000       6.619613       180.1288 
 370   0.0000       6.627984       180.3566 
 371   0.0000       6.628861       180.3805 
 372   0.0000       6.632046       180.4672 
 373   0.0000       6.634312       180.5288 
 374   0.0000       6.635472       180.5604 
[...]
     69 H        0.000      0.000      0.000      0.000      0.000      0.000
     70 H        0.000      0.000      0.000     -0.000      0.001      0.020
     71 H        0.000      0.000      0.000      0.000      0.001      0.015
     72 H        0.000      0.000      0.000      0.000      0.003      0.036
                 25 H       27 H       28 H       30 H       31 H       33 H  
      3 H        0.073     -0.003      0.002      0.000      0.000      0.086
      4 H        2.373     -0.104      0.065      0.000      0.000      2.633
      8 H        0.134      0.000      0.000      0.000      0.000      0.124
      9 H       -0.257      0.013      0.000      0.000      0.000     -0.305
     10 H        0.000      0.000      0.000      0.000      0.000      0.000
     11 H        0.000      0.000      0.000      0.000      0.000      0.000
     13 H       -0.039      0.000      0.000      0.000      0.000      0.000
     16 H       -0.260      0.013     -0.004     -0.028     -0.002     -0.302
     17 H       -0.231      0.012      0.000      0.000      0.000     -0.287
     19 H        0.888     -0.042      0.064      0.060      0.005      0.974
     21 H       -2.891      0.188      0.678     -0.221     -0.027     -2.498
     24 H      -13.635      4.288      2.354      0.705     -0.482     -0.176
     25 H        0.000     13.006      5.216     -0.617     -0.357     -2.292
     27 H       13.006      0.000    -13.568      3.940     13.041      0.065
     28 H        5.216    -13.568      0.000      2.706      4.078      0.280
     30 H       -0.617      3.940      2.706      0.000    -13.020      0.021
     31 H       -0.357     13.041      4.078    -13.020      0.000     -0.316
     33 H       -2.292      0.065      0.280      0.021     -0.316      0.000
     35 H       -0.025      0.001     -0.001      0.000     -0.000     -0.033
     37 H        0.273      0.006     -0.035      0.540     -0.040      6.213
     38 H        0.189      0.002     -0.028     -0.022      0.118     12.243
     40 H       -0.014      0.023      0.142     -0.001     -0.038     -0.245
     41 H        0.010      0.020     -0.029      0.012      0.088     -0.391
     42 H       -0.018      0.006     -0.007     -0.265     -0.394     -0.224
     45 H       -0.061     -0.114     -0.147     -0.170      1.782     -0.487
     46 H       -0.011     -0.191      0.031     -0.205     -0.490     -0.163
     47 H        0.013      0.042      0.062     -0.348      0.041      0.870
     48 H       -0.014      0.031      0.021      0.036      0.017     -0.001
     52 H       -0.002     -0.001      0.010     -0.009      0.002      0.017
     53 H       -0.000      0.000     -0.001      0.000     -0.000     -0.003
     57 H        0.000      0.000      0.000     -0.001     -0.000     -0.000
     58 H        0.000      0.000      0.000      0.000      0.000     -0.000
     61 H        0.000      0.000      0.000      0.000      0.000      0.000
     62 H        0.000      0.000      0.000      0.000      0.000      0.000
     63 H        0.000      0.000      0.000      0.000      0.000      0.000
     64 H       -0.000      0.000      0.000     -0.000     -0.000     -0.000
     65 H        0.000      0.000      0.000     -0.000      0.000     -0.000
     66 H        0.000      0.000      0.000      0.000     -0.000     -0.000
     67 H        0.000      0.000      0.000      0.000      0.000      0.000
     68 H        0.000      0.000      0.000      0.000      0.000      0.000
     69 H        0.000      0.000      0.000      0.000      0.000      0.000
     70 H        0.003     -0.004     -0.007     -0.474     -0.103      0.005
     71 H        0.000     -0.005     -0.005      0.044      0.001      0.002
     72 H        0.000     -0.008     -0.010      0.046     -0.063      0.007
                 35 H       37 H       38 H       40 H       41 H       42 H  
      3 H       -0.271     -0.001     -0.001      0.000      0.000      0.000
      4 H       -0.649     -0.044     -0.023      0.000      0.000      0.000
      8 H       -0.017     -0.003     -0.002      0.000      0.000      0.000
      9 H       -0.128      0.005      0.003     -0.000      0.001      0.000
     10 H       -0.391     -0.000     -0.000      0.000      0.000      0.000
     11 H       -0.147     -0.002     -0.001      0.000      0.000      0.000
     13 H       12.413      0.000      0.000      0.000      0.000      0.000
     16 H       -0.002      0.004      0.004     -0.000      0.001     -0.001
     17 H       -0.001      0.005      0.004     -0.001      0.000      0.000
     19 H        0.039     -0.008      0.089      0.011     -0.007      0.004
     21 H       -0.014      0.040     -0.500     -0.009      0.060     -0.024
     24 H       -0.001     -0.052     -0.080     -0.022      0.074     -0.024
     25 H       -0.025      0.273      0.189     -0.014      0.010     -0.018
     27 H        0.001      0.006      0.002      0.023      0.020      0.006
     28 H       -0.001     -0.035     -0.028      0.142     -0.029     -0.007
     30 H        0.000      0.540     -0.022     -0.001      0.012     -0.265
     31 H       -0.000     -0.040      0.118     -0.038      0.088     -0.394
     33 H       -0.033      6.213     12.243     -0.245     -0.391     -0.224
     35 H        0.000      0.000     -0.000      0.000      0.000      0.000
     37 H        0.000      0.000    -12.071      9.423      2.249     -0.249
     38 H       -0.000    -12.071      0.000      7.157     11.229     -0.454
     40 H        0.000      9.423      7.157      0.000    -13.947      9.596
     41 H        0.000      2.249     11.229    -13.947      0.000      8.095
     42 H        0.000     -0.249     -0.454      9.596      8.095      0.000
     45 H       -0.000      0.099     -0.065     -0.102     -0.041     -0.090
     46 H        0.000      0.053      0.034     -0.072      0.017      0.983
     47 H        0.000     -0.171      0.008      0.043      0.034     -0.396
     48 H        0.000      0.138      0.003     -0.154     -0.440     10.637
     52 H        0.000     -0.007      0.002     -0.030      0.059     -0.570
     53 H        0.000      0.007      0.009     -0.271     -0.025     -0.420
     57 H        0.000     -0.003     -0.006      0.005      0.013      0.049
     58 H        0.000      0.000      0.000      0.000     -0.001      0.000
     61 H        0.000     -0.000     -0.000      0.002      0.000     -0.006
     62 H        0.000      0.000      0.000     -0.000     -0.001     -0.001
     63 H        0.000     -0.000     -0.000     -0.000      0.000      0.003
     64 H        0.000     -0.000      0.000     -0.001     -0.001     -0.002
     65 H        0.000     -0.000     -0.000     -0.000      0.000     -0.001
     66 H        0.000     -0.000      0.000     -0.000     -0.000     -0.000
     67 H        0.000      0.000      0.000     -0.000      0.000      0.001
     68 H        0.000      0.000      0.000      0.000      0.001     -0.001
     69 H        0.000      0.000      0.000     -0.000     -0.000      0.001
     70 H        0.000     -0.016     -0.002      0.036     -0.001     -0.155
     71 H        0.000     -0.025      0.031      0.001     -0.065     -0.341
     72 H        0.000      0.061      0.010     -0.043     -0.017     -0.437
                 45 H       46 H       47 H       48 H       52 H       53 H  
      3 H        0.001     -0.000     -0.001      0.000      0.000      0.000
      4 H        0.027     -0.021      0.000      0.000      0.000      0.000
      8 H        0.001     -0.001      0.000      0.000      0.000      0.000
      9 H       -0.003      0.003      0.000      0.000      0.000      0.000
     10 H        0.000     -0.000      0.000      0.000      0.000      0.000
     11 H        0.000      0.000      0.000      0.000      0.000      0.000
     13 H        0.000      0.000      0.000      0.000      0.000      0.000
     16 H       -0.003      0.002      0.002     -0.002      0.000      0.000
     17 H       -0.003      0.001      0.001     -0.001      0.000      0.000
     19 H        0.010     -0.011     -0.008      0.005      0.000      0.000
     21 H       -0.022      0.039      0.008     -0.015      0.001     -0.000
     24 H       -0.023     -0.022     -0.015      0.003      0.000     -0.000
     25 H       -0.061     -0.011      0.013     -0.014     -0.002     -0.000
     27 H       -0.114     -0.191      0.042      0.031     -0.001      0.000
     28 H       -0.147      0.031      0.062      0.021      0.010     -0.001
     30 H       -0.170     -0.205     -0.348      0.036     -0.009      0.000
     31 H        1.782     -0.490      0.041      0.017      0.002     -0.000
     33 H       -0.487     -0.163      0.870     -0.001      0.017     -0.003
     35 H       -0.000      0.000      0.000      0.000      0.000      0.000
     37 H        0.099      0.053     -0.171      0.138     -0.007      0.007
     38 H       -0.065      0.034      0.008      0.003      0.002      0.009
     40 H       -0.102     -0.072      0.043     -0.154     -0.030     -0.271
     41 H       -0.041      0.017      0.034     -0.440      0.059     -0.025
     42 H       -0.090      0.983     -0.396     10.637     -0.570     -0.420
     45 H        0.000    -13.600    -13.092     -0.230      0.015     -0.000
     46 H      -13.600      0.000    -12.983     -0.138      0.012      0.002
     47 H      -13.092    -12.983      0.000     -0.042      0.009     -0.005
     48 H       -0.230     -0.138     -0.042      0.000      5.741     -2.034
     52 H        0.015      0.012      0.009      5.741      0.000     17.544
     53 H       -0.000      0.002     -0.005     -2.034     17.544      0.000
     57 H        0.004      0.000      0.006      2.451     -2.199      5.362
     58 H       -0.000      0.000     -0.000     -0.095      0.155     -0.191
     61 H        0.000      0.000      0.000      0.028     -0.209     -0.544
     62 H        0.002      0.000      0.000      0.094     -0.247      0.663
     63 H        0.000      0.001      0.000     -0.031     -0.197     -0.390
     64 H        0.000      0.001      0.000      0.007      0.036     -0.132
     65 H        0.000      0.000      0.000      0.014      0.017     -0.023
     66 H        0.000      0.000      0.000     -0.015      0.125      0.109
     67 H        0.000      0.000      0.000      0.017     -0.012      0.039
     68 H        0.000      0.000      0.000      0.052     -0.079      0.032
     69 H        0.000      0.000      0.000     -0.006      0.016      0.007
     70 H       -0.027     -0.075     -0.308      5.464      0.003     -0.404
     71 H        0.022     -0.035     -0.056     12.421     -0.238      0.141
     72 H       -0.012     -0.029     -0.019      1.952     -0.222     -0.053
                 57 H       58 H       61 H       62 H       63 H       64 H  
      3 H        0.000      0.000      0.000      0.000      0.000      0.000
      4 H        0.000      0.000      0.000      0.000      0.000      0.000
      8 H        0.000      0.000      0.000      0.000      0.000      0.000
      9 H        0.000      0.000      0.000      0.000      0.000      0.000
     10 H        0.000      0.000      0.000      0.000      0.000      0.000
     11 H        0.000      0.000      0.000      0.000      0.000      0.000
     13 H        0.000      0.000      0.000      0.000      0.000      0.000
     16 H        0.000      0.000      0.000      0.000      0.000      0.000
     17 H        0.000      0.000      0.000      0.000      0.000      0.000
     19 H        0.000      0.000      0.000      0.000      0.000      0.000
     21 H        0.000      0.000      0.000      0.000      0.000      0.000
     24 H        0.000      0.000      0.000      0.000      0.000      0.000
     25 H        0.000      0.000      0.000      0.000      0.000     -0.000
     27 H        0.000      0.000      0.000      0.000      0.000      0.000
     28 H        0.000      0.000      0.000      0.000      0.000      0.000
     30 H       -0.001      0.000      0.000      0.000      0.000     -0.000
     31 H       -0.000      0.000      0.000      0.000      0.000     -0.000
     33 H       -0.000     -0.000      0.000      0.000      0.000     -0.000
     35 H        0.000      0.000      0.000      0.000      0.000      0.000
     37 H       -0.003      0.000     -0.000      0.000     -0.000     -0.000
     38 H       -0.006      0.000     -0.000      0.000     -0.000      0.000
     40 H        0.005      0.000      0.002     -0.000     -0.000     -0.001
     41 H        0.013     -0.001      0.000     -0.001      0.000     -0.001
     42 H        0.049      0.000     -0.006     -0.001      0.003     -0.002
     45 H        0.004     -0.000      0.000      0.002      0.000      0.000
     46 H        0.000      0.000      0.000      0.000      0.001      0.001
     47 H        0.006     -0.000      0.000      0.000      0.000      0.000
     48 H        2.451     -0.095      0.028      0.094     -0.031      0.007
     52 H       -2.199      0.155     -0.209     -0.247     -0.197      0.036
     53 H        5.362     -0.191     -0.544      0.663     -0.390     -0.132
     57 H        0.000      9.781     12.692      4.968      2.065     -0.202
     58 H        9.781      0.000     -0.358     -0.205     -0.424      4.222
     61 H       12.692     -0.358      0.000    -12.728    -12.424      0.060
     62 H        4.968     -0.205    -12.728      0.000    -13.419      0.028
     63 H        2.065     -0.424    -12.424    -13.419      0.000      0.006
     64 H       -0.202      4.222      0.060      0.028      0.006      0.000
     65 H       -0.389     12.650      0.032      0.044     -0.058    -12.074
     66 H       -0.425      2.442     -0.023      0.013      0.724    -13.025
     67 H       -0.242      4.262     -0.016     -0.232      0.016      2.905
     68 H       -0.473      2.396      0.012     -0.002     -0.077      0.159
     69 H       -0.375     12.793      0.080     -0.005      0.018     -0.380
     70 H        0.284     -0.038     -0.006     -0.014     -0.018     -0.000
     71 H       -0.105      0.005      0.000     -0.002      0.002     -0.004
     72 H       -0.001     -0.004      0.000     -0.002     -0.003     -0.000
                 65 H       66 H       67 H       68 H       69 H       70 H  
      3 H        0.000      0.000      0.000      0.000      0.000      0.000
      4 H        0.000      0.000      0.000      0.000      0.000      0.000
      8 H        0.000      0.000      0.000      0.000      0.000      0.000
      9 H        0.000      0.000      0.000      0.000      0.000      0.000
     10 H        0.000      0.000      0.000      0.000      0.000      0.000
     11 H        0.000      0.000      0.000      0.000      0.000      0.000
     13 H        0.000      0.000      0.000      0.000      0.000      0.000
     16 H        0.000      0.000      0.000      0.000      0.000      0.000
     17 H        0.000      0.000      0.000      0.000      0.000      0.000
     19 H        0.000      0.000      0.000      0.000      0.000     -0.000
     21 H        0.000      0.000      0.000      0.000      0.000      0.001
     24 H        0.000      0.000      0.000      0.000      0.000      0.020
     25 H        0.000      0.000      0.000      0.000      0.000      0.003
     27 H        0.000      0.000      0.000      0.000      0.000     -0.004
     28 H        0.000      0.000      0.000      0.000      0.000     -0.007
     30 H       -0.000      0.000      0.000      0.000      0.000     -0.474
     31 H        0.000     -0.000      0.000      0.000      0.000     -0.103
     33 H       -0.000     -0.000      0.000      0.000      0.000      0.005
     35 H        0.000      0.000      0.000      0.000      0.000      0.000
     37 H       -0.000     -0.000      0.000      0.000      0.000     -0.016
     38 H       -0.000      0.000      0.000      0.000      0.000     -0.002
     40 H       -0.000     -0.000     -0.000      0.000     -0.000      0.036
     41 H        0.000     -0.000      0.000      0.001     -0.000     -0.001
     42 H       -0.001     -0.000      0.001     -0.001      0.001     -0.155
     45 H        0.000      0.000      0.000      0.000      0.000     -0.027
     46 H        0.000      0.000      0.000      0.000      0.000     -0.075
     47 H        0.000      0.000      0.000      0.000      0.000     -0.308
     48 H        0.014     -0.015      0.017      0.052     -0.006      5.464
     52 H        0.017      0.125     -0.012     -0.079      0.016      0.003
     53 H       -0.023      0.109      0.039      0.032      0.007     -0.404
     57 H       -0.389     -0.425     -0.242     -0.473     -0.375      0.284
     58 H       12.650      2.442      4.262      2.396     12.793     -0.038
     61 H        0.032     -0.023     -0.016      0.012      0.080     -0.006
     62 H        0.044      0.013     -0.232     -0.002     -0.005     -0.014
     63 H       -0.058      0.724      0.016     -0.077      0.018     -0.018
     64 H      -12.074    -13.025      2.905      0.159     -0.380     -0.000
     65 H        0.000    -12.819     -0.381     -0.228     -0.286      0.009
     66 H      -12.819      0.000      0.207     -0.277     -0.226     -0.003
     67 H       -0.381      0.207      0.000    -13.138    -12.088     -0.002
     68 H       -0.228     -0.277    -13.138      0.000    -12.813      0.000
     69 H       -0.286     -0.226    -12.088    -12.813      0.000      0.000
     70 H        0.009     -0.003     -0.002      0.000      0.000      0.000
     71 H       -0.002      0.001     -0.000     -0.007      0.001    -11.498
     72 H        0.001     -0.001     -0.000      0.008      0.001    -13.463
                 71 H       72 H  
      3 H        0.000      0.000
      4 H        0.000      0.000
      8 H        0.000      0.000
      9 H        0.000      0.000
     10 H        0.000      0.000
     11 H        0.000      0.000
     13 H        0.000      0.000
     16 H        0.000      0.000
     17 H        0.000      0.000
     19 H        0.000      0.000
     21 H        0.001      0.003
     24 H        0.015      0.036
     25 H        0.000      0.000
     27 H       -0.005     -0.008
     28 H       -0.005     -0.010
     30 H        0.044      0.046
     31 H        0.001     -0.063
     33 H        0.002      0.007
     35 H        0.000      0.000
     37 H       -0.025      0.061
     38 H        0.031      0.010
     40 H        0.001     -0.043
     41 H       -0.065     -0.017
     42 H       -0.341     -0.437
     45 H        0.022     -0.012
     46 H       -0.035     -0.029
     47 H       -0.056     -0.019
     48 H       12.421      1.952
     52 H       -0.238     -0.222
     53 H        0.141     -0.053
     57 H       -0.105     -0.001
     58 H        0.005     -0.004
     61 H        0.000      0.000
     62 H       -0.002     -0.002
     63 H        0.002     -0.003
     64 H       -0.004     -0.000
     65 H       -0.002      0.001
     66 H        0.001     -0.001
     67 H       -0.000     -0.000
     68 H       -0.007      0.008
     69 H        0.001      0.001
     70 H      -11.498    -13.463
     71 H        0.000    -13.089
     72 H      -13.089      0.000

Maximum memory used throughout the entire EPRNMR-calculation: 987.7 MB

Timings for individual modules:

Sum of individual times         ...      389.121 sec (=   6.485 min)
GTO integral calculation        ...        0.728 sec (=   0.012 min)   0.2 %
SCF iterations                  ...      103.381 sec (=   1.723 min)  26.6 %
EPR/NMR calculation             ...      285.011 sec (=   4.750 min)  73.2 %
                             ****ORCA TERMINATED NORMALLY****
TOTAL RUN TIME: 0 days 0 hours 6 minutes 29 seconds 516 msec
