
                                 *****************
                                 * O   R   C   A *
                                 *****************

                                            #,                                       
                                            ###                                      
                                            ####                                     
                                            #####                                    
                                            ######                                   
                                           ########,                                 
                                     ,,################,,,,,                         
                               ,,#################################,,                 
                          ,,##########################################,,             
                       ,#########################################, ''#####,          
                    ,#############################################,,   '####,        
                  ,##################################################,,,,####,       
                ,###########''''           ''''###############################       
              ,#####''   ,,,,##########,,,,          '''####'''          '####       
            ,##' ,,,,###########################,,,                        '##       
           ' ,,###''''                  '''############,,,                           
         ,,##''                                '''############,,,,        ,,,,,,###''
      ,#''                                            '''#######################'''  
     '                                                          ''''####''''         
             ,#######,   #######,   ,#######,      ##                                
            ,#'     '#,  ##    ##  ,#'     '#,    #''#        ######   ,####,        
            ##       ##  ##   ,#'  ##            #'  '#       #        #'  '#        
            ##       ##  #######   ##           ,######,      #####,   #    #        
            '#,     ,#'  ##    ##  '#,     ,#' ,#      #,         ##   #,  ,#        
             '#######'   ##     ##  '#######'  #'      '#     #####' # '####'        



                  #######################################################
                  #                        -***-                        #
                  #          Department of theory and spectroscopy      #
                  #    Directorship and core code : Frank Neese         #
                  #        Max Planck Institute fuer Kohlenforschung    #
                  #                Kaiser Wilhelm Platz 1               #
                  #                 D-45470 Muelheim/Ruhr               #
                  #                      Germany                        #
                  #                                                     #
                  #                  All rights reserved                #
                  #                        -***-                        #
                  #######################################################


                         Program Version 5.0.2 -  RELEASE  -


 With contributions from (in alphabetic order):
   Daniel Aravena         : Magnetic Suceptibility
   Michael Atanasov       : Ab Initio Ligand Field Theory (pilot matlab implementation)
   Alexander A. Auer      : GIAO ZORA, VPT2 properties, NMR spectrum
   Ute Becker             : Parallelization
   Giovanni Bistoni       : ED, misc. LED, open-shell LED, HFLD
   Martin Brehm           : Molecular dynamics
   Dmytro Bykov           : SCF Hessian
   Vijay G. Chilkuri      : MRCI spin determinant printing, contributions to CSF-ICE
   Dipayan Datta          : RHF DLPNO-CCSD density
   Achintya Kumar Dutta   : EOM-CC, STEOM-CC
   Dmitry Ganyushin       : Spin-Orbit,Spin-Spin,Magnetic field MRCI
   Miquel Garcia          : C-PCM and meta-GGA Hessian, CC/C-PCM, Gaussian charge scheme
   Yang Guo               : DLPNO-NEVPT2, F12-NEVPT2, CIM, IAO-localization
   Andreas Hansen         : Spin unrestricted coupled pair/coupled cluster methods
   Benjamin Helmich-Paris : MC-RPA, TRAH-SCF, COSX integrals
   Lee Huntington         : MR-EOM, pCC
   Robert Izsak           : Overlap fitted RIJCOSX, COSX-SCS-MP3, EOM
   Marcus Kettner         : VPT2
   Christian Kollmar      : KDIIS, OOCD, Brueckner-CCSD(T), CCSD density, CASPT2, CASPT2-K
   Simone Kossmann        : Meta GGA functionals, TD-DFT gradient, OOMP2, MP2 Hessian
   Martin Krupicka        : Initial AUTO-CI
   Lucas Lang             : DCDCAS
   Marvin Lechner         : AUTO-CI (C++ implementation), FIC-MRCC
   Dagmar Lenk            : GEPOL surface, SMD
   Dimitrios Liakos       : Extrapolation schemes; Compound Job, initial MDCI parallelization
   Dimitrios Manganas     : Further ROCIS development; embedding schemes
   Dimitrios Pantazis     : SARC Basis sets
   Anastasios Papadopoulos: AUTO-CI, single reference methods and gradients
   Taras Petrenko         : DFT Hessian,TD-DFT gradient, ASA, ECA, R-Raman, ABS, FL, XAS/XES, NRVS
   Peter Pinski           : DLPNO-MP2, DLPNO-MP2 Gradient
   Christoph Reimann      : Effective Core Potentials
   Marius Retegan         : Local ZFS, SOC
   Christoph Riplinger    : Optimizer, TS searches, QM/MM, DLPNO-CCSD(T), (RO)-DLPNO pert. Triples
   Tobias Risthaus        : Range-separated hybrids, TD-DFT gradient, RPA, STAB
   Michael Roemelt        : Original ROCIS implementation
   Masaaki Saitow         : Open-shell DLPNO-CCSD energy and density
   Barbara Sandhoefer     : DKH picture change effects
   Avijit Sen             : IP-ROCIS
   Kantharuban Sivalingam : CASSCF convergence, NEVPT2, FIC-MRCI
   Bernardo de Souza      : ESD, SOC TD-DFT
   Georgi Stoychev        : AutoAux, RI-MP2 NMR, DLPNO-MP2 response
   Willem Van den Heuvel  : Paramagnetic NMR
   Boris Wezisla          : Elementary symmetry handling
   Frank Wennmohs         : Technical directorship


 We gratefully acknowledge several colleagues who have allowed us to
 interface, adapt or use parts of their codes:
   Stefan Grimme, W. Hujo, H. Kruse, P. Pracht,  : VdW corrections, initial TS optimization,
                  C. Bannwarth, S. Ehlert          DFT functionals, gCP, sTDA/sTD-DF
   Ed Valeev, F. Pavosevic, A. Kumar             : LibInt (2-el integral package), F12 methods
   Garnet Chan, S. Sharma, J. Yang, R. Olivares  : DMRG
   Ulf Ekstrom                                   : XCFun DFT Library
   Mihaly Kallay                                 : mrcc  (arbitrary order and MRCC methods)
   Jiri Pittner, Ondrej Demel                    : Mk-CCSD
   Frank Weinhold                                : gennbo (NPA and NBO analysis)
   Christopher J. Cramer and Donald G. Truhlar   : smd solvation model
   Lars Goerigk                                  : TD-DFT with DH, B97 family of functionals
   V. Asgeirsson, H. Jonsson                     : NEB implementation
   FAccTs GmbH                                   : IRC, NEB, NEB-TS, DLPNO-Multilevel, CI-OPT
                                                   MM, QMMM, 2- and 3-layer-ONIOM, Crystal-QMMM,
                                                   LR-CPCM, SF, NACMEs, symmetry and pop. for TD-DFT,
                                                   nearIR, NL-DFT gradient (VV10), updates on ESD,
                                                   ML-optimized integration grids
   S Lehtola, MJT Oliveira, MAL Marques          : LibXC Library
   Liviu Ungur et al                             : ANISO software


 Your calculation uses the libint2 library for the computation of 2-el integrals
 For citations please refer to: http://libint.valeyev.net

 Your ORCA version has been built with support for libXC version: 5.1.0
 For citations please refer to: https://tddft.org/programs/libxc/

 This ORCA versions uses:
   CBLAS   interface :  Fast vector & matrix operations
   LAPACKE interface :  Fast linear algebra routines
   SCALAPACK package :  Parallel linear algebra routines
   Shared memory     :  Shared parallel matrices
   BLAS/LAPACK       :  OpenBLAS 0.3.15  USE64BITINT DYNAMIC_ARCH NO_AFFINITY Zen SINGLE_THREADED
        Core in use  :  Zen
   Copyright (c) 2011-2014, The OpenBLAS Project


Your calculation utilizes the atom-pairwise dispersion correction
based on tight binding partial charges (D4)
Cite in your paper:
E.Caldeweyher, C.Bannwarth, S.Grimme, J.Chem.Phys., (2017), 147, 034112.
E.Caldeweyher, S.Ehlert, A.Hansen, H.Neugebauer, S.Grimme, J.Chem.Phys., (2018), in progress.
   

================================================================================

----- Orbital basis set information -----
Your calculation utilizes the basis: pcSseg-1
   F. Jensen, J. Chem. Theory Comput. 11, 132 (2015).

----- AuxJ basis set information -----
Your calculation utilizes the auxiliary basis: def2/J
   F. Weigend, Phys. Chem. Chem. Phys. 8, 1057 (2006).

================================================================================
                                        WARNINGS
                       Please study these warnings very carefully!
================================================================================



WARNING: Found flag for RIJCOSX approximation but no HF exchange needed!
  ===> : RIJCOSX  will be disabled and Split-RI-J is turned on

INFO   : the flag for use of the SHARK integral package has been found!

================================================================================
                                       INPUT FILE
================================================================================
NAME = inpS
|  1> ! revTPSS
|  2> ! D4
|  3> ! pcSseg-1
|  4> ! def2/J RIJCOSX
|  5> ! DEFGRID2
|  6> ! scfconv7
|  7> ! smallprint printgap noloewdin
|  8> ! NOSOSCF
|  9> %MaxCore 4000
| 10> %output
| 11>        print[P_BondOrder_M] 1
| 12>        print[P_Mayer] 1
| 13>        print[P_basis] 2
| 14> end
| 15> %pal
| 16>     nprocs 4
| 17> end
| 18> ! CPCM(chloroform)
| 19> *xyz 0 1
| 20> C   -5.1689377700   0.0063993000  -0.4132372400
| 21> C   -6.5642456000  -0.5494681200  -0.5716961300
| 22> C   -7.5185013300   0.1082638900   0.4335754300
| 23> H   -6.5671460500  -1.6368823100  -0.4357676800
| 24> H   -6.9393772300  -0.3325716100  -1.5828027500
| 25> C   -5.0992597900   1.4818353000  -0.5027327200
| 26> C   -6.0885270000   2.2050412100   0.3844691200
| 27> C   -7.5054491400   1.6273999400   0.2557066300
| 28> H   -6.0877780200   3.2765110000   0.1576895000
| 29> H   -5.7582931500   2.0975819400   1.4289077000
| 30> H   -7.9085220900   1.8613466300  -0.7390836000
| 31> H   -8.1682788400   2.0883828800   0.9972091900
| 32> O   -7.1809525900  -0.2729831500   1.7774472300
| 33> H   -8.5360403300  -0.2694091400   0.2739107500
| 34> C   -4.1197251700  -0.8025576900  -0.1328099900
| 35> C   -4.2646347100   2.1282097700  -1.3236604200
| 36> H   -3.5731885700   1.5898670800  -1.9664729100
| 37> H   -4.2624481100   3.2144476400  -1.3766505200
| 38> C   -2.7648152100  -0.3818309800   0.1401404000
| 39> H   -4.3357317300  -1.8688687200  -0.0816985100
| 40> C   -1.7075296100  -1.1903327600   0.3683836100
| 41> H   -2.5996621600   0.6924643400   0.1782978300
| 42> C   -1.7354697700  -2.6977303600   0.3548136300
| 43> C   -0.6699470300  -3.2801213000  -0.5927354500
| 44> H   -2.7199578900  -3.0928493900   0.0905403500
| 45> H   -1.5121961100  -3.0471794700   1.3755906600
| 46> C    0.7263735900  -2.7003141500  -0.3338246900
| 47> H   -0.9675597500  -3.0837565500  -1.6306633400
| 48> H   -0.6428635200  -4.3705105400  -0.4769511700
| 49> C    0.7247002600  -1.1657198900  -0.3789160200
| 50> H    1.4274520700  -3.1206997400  -1.0621732400
| 51> H    1.0704097400  -3.0171140300   0.6624762700
| 52> C   -0.3337721200  -0.6673126900   0.6559587000
| 53> H   -0.0204476400  -1.1235775400   1.6133835500
| 54> C   -0.0666550700   0.8298796500   0.7600922500
| 55> H   -6.2166179600  -0.2476359000   1.8560253500
| 56> C    1.4759392600   0.9249823100   0.6635940700
| 57> H   -0.4591176900   1.2586145600   1.6882621500
| 58> H   -0.5404924400   1.3662560500  -0.0697550700
| 59> C    1.9958180700  -0.4680916100   0.1854050900
| 60> H    1.9155022800   1.1936789300   1.6277021100
| 61> H    1.7828002100   1.7038134000  -0.0445154500
| 62> H    2.2928189900  -1.0571358900   1.0679830700
| 63> C    3.2177617300  -0.3405513500  -0.7334768000
| 64> C    0.3892439600  -0.6543425600  -1.7871347500
| 65> H    0.5214335700   0.4293892200  -1.8657794700
| 66> H   -0.6482604200  -0.8760878600  -2.0562531200
| 67> H    1.0373937500  -1.1218006200  -2.5359664600
| 68> H    2.9241896900   0.2924314300  -1.5864184000
| 69> C    3.7195576900  -1.6781450300  -1.3083585200
| 70> C    4.4045924400   0.3348927700  -0.0804456100
| 71> C    4.6437775100   0.4618707200   1.2249134000
| 72> H    5.1565607300   0.6813263500  -0.7914161500
| 73> H    3.8959392500   0.1085770300   1.9322391000
| 74> C    5.8866309200   1.0438898600   1.8532468900
| 75> C    6.7405431700   1.8431192300   0.8676406100
| 76> C    6.7125598000  -0.0663321000   2.5651540100
| 77> H    5.5512452800   1.7313468800   2.6494790000
| 78> H    7.0652229200  -0.7515179800   1.7777838600
| 79> C    5.8650747600  -0.8696865800   3.5569943000
| 80> C    7.9331064800   0.5114622200   3.2888927600
| 81> H    7.2336037400   1.1833846300   0.1433346800
| 82> H    7.5175251000   2.4092981500   1.3872244100
| 83> H    6.1247926800   2.5567316700   0.3105614100
| 84> H    5.0660710200  -1.4293145500   3.0623125700
| 85> H    5.4053849000  -0.2039682400   4.2993796400
| 86> H    6.4904194600  -1.5893505400   4.0962853400
| 87> H    8.6499776000   0.9676723700   2.6007699400
| 88> H    8.4582322500  -0.2771961200   3.8388370400
| 89> H    7.6228416400   1.2753067400   4.0139446000
| 90> H    3.0083816400  -2.1192183300  -2.0113229900
| 91> H    3.9029398400  -2.3958491500  -0.4999009000
| 92> H    4.6647372300  -1.5298308000  -1.8428028600
| 93> *
| 94> %eprnmr
| 95>  Nuclei = all H { shift }
| 96>  origin giao
| 97>  giao_2el giao_2el_same_as_scf
| 98>  giao_1el giao_1el_analytic
| 99> end
|100> 
|101>                          ****END OF INPUT****
================================================================================

                       ****************************
                       * Single Point Calculation *
                       ****************************

---------------------------------
CARTESIAN COORDINATES (ANGSTROEM)
---------------------------------
  C     -5.168938    0.006399   -0.413237
  C     -6.564246   -0.549468   -0.571696
  C     -7.518501    0.108264    0.433575
  H     -6.567146   -1.636882   -0.435768
  H     -6.939377   -0.332572   -1.582803
  C     -5.099260    1.481835   -0.502733
  C     -6.088527    2.205041    0.384469
  C     -7.505449    1.627400    0.255707
  H     -6.087778    3.276511    0.157690
  H     -5.758293    2.097582    1.428908
  H     -7.908522    1.861347   -0.739084
  H     -8.168279    2.088383    0.997209
  O     -7.180953   -0.272983    1.777447
  H     -8.536040   -0.269409    0.273911
  C     -4.119725   -0.802558   -0.132810
  C     -4.264635    2.128210   -1.323660
  H     -3.573189    1.589867   -1.966473
  H     -4.262448    3.214448   -1.376651
  C     -2.764815   -0.381831    0.140140
  H     -4.335732   -1.868869   -0.081699
  C     -1.707530   -1.190333    0.368384
  H     -2.599662    0.692464    0.178298
  C     -1.735470   -2.697730    0.354814
  C     -0.669947   -3.280121   -0.592735
  H     -2.719958   -3.092849    0.090540
  H     -1.512196   -3.047179    1.375591
  C      0.726374   -2.700314   -0.333825
  H     -0.967560   -3.083757   -1.630663
  H     -0.642864   -4.370511   -0.476951
  C      0.724700   -1.165720   -0.378916
  H      1.427452   -3.120700   -1.062173
  H      1.070410   -3.017114    0.662476
  C     -0.333772   -0.667313    0.655959
  H     -0.020448   -1.123578    1.613384
  C     -0.066655    0.829880    0.760092
  H     -6.216618   -0.247636    1.856025
  C      1.475939    0.924982    0.663594
  H     -0.459118    1.258615    1.688262
  H     -0.540492    1.366256   -0.069755
  C      1.995818   -0.468092    0.185405
  H      1.915502    1.193679    1.627702
  H      1.782800    1.703813   -0.044515
  H      2.292819   -1.057136    1.067983
  C      3.217762   -0.340551   -0.733477
  C      0.389244   -0.654343   -1.787135
  H      0.521434    0.429389   -1.865779
  H     -0.648260   -0.876088   -2.056253
  H      1.037394   -1.121801   -2.535966
  H      2.924190    0.292431   -1.586418
  C      3.719558   -1.678145   -1.308359
  C      4.404592    0.334893   -0.080446
  C      4.643778    0.461871    1.224913
  H      5.156561    0.681326   -0.791416
  H      3.895939    0.108577    1.932239
  C      5.886631    1.043890    1.853247
  C      6.740543    1.843119    0.867641
  C      6.712560   -0.066332    2.565154
  H      5.551245    1.731347    2.649479
  H      7.065223   -0.751518    1.777784
  C      5.865075   -0.869687    3.556994
  C      7.933106    0.511462    3.288893
  H      7.233604    1.183385    0.143335
  H      7.517525    2.409298    1.387224
  H      6.124793    2.556732    0.310561
  H      5.066071   -1.429315    3.062313
  H      5.405385   -0.203968    4.299380
  H      6.490419   -1.589351    4.096285
  H      8.649978    0.967672    2.600770
  H      8.458232   -0.277196    3.838837
  H      7.622842    1.275307    4.013945
  H      3.008382   -2.119218   -2.011323
  H      3.902940   -2.395849   -0.499901
  H      4.664737   -1.529831   -1.842803

----------------------------
CARTESIAN COORDINATES (A.U.)
----------------------------
  NO LB      ZA    FRAG     MASS         X           Y           Z
   0 C     6.0000    0    12.011   -9.767877    0.012093   -0.780905
   1 C     6.0000    0    12.011  -12.404626   -1.038344   -1.080349
   2 C     6.0000    0    12.011  -14.207908    0.204589    0.819339
   3 H     1.0000    0     1.008  -12.410108   -3.093259   -0.823482
   4 H     1.0000    0     1.008  -13.113523   -0.628469   -2.991064
   5 C     6.0000    0    12.011   -9.636204    2.800263   -0.950027
   6 C     6.0000    0    12.011  -11.505649    4.166924    0.726541
   7 C     6.0000    0    12.011  -14.183243    3.075340    0.483216
   8 H     1.0000    0     1.008  -11.504233    6.191708    0.297990
   9 H     1.0000    0     1.008  -10.881597    3.963855    2.700244
  10 H     1.0000    0     1.008  -14.944941    3.517435   -1.396666
  11 H     1.0000    0     1.008  -15.435810    3.946472    1.884452
  12 O     8.0000    0    15.999  -13.570034   -0.515863    3.358888
  13 H     1.0000    0     1.008  -16.130778   -0.509109    0.517616
  14 C     6.0000    0    12.011   -7.785152   -1.516614   -0.250975
  15 C     6.0000    0    12.011   -8.058992    4.021734   -2.501356
  16 H     1.0000    0     1.008   -6.752348    3.004413   -3.716095
  17 H     1.0000    0     1.008   -8.054860    6.074426   -2.601492
  18 C     6.0000    0    12.011   -5.224744   -0.721556    0.264827
  19 H     1.0000    0     1.008   -8.193346   -3.531650   -0.154388
  20 C     6.0000    0    12.011   -3.226763   -2.249403    0.696144
  21 H     1.0000    0     1.008   -4.912650    1.308568    0.336934
  22 C     6.0000    0    12.011   -3.279563   -5.097972    0.670501
  23 C     6.0000    0    12.011   -1.266016   -6.198531   -1.120108
  24 H     1.0000    0     1.008   -5.139976   -5.844638    0.171096
  25 H     1.0000    0     1.008   -2.857637   -5.758335    2.599490
  26 C     6.0000    0    12.011    1.372647   -5.102854   -0.630837
  27 H     1.0000    0     1.008   -1.828423   -5.827455   -3.081507
  28 H     1.0000    0     1.008   -1.214836   -8.259068   -0.901307
  29 C     6.0000    0    12.011    1.369485   -2.202891   -0.716048
  30 H     1.0000    0     1.008    2.697493   -5.897268   -2.007217
  31 H     1.0000    0     1.008    2.022781   -5.701519    1.251899
  32 C     6.0000    0    12.011   -0.630738   -1.261038    1.239582
  33 H     1.0000    0     1.008   -0.038640   -2.123254    3.048853
  34 C     6.0000    0    12.011   -0.125960    1.568245    1.436366
  35 H     1.0000    0     1.008  -11.747705   -0.467964    3.507380
  36 C     6.0000    0    12.011    2.789121    1.747963    1.254011
  37 H     1.0000    0     1.008   -0.867607    2.378437    3.190353
  38 H     1.0000    0     1.008   -1.021383    2.581850   -0.131818
  39 C     6.0000    0    12.011    3.771550   -0.884565    0.350365
  40 H     1.0000    0     1.008    3.619775    2.255726    3.075911
  41 H     1.0000    0     1.008    3.369004    3.219741   -0.084122
  42 H     1.0000    0     1.008    4.332800   -1.997697    2.018196
  43 C     6.0000    0    12.011    6.080688   -0.643549   -1.386070
  44 C     6.0000    0    12.011    0.735564   -1.236528   -3.377195
  45 H     1.0000    0     1.008    0.985367    0.811428   -3.525812
  46 H     1.0000    0     1.008   -1.225035   -1.655566   -3.885755
  47 H     1.0000    0     1.008    1.960390   -2.119896   -4.792282
  48 H     1.0000    0     1.008    5.525918    0.552615   -2.997896
  49 C     6.0000    0    12.011    7.028945   -3.171235   -2.472439
  50 C     6.0000    0    12.011    8.323473    0.632856   -0.152020
  51 C     6.0000    0    12.011    8.775468    0.872809    2.314751
  52 H     1.0000    0     1.008    9.744488    1.287520   -1.495560
  53 H     1.0000    0     1.008    7.362258    0.205181    3.651403
  54 C     6.0000    0    12.011   11.124120    1.972666    3.502129
  55 C     6.0000    0    12.011   12.737781    3.482991    1.639603
  56 C     6.0000    0    12.011   12.684900   -0.125350    4.847439
  57 H     1.0000    0     1.008   10.490333    3.271771    5.006790
  58 H     1.0000    0     1.008   13.351336   -1.420163    3.359525
  59 C     6.0000    0    12.011   11.083385   -1.643469    6.721745
  60 C     6.0000    0    12.011   14.991399    0.966524    6.215107
  61 H     1.0000    0     1.008   13.669530    2.236273    0.270863
  62 H     1.0000    0     1.008   14.206064    4.552914    2.621474
  63 H     1.0000    0     1.008   11.574181    4.831523    0.586876
  64 H     1.0000    0     1.008    9.573487   -2.701013    5.786932
  65 H     1.0000    0     1.008   10.214697   -0.385444    8.124650
  66 H     1.0000    0     1.008   12.265115   -3.003437    7.740857
  67 H     1.0000    0     1.008   16.346089    1.828636    4.914743
  68 H     1.0000    0     1.008   15.983743   -0.523825    7.254351
  69 H     1.0000    0     1.008   14.405083    2.409980    7.585256
  70 H     1.0000    0     1.008    5.685017   -4.004742   -3.800850
  71 H     1.0000    0     1.008    7.375487   -4.527499   -0.944676
  72 H     1.0000    0     1.008    8.815076   -2.890961   -3.482393

--------------------------------
INTERNAL COORDINATES (ANGSTROEM)
--------------------------------
 C      0   0   0     0.000000000000     0.00000000     0.00000000
 C      1   0   0     1.510291941612     0.00000000     0.00000000
 C      2   1   0     1.534205431017   110.37095225     0.00000000
 H      2   1   3     1.095880731076   110.77143661   237.88881492
 H      2   1   3     1.100047468469   109.81101399   118.70426427
 C      1   2   3     1.479789124143   113.83639714   305.60348919
 C      6   1   2     1.512879210624   114.22809945    50.32975007
 C      3   2   1     1.529569223045   110.13811349    56.86740893
 H      7   6   1     1.095206404246   110.23033766   188.57396717
 H      7   6   1     1.100660636975   108.27729204    71.88006352
 H      8   3   2     1.098547431150   108.28115018    64.63941613
 H      8   3   2     1.096209162824   109.50184926   181.60321564
 O      3   2   1     1.437108163020   110.66505113   292.82901084
 H      3   2   1     1.097048469371   109.50898720   177.27180320
 C      1   2   3     1.354214877415   121.17504992   121.75435557
 C      6   1   2     1.337281297357   123.26018322   232.23183814
 H     16   6   1     1.086792764835   121.38253261   359.05017532
 H     16   6   1     1.087531812013   120.92667717   178.46538679
 C     15   1   2     1.444746995019   126.28216030   184.98444942
 H     15   1   2     1.089169605732   116.16053435     3.05212958
 C     19  15   1     1.350415836378   126.28704328   182.76864297
 H     19  15   1     1.087585377781   115.89298455     3.83611234
 C     21  19  15     1.507717586746   125.63000082     1.28441462
 C     23  21  19     1.540249062801   111.76198367   126.40841168
 H     23  21  19     1.093241177788   112.34649092     2.55138323
 H     23  21  19     1.101794696259   107.75830789   244.97382055
 C     24  23  21     1.533923852958   112.51755986    51.13978906
 H     24  23  21     1.097463781174   109.06036549   289.04393160
 H     24  23  21     1.096853778184   109.14912434   173.03592634
 C     27  24  23     1.535257493354   111.83140034   305.91913157
 H     27  24  23     1.094863776771   108.99419345   182.29894817
 H     27  24  23     1.100608304244   109.18009492    65.80171141
 C     21  19  15     1.497818102221   122.78407920   180.54019267
 H     33  21  19     1.105898813866   106.38007493   124.98385028
 C     33  21  19     1.524395033314   121.11696009     2.41405259
 H     13   3   2     0.967862739567   107.63768462    42.04033731
 C     35  33  21     1.548532751230   103.33346597   195.18393306
 H     35  33  21     1.095143777965   112.30900089    73.46367799
 H     35  33  21     1.095841261405   110.68517675   313.72572801
 C     30  27  24     1.555919027182   115.88930975   166.48516185
 H     37  35  33     1.093122973386   111.14378600   251.43479612
 H     37  35  33     1.096430846748   111.26424616   133.04396525
 H     40  30  27     1.101874131225   105.72506245   321.37210938
 C     40  30  27     1.534195800380   118.08151156    82.34606266
 C     30  27  24     1.535290752389   111.10729651   294.68976542
 H     45  30  27     1.094592917919   111.67192300   187.94561790
 H     45  30  27     1.094536894610   111.41716253    67.97097084
 H     45  30  27     1.095154837472   110.83555698   307.87610493
 H     44  40  30     1.101980542232   107.40640689    63.04318377
 C     44  40  30     1.539949684320   114.26223099   304.19649523
 C     44  40  30     1.513684785071   113.77787172   180.83180582
 C     51  44  40     1.333152295308   127.27184395    21.01105247
 H     51  44  40     1.091307309269   113.63160804   196.51793825
 H     52  51  44     1.088295980142   118.82805771   355.77192550
 C     52  51  44     1.509381943953   126.30374959   174.85517706
 C     55  52  51     1.529494509878   113.13829318    15.62340586
 C     55  52  51     1.556137224923   110.63246377   249.30006573
 H     55  52  51     1.104113334246   106.86815608   134.35110695
 H     57  55  52     1.101727152915   106.65767029    65.29317527
 C     57  55  52     1.532108506088   112.12735552   306.93092999
 C     57  55  52     1.532115613306   111.70765520   183.67877561
 H     56  55  52     1.096803331668   111.23614994   288.99770087
 H     56  55  52     1.092806851288   111.17947153   168.82297580
 H     56  55  52     1.094864656262   110.76141032    49.10986503
 H     60  57  55     1.093755208141   112.30753142    64.23221795
 H     60  57  55     1.098012599493   110.57111109   303.42989233
 H     60  57  55     1.095357035384   110.33044008   184.36037069
 H     61  57  55     1.093409767223   112.48024458   296.20062998
 H     61  57  55     1.095526249195   110.33465722   176.07238452
 H     61  57  55     1.097917525300   110.43833037    57.06039977
 H     50  44  40     1.092920891990   112.24819915    67.55433629
 H     50  44  40     1.096508978595   110.35155389   306.27335286
 H     50  44  40     1.095897908664   110.21485421   187.45705189

---------------------------
INTERNAL COORDINATES (A.U.)
---------------------------
 C      0   0   0     0.000000000000     0.00000000     0.00000000
 C      1   0   0     2.854038151914     0.00000000     0.00000000
 C      2   1   0     2.899228097796   110.37095225     0.00000000
 H      2   1   3     2.070914457174   110.77143661   237.88881492
 H      2   1   3     2.078788449719   109.81101399   118.70426427
 C      1   2   3     2.796396180586   113.83639714   305.60348919
 C      6   1   2     2.858927381783   114.22809945    50.32975007
 C      3   2   1     2.890466934430   110.13811349    56.86740893
 H      7   6   1     2.069640164141   110.23033766   188.57396717
 H      7   6   1     2.079947170271   108.27729204    71.88006352
 H      8   3   2     2.075953789997   108.28115018    64.63941613
 H      8   3   2     2.071535103233   109.50184926   181.60321564
 O      3   2   1     2.715740852931   110.66505113   292.82901084
 H      3   2   1     2.073121162749   109.50898720   177.27180320
 C      1   2   3     2.559095244795   121.17504992   121.75435557
 C      6   1   2     2.527095416019   123.26018322   232.23183814
 H     16   6   1     2.053740689865   121.38253261   359.05017532
 H     16   6   1     2.055137286631   120.92667717   178.46538679
 C     15   1   2     2.730176153391   126.28216030   184.98444942
 H     15   1   2     2.058232268225   116.16053435     3.05212958
 C     19  15   1     2.551916097665   126.28704328   182.76864297
 H     19  15   1     2.055238511263   115.89298455     3.83611234
 C     21  19  15     2.849173326247   125.63000082     1.28441462
 C     23  21  19     2.910648906723   111.76198367   126.40841168
 H     23  21  19     2.065926424345   112.34649092     2.55138323
 H     23  21  19     2.082090231737   107.75830789   244.97382055
 C     24  23  21     2.898695992379   112.51755986    51.13978906
 H     24  23  21     2.073905988316   109.06036549   289.04393160
 H     24  23  21     2.072753249725   109.14912434   173.03592634
 C     27  24  23     2.901216207489   111.83140034   305.91913157
 H     27  24  23     2.068992692048   108.99419345   182.29894817
 H     27  24  23     2.079848275741   109.18009492    65.80171141
 C     21  19  15     2.830466011628   122.78407920   180.54019267
 H     33  21  19     2.089845890035   106.38007493   124.98385028
 C     33  21  19     2.880689132872   121.11696009     2.41405259
 H     13   3   2     1.828995513009   107.63768462    42.04033731
 C     35  33  21     2.926302809231   103.33346597   195.18393306
 H     35  33  21     2.069521817622   112.30900089    73.46367799
 H     35  33  21     2.070839870305   110.68517675   313.72572801
 C     30  27  24     2.940260847931   115.88930975   166.48516185
 H     37  35  33     2.065703050397   111.14378600   251.43479612
 H     37  35  33     2.071954025137   111.26424616   133.04396525
 H     40  30  27     2.082240342067   105.72506245   321.37210938
 C     40  30  27     2.899209898531   118.08151156    82.34606266
 C     30  27  24     2.901279057957   111.10729651   294.68976542
 H     45  30  27     2.068480842996   111.67192300   187.94561790
 H     45  30  27     2.068374974286   111.41716253    67.97097084
 H     45  30  27     2.069542717060   110.83555698   307.87610493
 H     44  40  30     2.082441429728   107.40640689    63.04318377
 C     44  40  30     2.910083163384   114.26223099   304.19649523
 C     44  40  30     2.860449696867   113.77787172   180.83180582
 C     51  44  40     2.519292732941   127.27184395    21.01105247
 H     51  44  40     2.062271942466   113.63160804   196.51793825
 H     52  51  44     2.056581355117   118.82805771   355.77192550
 C     52  51  44     2.852318505556   126.30374959   174.85517706
 C     55  52  51     2.890325747005   113.13829318    15.62340586
 C     55  52  51     2.940673181905   110.63246377   249.30006573
 H     55  52  51     2.086471822536   106.86815608   134.35110695
 H     57  55  52     2.081962593314   106.65767029    65.29317527
 C     57  55  52     2.895265483958   112.12735552   306.93092999
 C     57  55  52     2.895278914652   111.70765520   183.67877561
 H     56  55  52     2.072657919626   111.23614994   288.99770087
 H     56  55  52     2.065105666207   111.17947153   168.82297580
 H     56  55  52     2.068994354044   110.76141032    49.10986503
 H     60  57  55     2.066897800937   112.30753142    64.23221795
 H     60  57  55     2.074943104637   110.57111109   303.42989233
 H     60  57  55     2.069924815740   110.33044008   184.36037069
 H     61  57  55     2.066245012205   112.48024458   296.20062998
 H     61  57  55     2.070244583500   110.33465722   176.07238452
 H     61  57  55     2.074763440450   110.43833037    57.06039977
 H     50  44  40     2.065321171903   112.24819915    67.55433629
 H     50  44  40     2.072101672930   110.35155389   306.27335286
 H     50  44  40     2.070946918111   110.21485421   187.45705189

---------------------
BASIS SET INFORMATION
---------------------
There are 3 groups of distinct atoms

 Group   1 Type C   : 8s5p1d contracted to 3s3p1d pattern {521/311/1}
 Group   2 Type H   : 4s2p contracted to 2s1p pattern {31/2}
 Group   3 Type O   : 8s5p1d contracted to 3s3p1d pattern {521/311/1}

Atom   0C    basis set group =>   1
Atom   1C    basis set group =>   1
Atom   2C    basis set group =>   1
Atom   3H    basis set group =>   2
Atom   4H    basis set group =>   2
Atom   5C    basis set group =>   1
Atom   6C    basis set group =>   1
Atom   7C    basis set group =>   1
Atom   8H    basis set group =>   2
Atom   9H    basis set group =>   2
Atom  10H    basis set group =>   2
Atom  11H    basis set group =>   2
Atom  12O    basis set group =>   3
Atom  13H    basis set group =>   2
Atom  14C    basis set group =>   1
Atom  15C    basis set group =>   1
Atom  16H    basis set group =>   2
Atom  17H    basis set group =>   2
Atom  18C    basis set group =>   1
Atom  19H    basis set group =>   2
Atom  20C    basis set group =>   1
Atom  21H    basis set group =>   2
Atom  22C    basis set group =>   1
Atom  23C    basis set group =>   1
Atom  24H    basis set group =>   2
Atom  25H    basis set group =>   2
Atom  26C    basis set group =>   1
Atom  27H    basis set group =>   2
Atom  28H    basis set group =>   2
Atom  29C    basis set group =>   1
Atom  30H    basis set group =>   2
Atom  31H    basis set group =>   2
Atom  32C    basis set group =>   1
Atom  33H    basis set group =>   2
Atom  34C    basis set group =>   1
Atom  35H    basis set group =>   2
Atom  36C    basis set group =>   1
Atom  37H    basis set group =>   2
Atom  38H    basis set group =>   2
Atom  39C    basis set group =>   1
Atom  40H    basis set group =>   2
Atom  41H    basis set group =>   2
Atom  42H    basis set group =>   2
Atom  43C    basis set group =>   1
Atom  44C    basis set group =>   1
Atom  45H    basis set group =>   2
Atom  46H    basis set group =>   2
Atom  47H    basis set group =>   2
Atom  48H    basis set group =>   2
Atom  49C    basis set group =>   1
Atom  50C    basis set group =>   1
Atom  51C    basis set group =>   1
Atom  52H    basis set group =>   2
Atom  53H    basis set group =>   2
Atom  54C    basis set group =>   1
Atom  55C    basis set group =>   1
Atom  56C    basis set group =>   1
Atom  57H    basis set group =>   2
Atom  58H    basis set group =>   2
Atom  59C    basis set group =>   1
Atom  60C    basis set group =>   1
Atom  61H    basis set group =>   2
Atom  62H    basis set group =>   2
Atom  63H    basis set group =>   2
Atom  64H    basis set group =>   2
Atom  65H    basis set group =>   2
Atom  66H    basis set group =>   2
Atom  67H    basis set group =>   2
Atom  68H    basis set group =>   2
Atom  69H    basis set group =>   2
Atom  70H    basis set group =>   2
Atom  71H    basis set group =>   2
Atom  72H    basis set group =>   2

-------------------------
BASIS SET IN INPUT FORMAT
-------------------------

 # Basis set for element : H 
 NewGTO H 
 S 3 
   1      12.2518000000      0.0372173893
   2       1.8687100000      0.2538082070
   3       0.4182080000      0.7973867639
 S 1 
   1       0.1061000000      1.0000000000
 P 2 
   1       9.0000000000      0.0402678705
   2       1.0000000000      0.9880231245
  end;

 # Basis set for element : C 
 NewGTO C 
 S 5 
   1    1243.2000000000      0.0056300977
   2     187.1450000000      0.0419506039
   3      42.5126000000      0.1846643605
   4      11.7393000000      0.4665574214
   5       3.5054800000      0.4482347783
 S 2 
   1       5.3908900000     -0.1481148174
   2       0.4933410000      1.0519817143
 S 1 
   1       0.1497410000      1.0000000000
 P 3 
   1      59.6736000000      0.0113906672
   2       9.1805600000      0.1672414929
   3       1.9365800000      0.9041087436
 P 1 
   1       0.5262960000      1.0000000000
 P 1 
   1       0.1363190000      1.0000000000
 D 1 
   1       0.8000000000      1.0000000000
  end;

 # Basis set for element : O 
 NewGTO O 
 S 5 
   1    2288.6400000000      0.0054511382
   2     344.4160000000      0.0407189228
   3      78.2538000000      0.1813694209
   4      21.7195000000      0.4655368202
   5       6.5590700000      0.4512113212
 S 2 
   1      10.4656000000     -0.1502112012
   2       0.9643510000      1.0528679834
 S 1 
   1       0.2851270000      1.0000000000
 P 3 
   1     110.8840000000      0.0113058003
   2      17.0590000000      0.1699226452
   3       3.6899900000      0.9008060328
 P 1 
   1       0.9929960000      1.0000000000
 P 1 
   1       0.2449240000      1.0000000000
 D 1 
   1       1.0000000000      1.0000000000
  end;

---------------------------------
AUXILIARY/J BASIS SET INFORMATION
---------------------------------
There are 3 groups of distinct atoms

 Group   1 Type C   : 12s5p4d2f1g contracted to 6s4p3d1f1g pattern {711111/2111/211/2/1}
 Group   2 Type H   : 5s2p1d contracted to 3s1p1d pattern {311/2/1}
 Group   3 Type O   : 12s5p4d2f1g contracted to 6s4p3d1f1g pattern {711111/2111/211/2/1}

Atom   0C    basis set group =>   1
Atom   1C    basis set group =>   1
Atom   2C    basis set group =>   1
Atom   3H    basis set group =>   2
Atom   4H    basis set group =>   2
Atom   5C    basis set group =>   1
Atom   6C    basis set group =>   1
Atom   7C    basis set group =>   1
Atom   8H    basis set group =>   2
Atom   9H    basis set group =>   2
Atom  10H    basis set group =>   2
Atom  11H    basis set group =>   2
Atom  12O    basis set group =>   3
Atom  13H    basis set group =>   2
Atom  14C    basis set group =>   1
Atom  15C    basis set group =>   1
Atom  16H    basis set group =>   2
Atom  17H    basis set group =>   2
Atom  18C    basis set group =>   1
Atom  19H    basis set group =>   2
Atom  20C    basis set group =>   1
Atom  21H    basis set group =>   2
Atom  22C    basis set group =>   1
Atom  23C    basis set group =>   1
Atom  24H    basis set group =>   2
Atom  25H    basis set group =>   2
Atom  26C    basis set group =>   1
Atom  27H    basis set group =>   2
Atom  28H    basis set group =>   2
Atom  29C    basis set group =>   1
Atom  30H    basis set group =>   2
Atom  31H    basis set group =>   2
Atom  32C    basis set group =>   1
Atom  33H    basis set group =>   2
Atom  34C    basis set group =>   1
Atom  35H    basis set group =>   2
Atom  36C    basis set group =>   1
Atom  37H    basis set group =>   2
Atom  38H    basis set group =>   2
Atom  39C    basis set group =>   1
Atom  40H    basis set group =>   2
Atom  41H    basis set group =>   2
Atom  42H    basis set group =>   2
Atom  43C    basis set group =>   1
Atom  44C    basis set group =>   1
Atom  45H    basis set group =>   2
Atom  46H    basis set group =>   2
Atom  47H    basis set group =>   2
Atom  48H    basis set group =>   2
Atom  49C    basis set group =>   1
Atom  50C    basis set group =>   1
Atom  51C    basis set group =>   1
Atom  52H    basis set group =>   2
Atom  53H    basis set group =>   2
Atom  54C    basis set group =>   1
Atom  55C    basis set group =>   1
Atom  56C    basis set group =>   1
Atom  57H    basis set group =>   2
Atom  58H    basis set group =>   2
Atom  59C    basis set group =>   1
Atom  60C    basis set group =>   1
Atom  61H    basis set group =>   2
Atom  62H    basis set group =>   2
Atom  63H    basis set group =>   2
Atom  64H    basis set group =>   2
Atom  65H    basis set group =>   2
Atom  66H    basis set group =>   2
Atom  67H    basis set group =>   2
Atom  68H    basis set group =>   2
Atom  69H    basis set group =>   2
Atom  70H    basis set group =>   2
Atom  71H    basis set group =>   2
Atom  72H    basis set group =>   2

-------------------------------------
AUXILIARY/J BASIS SET IN INPUT FORMAT
-------------------------------------

 # Auxiliary/J basis set for element : H 
 NewAuxJGTO H 
 S 3 
   1      15.6752927000      0.1007184237
   2       3.6063578000      0.3404257499
   3       1.2080016000      0.6491996172
 S 1 
   1       0.4726794000      1.0000000000
 S 1 
   1       0.2018100000      1.0000000000
 P 2 
   1       2.0281365000      0.5596620919
   2       0.5358730000      0.5596620919
 D 1 
   1       2.2165124000      1.0000000000
  end;

 # Auxiliary/J basis set for element : C 
 NewAuxJGTO C 
 S 7 
   1    1861.0916331000      0.0134602335
   2     642.9939764000      0.0299160374
   3     235.1105725000      0.1008649584
   4      90.7028894000      0.2370970548
   5      36.7794552000      0.3924037254
   6      15.6046273000      0.3195862154
   7       6.8907294000      0.0530104441
 S 1 
   1       3.1478850000     -1.0000000000
 S 1 
   1       1.4777287000      1.0000000000
 S 1 
   1       0.7076466000      1.0000000000
 S 1 
   1       0.3430122000      1.0000000000
 S 1 
   1       0.1669453000      1.0000000000
 P 2 
   1      13.5472892000     -0.6769313712
   2       5.4669419000     -0.3779500978
 P 1 
   1       2.1751721000      1.0000000000
 P 1 
   1       0.8582194000      1.0000000000
 P 1 
   1       0.3376720000      1.0000000000
 D 2 
   1       5.9287253000     -0.3533329857
   2       1.9809209000     -0.7456525731
 D 1 
   1       0.8055417000     -1.0000000000
 D 1 
   1       0.3531244000     -1.0000000000
 F 2 
   1       1.6755626000      0.6311076882
   2       0.5997536000      0.4968166032
 G 1 
   1       1.0024600000     -1.0000000000
  end;

 # Auxiliary/J basis set for element : O 
 NewAuxJGTO O 
 S 7 
   1    2876.8216605000      0.0168151159
   2    1004.7443032000      0.0340137548
   3     369.7579954000      0.1194951309
   4     142.9442404000      0.2664627624
   5      57.8366425000      0.4202764046
   6      24.3864983000      0.2765077335
   7      10.6622662000      0.0057008815
 S 1 
   1       4.8070437000     -1.0000000000
 S 1 
   1       2.2210770000      1.0000000000
 S 1 
   1       1.0447795000      1.0000000000
 S 1 
   1       0.4968425000      1.0000000000
 S 1 
   1       0.2371384000      1.0000000000
 P 2 
   1      64.2613382000     -0.2731534179
   2      16.3006076000     -0.8168011598
 P 1 
   1       4.3550542000      1.0000000000
 P 1 
   1       1.2019554000      1.0000000000
 P 1 
   1       0.3354196000      1.0000000000
 D 2 
   1       9.2146611000     -0.4661230638
   2       2.8435251000     -0.6600908911
 D 1 
   1       0.9955759000     -1.0000000000
 D 1 
   1       0.3649441000     -1.0000000000
 F 2 
   1       2.6420115000      0.5931563945
   2       0.7345613000      0.5931563945
 G 1 
   1       1.3931000000     -1.0000000000
  end;



           ************************************************************
           *        Program running with 4 parallel MPI-processes     *
           *              working on a common directory               *
           ************************************************************
------------------------------------------------------------------------------
                           ORCA GTO INTEGRAL CALCULATION
                           -- RI-GTO INTEGRALS CHOSEN --
------------------------------------------------------------------------------
------------------------------------------------------------------------------
                   ___                                                        
                  /   \      - P O W E R E D   B Y -                         
                 /     \                                                     
                 |  |  |   _    _      __       _____    __    __             
                 |  |  |  | |  | |    /  \     |  _  \  |  |  /  |          
                  \  \/   | |  | |   /    \    | | | |  |  | /  /          
                 / \  \   | |__| |  /  /\  \   | |_| |  |  |/  /          
                |  |  |   |  __  | /  /__\  \  |    /   |      \           
                |  |  |   | |  | | |   __   |  |    \   |  |\   \          
                \     /   | |  | | |  |  |  |  | |\  \  |  | \   \       
                 \___/    |_|  |_| |__|  |__|  |_| \__\ |__|  \__/        
                                                                              
                      - O R C A' S   B I G   F R I E N D -                    
                                      &                                       
                       - I N T E G R A L  F E E D E R -                       
                                                                              
 v1 FN, 2020, v2 2021                                                         
------------------------------------------------------------------------------


Reading SHARK input file inpS.SHARKINP.tmp ... ok
----------------------
SHARK INTEGRAL PACKAGE
----------------------

Number of atoms                             ...     73
Number of basis functions                   ...    713
Number of shells                            ...    335
Maximum angular momentum                    ...      2
Integral batch strategy                     ... SHARK/LIBINT Hybrid
RI-J (if used) integral strategy            ... SPLIT-RIJ (Revised 2003 algorithm where possible)
Printlevel                                  ...      1
Contraction scheme used                     ... SEGMENTED contraction
Coulomb Range Separation                    ... NOT USED
Exchange Range Separation                   ... NOT USED
Finite Nucleus Model                        ... NOT USED
Auxiliary Coulomb fitting basis             ... AVAILABLE
   # of basis functions in Aux-J            ...   1905
   # of shells in Aux-J                     ...    655
   Maximum angular momentum in Aux-J        ...      4
Auxiliary J/K fitting basis                 ... NOT available
Auxiliary Correlation fitting basis         ... NOT available
Auxiliary 'external' fitting basis          ... NOT available
Integral threshold                          ...     3.000000e-11
Primitive cut-off                           ...     1.000000e-12
Primitive pair pre-selection threshold      ...     1.000000e-12

Calculating pre-screening integrals         ... done (  0.0 sec) Dimension = 335
Organizing shell pair data                  ... done (  0.2 sec)
Shell pair information
Total number of shell pairs                 ...     56280
Shell pairs after pre-screening             ...     31787
Total number of primitive shell pairs       ...    225367
Primitive shell pairs kept                  ...     74806
          la=0 lb=0:   9707 shell pairs
          la=1 lb=0:  13070 shell pairs
          la=1 lb=1:   4275 shell pairs
          la=2 lb=0:   2776 shell pairs
          la=2 lb=1:   1764 shell pairs
          la=2 lb=2:    195 shell pairs

Calculating one electron integrals          ... done (  0.1 sec)
Calculating RI/J V-Matrix + Cholesky decomp.... done (  0.2 sec)
Calculating Nuclear repulsion               ... done (  0.0 sec) ENN=   2790.882068974634 Eh

SHARK setup successfully completed in   0.6 seconds

Maximum memory used throughout the entire GTOINT-calculation: 61.3 MB


           ************************************************************
           *        Program running with 4 parallel MPI-processes     *
           *              working on a common directory               *
           ************************************************************
-------------------------------------------------------------------------------
                                 ORCA SCF
-------------------------------------------------------------------------------

------------
SCF SETTINGS
------------
Hamiltonian:
 Density Functional     Method          .... DFT(GTOs)
 Exchange Functional    Exchange        .... revTPSS
 Correlation Functional Correlation     .... revTPSS
 LDA part of GGA corr.  LDAOpt          .... PW91-LDA
 Gradients option       PostSCFGGA      .... off
   Density functional embedding theory  .... OFF
 RI-approximation to the Coulomb term is turned on
   Number of AuxJ basis functions       .... 1905


General Settings:
 Integral files         IntName         .... inpS
 Hartree-Fock type      HFTyp           .... RHF
 Total Charge           Charge          ....    0
 Multiplicity           Mult            ....    1
 Number of Electrons    NEL             ....  220
 Basis Dimension        Dim             ....  713
 Nuclear Repulsion      ENuc            ....   2790.8820689746 Eh

Convergence Acceleration:
 DIIS                   CNVDIIS         .... on
   Start iteration      DIISMaxIt       ....    12
   Startup error        DIISStart       ....  0.200000
   # of expansion vecs  DIISMaxEq       ....     5
   Bias factor          DIISBfac        ....   1.050
   Max. coefficient     DIISMaxC        ....  10.000
 Trust-Rad. Augm. Hess. CNVTRAH         .... auto
   Auto Start mean grad. ratio tolernc. ....  1.125000
   Auto Start start iteration           ....    20
   Auto Start num. interpolation iter.  ....    10
   Max. Number of Micro iterations      ....    16
   Max. Number of Macro iterations      .... Maxiter - #DIIS iter
   Number of Davidson start vectors     ....     2
   Converg. threshold I  (grad. norm)   ....   1.000e-04
   Converg. threshold II (energy diff.) ....   1.000e-07
   Grad. Scal. Fac. for Micro threshold ....   0.100
   Minimum threshold for Micro iter.    ....   0.010
   NR start threshold (gradient norm)   ....   0.001
   Initial trust radius                 ....   0.400
   Minimum AH scaling param. (alpha)    ....   1.000
   Maximum AH scaling param. (alpha)    .... 1000.000
   Orbital update algorithm             .... Taylor
   White noise on init. David. guess    .... on
   Maximum white noise                  ....   0.010
   Quad. conv. algorithm                .... NR
 SOSCF                  CNVSOSCF        .... off
 Level Shifting         CNVShift        .... on
   Level shift para.    LevelShift      ....    0.2500
   Turn off err/grad.   ShiftErr        ....    0.0010
 Zerner damping         CNVZerner       .... off
 Static damping         CNVDamp         .... on
   Fraction old density DampFac         ....    0.7000
   Max. Damping (<1)    DampMax         ....    0.9800
   Min. Damping (>=0)   DampMin         ....    0.0000
   Turn off err/grad.   DampErr         ....    0.1000
 Fernandez-Rico         CNVRico         .... off

SCF Procedure:
 Maximum # iterations   MaxIter         ....   125
 SCF integral mode      SCFMode         .... Direct
   Integral package                     .... SHARK and LIBINT hybrid scheme
 Reset frequency        DirectResetFreq ....    20
 Integral Threshold     Thresh          ....  3.000e-11 Eh
 Primitive CutOff       TCut            ....  1.000e-12 Eh

Convergence Tolerance:
 Convergence Check Mode ConvCheckMode   .... Total+1el-Energy
 Convergence forced     ConvForced      .... 0
 Energy Change          TolE            ....  1.000e-07 Eh
 1-El. energy change                    ....  1.000e-04 Eh
 DIIS Error             TolErr          ....  1.000e-07


Diagonalization of the overlap matrix:
Smallest eigenvalue                        ... 4.963e-04
Time for diagonalization                   ...    0.067 sec
Threshold for overlap eigenvalues          ... 1.000e-08
Number of eigenvalues below threshold      ... 0
Time for construction of square roots      ...    0.050 sec
Total time needed                          ...    0.119 sec

Time for model grid setup =    0.767 sec

------------------------------
INITIAL GUESS: MODEL POTENTIAL
------------------------------
Loading Hartree-Fock densities                     ... done
Calculating cut-offs                               ... done
Initializing the effective Hamiltonian             ... done
Setting up the integral package (SHARK)            ... done
Starting the Coulomb interaction                   ... done (   0.6 sec)
Reading the grid                                   ... done
Mapping shells                                     ... done
Starting the XC term evaluation                    ... done (   0.3 sec)
  promolecular density results
     # of electrons  =    219.976615628
     EX              =   -164.432829531
     EC              =     -7.329309049
     EX+EC           =   -171.762138580
Transforming the Hamiltonian                       ... done (   0.0 sec)
Diagonalizing the Hamiltonian                      ... done (   0.1 sec)
Back transforming the eigenvectors                 ... done (   0.0 sec)
Now organizing SCF variables                       ... done
                      ------------------
                      INITIAL GUESS DONE (   1.9 sec)
                      ------------------
-------------------
DFT GRID GENERATION
-------------------

General Integration Accuracy     IntAcc      ... 4.388
Radial Grid Type                 RadialGrid  ... OptM3 with GC (2021)
Angular Grid (max. ang.)         AngularGrid ... 4 (Lebedev-302)
Angular grid pruning method      GridPruning ... 4 (adaptive)
Weight generation scheme         WeightScheme... Becke
Basis function cutoff            BFCut       ... 1.0000e-11
Integration weight cutoff        WCut        ... 1.0000e-14
Angular grids for H and He will be reduced by one unit
Partially contracted basis set               ... off
Rotationally invariant grid construction     ... off

Total number of grid points                  ...   309821
Total number of batches                      ...     4878
Average number of points per batch           ...       63
Average number of grid points per atom       ...     4244
Time for grid setup =    2.874 sec


--------------------
CPCM SOLVATION MODEL
--------------------
CPCM parameters:
  Epsilon                                         ...       4.9000
  Refrac                                          ...       1.4500
  Rsolv                                           ...       1.3000
  Surface type                                    ... GAUSSIAN VDW
  Epsilon function type                           ...         CPCM
Radii:
 Radius for C  used is    3.8550 Bohr (=   2.0400 Ang.)
 Radius for H  used is    2.4944 Bohr (=   1.3200 Ang.)
 Radius for O  used is    3.4469 Bohr (=   1.8240 Ang.)
Calculating surface                               ...        done! (  0.0s)
GEPOL surface points                              ...         3591
GEPOL Volume                                      ...    3564.7412
GEPOL Surface-area                                ...    1769.3230
Calculating surface distance matrix               ...        done! (  0.1s)
Performing Cholesky decomposition & store         ...        done! (  0.5s)
Overall time for CPCM initialization              ...                 0.6s
--------------
SCF ITERATIONS
--------------
ITER       Energy         Delta-E        Max-DP      RMS-DP      [F,P]     Damp
               ***  Starting incremental Fock matrix formation  ***

  HOMO= 109 E= -1.944 eV LUMO=  7.771 eV gap=   9.715 eV
  0  -1167.5224627644   0.000000000000 0.05458778  0.00083315  0.2612527 0.7000

  HOMO= 109 E= -3.452 eV LUMO=  6.672 eV gap=  10.124 eV
  1  -1167.8952698589  -0.372807094504 0.02901900  0.00061601  0.1005890 0.7000
                               ***Turning on DIIS***

  HOMO= 109 E= -4.420 eV LUMO=  5.790 eV gap=  10.210 eV
  2  -1168.0413327453  -0.146062886387 0.05279536  0.00101664  0.0301221 0.0000

  HOMO= 109 E= -5.038 eV LUMO=  5.209 eV gap=  10.247 eV
  3  -1168.2385068738  -0.197174128535 0.02318747  0.00047450  0.0520160 0.0000

  HOMO= 109 E= -5.064 eV LUMO=  5.184 eV gap=  10.248 eV
  4  -1168.3053402218  -0.066833347976 0.00746592  0.00015202  0.0099716 0.0000

  HOMO= 109 E= -5.020 eV LUMO=  5.235 eV gap=  10.255 eV
  5  -1168.3083934067  -0.003053184958 0.00347787  0.00005714  0.0104163 0.0000

  HOMO= 109 E= -5.000 eV LUMO=  5.253 eV gap=  10.253 eV
  6  -1168.3086694138  -0.000276007012 0.00125155  0.00001926  0.0029459 0.0000

  HOMO= 109 E= -5.001 eV LUMO= -1.552 eV gap=   3.449 eV
  7  -1168.3086888348  -0.000019421019 0.00071593  0.00001168  0.0004998 0.0000

  HOMO= 109 E= -4.999 eV LUMO= -1.550 eV gap=   3.449 eV
  8  -1168.3086918488  -0.000003014038 0.00026218  0.00000286  0.0003683 0.0000

  HOMO= 109 E= -4.998 eV LUMO= -1.548 eV gap=   3.450 eV
  9  -1168.3086924624  -0.000000613630 0.00015962  0.00000151  0.0002616 0.0000

  HOMO= 109 E= -4.998 eV LUMO= -1.548 eV gap=   3.449 eV
 10  -1168.3086927253  -0.000000262898 0.00006797  0.00000070  0.0001028 0.0000

  HOMO= 109 E= -4.998 eV LUMO= -1.549 eV gap=   3.449 eV
 11  -1168.3086927505  -0.000000025156 0.00002916  0.00000027  0.0000324 0.0000

  HOMO= 109 E= -4.998 eV LUMO= -1.549 eV gap=   3.449 eV
 12  -1168.3086927384   0.000000012136 0.00001508  0.00000013  0.0000183 0.0000

  HOMO= 109 E= -4.998 eV LUMO= -1.549 eV gap=   3.449 eV
 13  -1168.3086927615  -0.000000023159 0.00000673  0.00000006  0.0000072 0.0000
                 **** Energy Check signals convergence ****

               *****************************************************
               *                     SUCCESS                       *
               *           SCF CONVERGED AFTER  14 CYCLES          *
               *****************************************************


----------------
TOTAL SCF ENERGY
----------------

Total Energy       :        -1168.30869275 Eh          -31791.29577 eV

Components:
Nuclear Repulsion  :         2790.88206897 Eh           75943.76200 eV
Electronic Energy  :        -3959.19076173 Eh         -107735.05777 eV
One Electron Energy:        -7127.90914462 Eh         -193960.26857 eV
Two Electron Energy:         3168.71838289 Eh           86225.21080 eV
CPCM Dielectric    :           -0.00916248 Eh              -0.24932 eV

Virial components:
Potential Energy   :        -2330.40427482 Eh          -63413.52420 eV
Kinetic Energy     :         1162.09558207 Eh           31622.22843 eV
Virial Ratio       :            2.00534647


DFT components:
N(Alpha)           :      110.000099464688 electrons
N(Beta)            :      110.000099464688 electrons
N(Total)           :      220.000198929377 electrons
E(X)               :     -169.582863605583 Eh       
E(C)               :       -7.444914782715 Eh       
E(XC)              :     -177.027778388298 Eh       
DFET-embed. en.    :        0.000000000000 Eh       
CPCM Solvation Model Properties:
Surface-charge          :           -0.04529340
Charge-correction       :           -0.00007572 Eh              -0.00206 eV
Free-energy (cav+disp)  :  This term is not implemented in the current solvation scheme

---------------
SCF CONVERGENCE
---------------

  Last Energy change         ...    9.0515e-09  Tolerance :   1.0000e-07
  Last MAX-Density change    ...    2.6088e-06  Tolerance :   1.0000e-05
  Last RMS-Density change    ...    2.6989e-08  Tolerance :   1.0000e-06
  Last DIIS Error            ...    3.6587e-06  Tolerance :   1.0000e-07

             **** THE GBW FILE WAS UPDATED (inpS.gbw) ****
             **** DENSITY inpS.scfp WAS UPDATED ****
             **** ENERGY FILE WAS UPDATED (inpS.en.tmp) ****
             **** THE GBW FILE WAS UPDATED (inpS.gbw) ****
             **** DENSITY inpS.scfp WAS UPDATED ****
----------------
ORBITAL ENERGIES
----------------

  NO   OCC          E(Eh)            E(eV) 
   0   2.0000     -18.903567      -514.3922 
   1   2.0000     -10.057185      -273.6699 
   2   2.0000     -10.016402      -272.5602 
   3   2.0000     -10.014701      -272.5139 
   4   2.0000     -10.012221      -272.4464 
   5   2.0000     -10.012217      -272.4463 
   6   2.0000     -10.011988      -272.4400 
   7   2.0000     -10.011781      -272.4344 
   8   2.0000     -10.011054      -272.4146 
   9   2.0000     -10.010103      -272.3888 
  10   2.0000     -10.009626      -272.3758 
  11   2.0000     -10.009443      -272.3708 
  12   2.0000     -10.007543      -272.3191 
  13   2.0000     -10.006282      -272.2848 
  14   2.0000     -10.006266      -272.2843 
  15   2.0000     -10.005268      -272.2572 
  16   2.0000     -10.004803      -272.2445 
  17   2.0000     -10.000852      -272.1370 
  18   2.0000     -10.000471      -272.1266 
  19   2.0000      -9.999688      -272.1053 
  20   2.0000      -9.999337      -272.0958 
  21   2.0000      -9.998762      -272.0801 
  22   2.0000      -9.998590      -272.0755 
  23   2.0000      -9.997889      -272.0564 
  24   2.0000      -9.996201      -272.0105 
  25   2.0000      -9.996142      -272.0089 
  26   2.0000      -9.995951      -272.0036 
  27   2.0000      -9.995828      -272.0003 
  28   2.0000      -9.995183      -271.9828 
  29   2.0000      -0.954276       -25.9672 
  30   2.0000      -0.807855       -21.9829 
  31   2.0000      -0.789513       -21.4837 
  32   2.0000      -0.770741       -20.9729 
  33   2.0000      -0.756847       -20.5949 
  34   2.0000      -0.734550       -19.9881 
  35   2.0000      -0.728085       -19.8122 
  36   2.0000      -0.708949       -19.2915 
  37   2.0000      -0.708751       -19.2861 
  38   2.0000      -0.694572       -18.9003 
  39   2.0000      -0.675975       -18.3942 
  40   2.0000      -0.657735       -17.8979 
  41   2.0000      -0.654332       -17.8053 
  42   2.0000      -0.635943       -17.3049 
  43   2.0000      -0.628017       -17.0892 
  44   2.0000      -0.625671       -17.0254 
  45   2.0000      -0.619447       -16.8560 
  46   2.0000      -0.591307       -16.0903 
  47   2.0000      -0.590155       -16.0589 
  48   2.0000      -0.558287       -15.1917 
  49   2.0000      -0.547752       -14.9051 
  50   2.0000      -0.541314       -14.7299 
  51   2.0000      -0.536830       -14.6079 
  52   2.0000      -0.526343       -14.3225 
  53   2.0000      -0.516533       -14.0556 
  54   2.0000      -0.497423       -13.5356 
  55   2.0000      -0.473314       -12.8795 
  56   2.0000      -0.465697       -12.6723 
  57   2.0000      -0.463253       -12.6058 
  58   2.0000      -0.451198       -12.2777 
  59   2.0000      -0.447891       -12.1877 
  60   2.0000      -0.434946       -11.8355 
  61   2.0000      -0.431238       -11.7346 
  62   2.0000      -0.417684       -11.3657 
  63   2.0000      -0.416506       -11.3337 
  64   2.0000      -0.410673       -11.1750 
  65   2.0000      -0.406882       -11.0718 
  66   2.0000      -0.404650       -11.0111 
  67   2.0000      -0.400961       -10.9107 
  68   2.0000      -0.397636       -10.8202 
  69   2.0000      -0.390479       -10.6255 
  70   2.0000      -0.389109       -10.5882 
  71   2.0000      -0.383166       -10.4265 
  72   2.0000      -0.381829       -10.3901 
  73   2.0000      -0.376099       -10.2342 
  74   2.0000      -0.371650       -10.1131 
  75   2.0000      -0.363761        -9.8984 
  76   2.0000      -0.361981        -9.8500 
  77   2.0000      -0.358252        -9.7485 
  78   2.0000      -0.354310        -9.6413 
  79   2.0000      -0.348816        -9.4918 
  80   2.0000      -0.345998        -9.4151 
  81   2.0000      -0.345163        -9.3924 
  82   2.0000      -0.341436        -9.2909 
  83   2.0000      -0.336676        -9.1614 
  84   2.0000      -0.334261        -9.0957 
  85   2.0000      -0.325826        -8.8662 
  86   2.0000      -0.323103        -8.7921 
  87   2.0000      -0.318836        -8.6760 
  88   2.0000      -0.315344        -8.5809 
  89   2.0000      -0.311992        -8.4897 
  90   2.0000      -0.308651        -8.3988 
  91   2.0000      -0.307991        -8.3809 
  92   2.0000      -0.304248        -8.2790 
  93   2.0000      -0.296997        -8.0817 
  94   2.0000      -0.290930        -7.9166 
  95   2.0000      -0.286387        -7.7930 
  96   2.0000      -0.285513        -7.7692 
  97   2.0000      -0.283388        -7.7114 
  98   2.0000      -0.282328        -7.6825 
  99   2.0000      -0.279906        -7.6166 
 100   2.0000      -0.275552        -7.4981 
 101   2.0000      -0.272533        -7.4160 
 102   2.0000      -0.272132        -7.4051 
 103   2.0000      -0.267577        -7.2812 
 104   2.0000      -0.259875        -7.0716 
 105   2.0000      -0.249920        -6.8007 
 106   2.0000      -0.229576        -6.2471 
 107   2.0000      -0.228581        -6.2200 
 108   2.0000      -0.213091        -5.7985 
 109   2.0000      -0.183675        -4.9980 
 110   0.0000      -0.056909        -1.5486 
 111   0.0000      -0.014151        -0.3851 
 112   0.0000      -0.005537        -0.1507 
 113   0.0000       0.028868         0.7855 
 114   0.0000       0.037300         1.0150 
 115   0.0000       0.041269         1.1230 
 116   0.0000       0.047513         1.2929 
 117   0.0000       0.049139         1.3371 
 118   0.0000       0.052584         1.4309 
 119   0.0000       0.055696         1.5156 
 120   0.0000       0.060908         1.6574 
 121   0.0000       0.064936         1.7670 
 122   0.0000       0.071169         1.9366 
 123   0.0000       0.073247         1.9931 
 124   0.0000       0.079214         2.1555 
 125   0.0000       0.080179         2.1818 
 126   0.0000       0.082487         2.2446 
 127   0.0000       0.086144         2.3441 
 128   0.0000       0.089672         2.4401 
 129   0.0000       0.091780         2.4975 
 130   0.0000       0.099337         2.7031 
 131   0.0000       0.102046         2.7768 
 132   0.0000       0.106388         2.8950 
 133   0.0000       0.106620         2.9013 
 134   0.0000       0.107478         2.9246 
 135   0.0000       0.111841         3.0434 
 136   0.0000       0.112591         3.0638 
 137   0.0000       0.119562         3.2534 
 138   0.0000       0.121092         3.2951 
 139   0.0000       0.125103         3.4042 
 140   0.0000       0.127085         3.4582 
 141   0.0000       0.128675         3.5014 
 142   0.0000       0.129361         3.5201 
 143   0.0000       0.134315         3.6549 
 144   0.0000       0.138764         3.7760 
 145   0.0000       0.139527         3.7967 
 146   0.0000       0.142459         3.8765 
 147   0.0000       0.145969         3.9720 
 148   0.0000       0.146990         3.9998 
 149   0.0000       0.152700         4.1552 
 150   0.0000       0.154368         4.2006 
 151   0.0000       0.155595         4.2340 
 152   0.0000       0.157309         4.2806 
 153   0.0000       0.163028         4.4362 
 154   0.0000       0.164010         4.4629 
 155   0.0000       0.167645         4.5619 
 156   0.0000       0.175932         4.7874 
 157   0.0000       0.177994         4.8435 
 158   0.0000       0.179711         4.8902 
 159   0.0000       0.182056         4.9540 
 160   0.0000       0.190097         5.1728 
 161   0.0000       0.192319         5.2333 
 162   0.0000       0.196922         5.3585 
 163   0.0000       0.201448         5.4817 
 164   0.0000       0.202993         5.5237 
 165   0.0000       0.204226         5.5573 
 166   0.0000       0.205720         5.5979 
 167   0.0000       0.207811         5.6548 
 168   0.0000       0.211001         5.7416 
 169   0.0000       0.213017         5.7965 
 170   0.0000       0.218640         5.9495 
 171   0.0000       0.222145         6.0449 
 172   0.0000       0.225309         6.1310 
 173   0.0000       0.230507         6.2724 
 174   0.0000       0.237304         6.4574 
 175   0.0000       0.244057         6.6411 
 176   0.0000       0.244526         6.6539 
 177   0.0000       0.255145         6.9428 
 178   0.0000       0.261495         7.1156 
 179   0.0000       0.263681         7.1751 
 180   0.0000       0.272109         7.4045 
 181   0.0000       0.283130         7.7044 
 182   0.0000       0.291553         7.9336 
 183   0.0000       0.294802         8.0220 
 184   0.0000       0.304971         8.2987 
 185   0.0000       0.328743         8.9455 
 186   0.0000       0.333858         9.0848 
 187   0.0000       0.345060         9.3896 
 188   0.0000       0.346382         9.4255 
 189   0.0000       0.353621         9.6225 
 190   0.0000       0.355120         9.6633 
 191   0.0000       0.360409         9.8072 
 192   0.0000       0.366444         9.9715 
 193   0.0000       0.369855        10.0643 
 194   0.0000       0.377283        10.2664 
 195   0.0000       0.383224        10.4281 
 196   0.0000       0.385381        10.4867 
 197   0.0000       0.389554        10.6003 
 198   0.0000       0.397581        10.8187 
 199   0.0000       0.400249        10.8913 
 200   0.0000       0.403257        10.9732 
 201   0.0000       0.408470        11.1150 
 202   0.0000       0.412884        11.2351 
 203   0.0000       0.419018        11.4021 
 204   0.0000       0.421338        11.4652 
 205   0.0000       0.427456        11.6317 
 206   0.0000       0.434583        11.8256 
 207   0.0000       0.437459        11.9039 
 208   0.0000       0.448288        12.1985 
 209   0.0000       0.453100        12.3295 
 210   0.0000       0.460804        12.5391 
 211   0.0000       0.465275        12.6608 
 212   0.0000       0.469399        12.7730 
 213   0.0000       0.478116        13.0102 
 214   0.0000       0.479566        13.0497 
 215   0.0000       0.484194        13.1756 
 216   0.0000       0.487250        13.2588 
 217   0.0000       0.493963        13.4414 
 218   0.0000       0.497760        13.5447 
 219   0.0000       0.500647        13.6233 
 220   0.0000       0.504321        13.7233 
 221   0.0000       0.510059        13.8794 
 222   0.0000       0.515803        14.0357 
 223   0.0000       0.521769        14.1980 
 224   0.0000       0.524243        14.2654 
 225   0.0000       0.533333        14.5127 
 226   0.0000       0.535893        14.5824 
 227   0.0000       0.537320        14.6212 
 228   0.0000       0.542546        14.7634 
 229   0.0000       0.545565        14.8456 
 230   0.0000       0.547895        14.9090 
 231   0.0000       0.555875        15.1261 
 232   0.0000       0.556503        15.1432 
 233   0.0000       0.559909        15.2359 
 234   0.0000       0.562288        15.3006 
 235   0.0000       0.569719        15.5028 
 236   0.0000       0.570699        15.5295 
 237   0.0000       0.574359        15.6291 
 238   0.0000       0.578277        15.7357 
 239   0.0000       0.579902        15.7799 
 240   0.0000       0.582293        15.8450 
 241   0.0000       0.584683        15.9100 
 242   0.0000       0.588636        16.0176 
 243   0.0000       0.591400        16.0928 
 244   0.0000       0.592007        16.1093 
 245   0.0000       0.595841        16.2137 
 246   0.0000       0.598250        16.2792 
 247   0.0000       0.599725        16.3194 
 248   0.0000       0.601487        16.3673 
 249   0.0000       0.605635        16.4802 
 250   0.0000       0.606547        16.5050 
 251   0.0000       0.608366        16.5545 
 252   0.0000       0.611623        16.6431 
 253   0.0000       0.613305        16.6889 
 254   0.0000       0.615837        16.7578 
 255   0.0000       0.616599        16.7785 
 256   0.0000       0.619163        16.8483 
 257   0.0000       0.624359        16.9897 
 258   0.0000       0.630980        17.1698 
 259   0.0000       0.633196        17.2301 
 260   0.0000       0.635271        17.2866 
 261   0.0000       0.636811        17.3285 
 262   0.0000       0.641106        17.4454 
 263   0.0000       0.642756        17.4903 
 264   0.0000       0.647882        17.6298 
 265   0.0000       0.648543        17.6478 
 266   0.0000       0.650286        17.6952 
 267   0.0000       0.652901        17.7663 
 268   0.0000       0.654765        17.8171 
 269   0.0000       0.658806        17.9270 
 270   0.0000       0.664770        18.0893 
 271   0.0000       0.665459        18.1081 
 272   0.0000       0.665893        18.1199 
 273   0.0000       0.673184        18.3183 
 274   0.0000       0.675651        18.3854 
 275   0.0000       0.678704        18.4685 
 276   0.0000       0.681931        18.5563 
 277   0.0000       0.683438        18.5973 
 278   0.0000       0.687354        18.7039 
 279   0.0000       0.689689        18.7674 
 280   0.0000       0.692236        18.8367 
 281   0.0000       0.698757        19.0141 
 282   0.0000       0.702010        19.1027 
 283   0.0000       0.707847        19.2615 
 284   0.0000       0.711181        19.3522 
 285   0.0000       0.715127        19.4596 
 286   0.0000       0.721715        19.6389 
 287   0.0000       0.727199        19.7881 
 288   0.0000       0.731852        19.9147 
 289   0.0000       0.739244        20.1159 
 290   0.0000       0.743410        20.2292 
 291   0.0000       0.745441        20.2845 
 292   0.0000       0.751923        20.4609 
 293   0.0000       0.758252        20.6331 
 294   0.0000       0.763060        20.7639 
 295   0.0000       0.768792        20.9199 
 296   0.0000       0.776879        21.1400 
 297   0.0000       0.782140        21.2831 
 298   0.0000       0.783977        21.3331 
 299   0.0000       0.791117        21.5274 
 300   0.0000       0.799323        21.7507 
 301   0.0000       0.805804        21.9270 
 302   0.0000       0.811042        22.0696 
 303   0.0000       0.820524        22.3276 
 304   0.0000       0.837596        22.7922 
 305   0.0000       0.856418        23.3043 
 306   0.0000       0.869683        23.6653 
 307   0.0000       0.891534        24.2599 
 308   0.0000       0.893110        24.3027 
 309   0.0000       0.922822        25.1113 
 310   0.0000       0.934459        25.4279 
 311   0.0000       0.940556        25.5938 
 312   0.0000       0.951708        25.8973 
 313   0.0000       0.972915        26.4744 
 314   0.0000       0.981360        26.7042 
 315   0.0000       0.991502        26.9801 
 316   0.0000       1.011108        27.5136 
 317   0.0000       1.015251        27.6264 
 318   0.0000       1.025562        27.9070 
 319   0.0000       1.032632        28.0994 
 320   0.0000       1.045682        28.4544 
 321   0.0000       1.057252        28.7693 
 322   0.0000       1.059264        28.8240 
 323   0.0000       1.067697        29.0535 
 324   0.0000       1.094160        29.7736 
 325   0.0000       1.115142        30.3445 
 326   0.0000       1.133894        30.8548 
 327   0.0000       1.146002        31.1843 
 328   0.0000       1.162822        31.6420 
 329   0.0000       1.180069        32.1113 
 330   0.0000       1.183148        32.1951 
 331   0.0000       1.220649        33.2155 
 332   0.0000       1.225599        33.3502 
 333   0.0000       1.236216        33.6392 
 334   0.0000       1.250295        34.0223 
 335   0.0000       1.263580        34.3838 
 336   0.0000       1.284252        34.9463 
 337   0.0000       1.289697        35.0944 
 338   0.0000       1.304525        35.4979 
 339   0.0000       1.315284        35.7907 
 340   0.0000       1.327459        36.1220 
 341   0.0000       1.334053        36.3014 
 342   0.0000       1.339924        36.4612 
 343   0.0000       1.356091        36.9011 
 344   0.0000       1.362920        37.0869 
 345   0.0000       1.378270        37.5046 
 346   0.0000       1.380459        37.5642 
 347   0.0000       1.398030        38.0423 
 348   0.0000       1.409886        38.3650 
 349   0.0000       1.416328        38.5402 
 350   0.0000       1.426575        38.8191 
 351   0.0000       1.429155        38.8893 
 352   0.0000       1.438227        39.1362 
 353   0.0000       1.453465        39.5508 
 354   0.0000       1.457293        39.6550 
 355   0.0000       1.471954        40.0539 
 356   0.0000       1.479842        40.2685 
 357   0.0000       1.496796        40.7299 
 358   0.0000       1.505414        40.9644 
 359   0.0000       1.507826        41.0300 
 360   0.0000       1.519403        41.3451 
 361   0.0000       1.521852        41.4117 
 362   0.0000       1.526244        41.5312 
 363   0.0000       1.545781        42.0628 
 364   0.0000       1.552179        42.2369 
 365   0.0000       1.558255        42.4023 
 366   0.0000       1.577130        42.9159 
 367   0.0000       1.588118        43.2149 
 368   0.0000       1.601354        43.5751 
 369   0.0000       1.606101        43.7042 
 370   0.0000       1.615913        43.9712 
 371   0.0000       1.618806        44.0499 
 372   0.0000       1.630802        44.3764 
 373   0.0000       1.643287        44.7161 
 374   0.0000       1.651236        44.9324 
 375   0.0000       1.657960        45.1154 
 376   0.0000       1.666104        45.3370 
 377   0.0000       1.676175        45.6110 
 378   0.0000       1.680484        45.7283 
 379   0.0000       1.682925        45.7947 
 380   0.0000       1.688019        45.9333 
 381   0.0000       1.690571        46.0028 
 382   0.0000       1.693698        46.0879 
 383   0.0000       1.701890        46.3108 
 384   0.0000       1.714650        46.6580 
 385   0.0000       1.716202        46.7002 
 386   0.0000       1.720335        46.8127 
 387   0.0000       1.725974        46.9661 
 388   0.0000       1.730696        47.0946 
 389   0.0000       1.735350        47.2213 
 390   0.0000       1.744455        47.4690 
 391   0.0000       1.751502        47.6608 
 392   0.0000       1.756416        47.7945 
 393   0.0000       1.760490        47.9054 
 394   0.0000       1.768635        48.1270 
 395   0.0000       1.773375        48.2560 
 396   0.0000       1.775636        48.3175 
 397   0.0000       1.785512        48.5863 
 398   0.0000       1.788661        48.6719 
 399   0.0000       1.794631        48.8344 
 400   0.0000       1.798002        48.9261 
 401   0.0000       1.801885        49.0318 
 402   0.0000       1.808977        49.2248 
 403   0.0000       1.810010        49.2529 
 404   0.0000       1.820549        49.5397 
 405   0.0000       1.822017        49.5796 
 406   0.0000       1.826440        49.7000 
 407   0.0000       1.833893        49.9028 
 408   0.0000       1.847634        50.2767 
 409   0.0000       1.854408        50.4610 
 410   0.0000       1.860379        50.6235 
 411   0.0000       1.871628        50.9296 
 412   0.0000       1.877708        51.0950 
 413   0.0000       1.881842        51.2075 
 414   0.0000       1.891936        51.4822 
 415   0.0000       1.897492        51.6334 
 416   0.0000       1.901257        51.7358 
 417   0.0000       1.904951        51.8363 
 418   0.0000       1.913464        52.0680 
 419   0.0000       1.918814        52.2136 
 420   0.0000       1.932291        52.5803 
 421   0.0000       1.941388        52.8278 
 422   0.0000       1.941520        52.8314 
 423   0.0000       1.951685        53.1080 
 424   0.0000       1.952446        53.1288 
 425   0.0000       1.962773        53.4098 
 426   0.0000       1.966259        53.5046 
 427   0.0000       1.967993        53.5518 
 428   0.0000       1.973370        53.6981 
 429   0.0000       1.980422        53.8900 
 430   0.0000       1.982124        53.9363 
 431   0.0000       1.987718        54.0886 
 432   0.0000       1.991347        54.1873 
 433   0.0000       1.994199        54.2649 
 434   0.0000       1.998730        54.3882 
 435   0.0000       2.002114        54.4803 
 436   0.0000       2.005991        54.5858 
 437   0.0000       2.009998        54.6948 
 438   0.0000       2.014802        54.8255 
 439   0.0000       2.016586        54.8741 
 440   0.0000       2.019834        54.9625 
 441   0.0000       2.028293        55.1927 
 442   0.0000       2.036982        55.4291 
 443   0.0000       2.044077        55.6222 
[...]

 --------------
 Nucleus  47H :
 --------------

Diamagnetic contribution to the shielding tensor (ppm) : 
            33.025         -1.971        -6.179
            -2.760         35.233         4.024
            -6.193          4.977        47.725

Paramagnetic contribution to the shielding tensor (ppm): 
            -1.595          0.870         3.761
             1.520         -8.646        -2.358
             2.989         -2.699       -11.932

Total shielding tensor (ppm): 
            31.430         -1.101        -2.418
            -1.241         26.587         1.666
            -3.204          2.278        35.793


 Diagonalized sT*s matrix:
 
 sDSO            33.747           31.080           51.156  iso=      38.661
 sPSO            -7.641           -1.018          -13.514  iso=      -7.391
        ---------------  ---------------  ---------------
 Total           26.106           30.062           37.642  iso=      31.270

 --------------
 Nucleus  48H :
 --------------

Diamagnetic contribution to the shielding tensor (ppm) : 
            35.676          0.423        -2.010
            -1.168         41.240        -7.937
            -1.070         -4.122        42.052

Paramagnetic contribution to the shielding tensor (ppm): 
            -4.231          0.726         2.760
             1.648        -13.211         4.411
             1.220          1.386       -12.213

Total shielding tensor (ppm): 
            31.445          1.149         0.750
             0.480         28.029        -3.526
             0.150         -2.736        29.839


 Diagonalized sT*s matrix:
 
 sDSO            36.152           35.288           47.528  iso=      39.656
 sPSO           -10.621           -3.726          -15.308  iso=      -9.885
        ---------------  ---------------  ---------------
 Total           25.532           31.562           32.219  iso=      29.771

 --------------
 Nucleus  52H :
 --------------

Diamagnetic contribution to the shielding tensor (ppm) : 
            41.677          5.697        -6.529
            12.613         28.486        -9.258
           -10.194        -12.217        48.072

Paramagnetic contribution to the shielding tensor (ppm): 
           -13.842         -2.816        10.838
            -9.494         -4.021        10.733
            12.984         13.245       -21.421

Total shielding tensor (ppm): 
            27.835          2.881         4.309
             3.119         24.465         1.476
             2.790          1.028        26.651


 Diagonalized sT*s matrix:
 
 sDSO            25.213           57.722           35.300  iso=      39.412
 sPSO            -2.730          -33.368           -3.186  iso=     -13.095
        ---------------  ---------------  ---------------
 Total           22.483           24.354           32.114  iso=      26.317

 --------------
 Nucleus  53H :
 --------------

Diamagnetic contribution to the shielding tensor (ppm) : 
            46.150          8.751        -7.741
             7.130         43.581       -13.188
            -2.445        -13.635        49.722

Paramagnetic contribution to the shielding tensor (ppm): 
           -16.362         -8.163        14.816
            -6.581        -22.039        14.740
             8.594         14.328       -23.691

Total shielding tensor (ppm): 
            29.788          0.587         7.075
             0.549         21.542         1.551
             6.149          0.693        26.032


 Diagonalized sT*s matrix:
 
 sDSO            64.740           32.459           42.254  iso=      46.484
 sPSO           -44.085          -10.630           -7.376  iso=     -20.697
        ---------------  ---------------  ---------------
 Total           20.655           21.829           34.878  iso=      25.787

 --------------
 Nucleus  57H :
 --------------

Diamagnetic contribution to the shielding tensor (ppm) : 
            34.687          0.910        -3.578
            13.647         36.939         6.542
            -6.404         -2.462        42.944

Paramagnetic contribution to the shielding tensor (ppm): 
            -4.519         -1.511         2.515
           -14.062         -6.874        -3.035
             5.563          4.659       -12.585

Total shielding tensor (ppm): 
            30.168         -0.601        -1.062
            -0.415         30.065         3.507
            -0.841          2.197        30.359


 Diagonalized sT*s matrix:
 
 sDSO            35.907           37.761           40.902  iso=      38.190
 sPSO            -8.581           -7.898           -7.499  iso=      -7.992
        ---------------  ---------------  ---------------
 Total           27.326           29.863           33.403  iso=      30.197

 --------------
 Nucleus  58H :
 --------------

Diamagnetic contribution to the shielding tensor (ppm) : 
            35.146         -6.068        -0.599
           -13.194         27.984        -1.368
             1.135          7.477        32.055

Paramagnetic contribution to the shielding tensor (ppm): 
            -4.515          4.922         0.164
            11.584          2.827         3.632
            -1.568         -5.147        -0.698

Total shielding tensor (ppm): 
            30.631         -1.146        -0.435
            -1.610         30.812         2.264
            -0.433          2.330        31.357


 Diagonalized sT*s matrix:
 
 sDSO            22.199           35.099           37.887  iso=      31.728
 sPSO             6.274           -4.657           -4.001  iso=      -0.795
        ---------------  ---------------  ---------------
 Total           28.473           30.442           33.886  iso=      30.933

 --------------
 Nucleus  61H :
 --------------

Diamagnetic contribution to the shielding tensor (ppm) : 
            36.899         -1.281        -6.458
             9.481         23.441         7.089
           -17.915          1.636        31.089

Paramagnetic contribution to the shielding tensor (ppm): 
            -5.158          1.172         3.145
            -9.668          4.380        -5.714
            14.920         -0.089         2.144

Total shielding tensor (ppm): 
            31.741         -0.109        -3.314
            -0.187         27.821         1.375
            -2.995          1.547        33.233


 Diagonalized sT*s matrix:
 
 sDSO            18.862           27.826           44.740  iso=      30.476
 sPSO             8.453            1.734           -8.820  iso=       0.455
        ---------------  ---------------  ---------------
 Total           27.315           29.560           35.920  iso=      30.932

 --------------
 Nucleus  62H :
 --------------

Diamagnetic contribution to the shielding tensor (ppm) : 
            36.699          6.652         2.091
            28.234         28.365        16.493
            -6.367          7.817        19.924

Paramagnetic contribution to the shielding tensor (ppm): 
            -4.928         -1.631         0.642
           -22.975          2.518       -17.517
             8.461         -8.858         8.650

Total shielding tensor (ppm): 
            31.772          5.021         2.733
             5.259         30.883        -1.023
             2.094         -1.042        28.573


 Diagonalized sT*s matrix:
 
 sDSO            25.497            7.919           51.573  iso=      28.329
 sPSO            -0.831           22.002          -14.931  iso=       2.080
        ---------------  ---------------  ---------------
 Total           24.666           29.921           36.642  iso=      30.409

 --------------
 Nucleus  63H :
 --------------

Diamagnetic contribution to the shielding tensor (ppm) : 
            31.109         -1.320         1.512
            24.254         36.316        -3.912
           -10.085        -10.443        33.904

Paramagnetic contribution to the shielding tensor (ppm): 
            -1.484          0.867         0.326
           -24.526         -2.961        -1.006
            12.432          6.232        -4.463

Total shielding tensor (ppm): 
            29.626         -0.453         1.838
            -0.271         33.355        -4.918
             2.347         -4.211        29.441


 Diagonalized sT*s matrix:
 
 sDSO            27.186           37.184           36.959  iso=      33.776
 sPSO            -1.411           -7.213           -0.284  iso=      -2.969
        ---------------  ---------------  ---------------
 Total           25.776           29.971           36.674  iso=      30.807

 --------------
 Nucleus  64H :
 --------------

Diamagnetic contribution to the shielding tensor (ppm) : 
            34.547          9.248        -2.078
            -5.866         34.181       -15.821
            10.975         -8.168        42.295

Paramagnetic contribution to the shielding tensor (ppm): 
            -2.122         -4.950         6.447
            10.723         -4.316        14.230
            -8.327          6.628       -13.778

Total shielding tensor (ppm): 
            32.425          4.297         4.369
             4.857         29.865        -1.591
             2.648         -1.539        28.517


 Diagonalized sT*s matrix:
 
 sDSO            24.864           51.060           35.099  iso=      37.007
 sPSO            -1.041          -20.479            1.304  iso=      -6.738
        ---------------  ---------------  ---------------
 Total           23.823           30.581           36.403  iso=      30.269

 --------------
 Nucleus  65H :
 --------------

Diamagnetic contribution to the shielding tensor (ppm) : 
            27.199         -0.986        -9.582
           -10.557         29.199        -5.233
             6.829          0.021        47.151

Paramagnetic contribution to the shielding tensor (ppm): 
             3.681          0.289         6.904
            10.041         -1.097         5.553
            -9.628          1.250       -13.015

Total shielding tensor (ppm): 
            30.881         -0.697        -2.677
            -0.516         28.102         0.320
            -2.799          1.270        34.136


 Diagonalized sT*s matrix:
 
 sDSO            27.933           32.313           43.303  iso=      34.516
 sPSO             0.029           -2.977           -7.482  iso=      -3.477
        ---------------  ---------------  ---------------
 Total           27.962           29.336           35.821  iso=      31.040

 --------------
 Nucleus  66H :
 --------------

Diamagnetic contribution to the shielding tensor (ppm) : 
            24.107         -5.950         0.507
           -22.149         27.842       -11.386
            17.029         -4.313        37.858

Paramagnetic contribution to the shielding tensor (ppm): 
             5.409          4.675         1.272
            20.296          4.926         5.984
           -14.604         -0.737        -7.454

Total shielding tensor (ppm): 
            29.516         -1.275         1.779
            -1.853         32.768        -5.402
             2.426         -5.051        30.405


 Diagonalized sT*s matrix:
 
 sDSO            27.347           14.764           47.697  iso=      29.936
 sPSO            -1.274           14.122           -9.967  iso=       0.960
        ---------------  ---------------  ---------------
 Total           26.073           28.886           37.730  iso=      30.896

 --------------
 Nucleus  67H :
 --------------

Diamagnetic contribution to the shielding tensor (ppm) : 
            40.418          3.424         1.467
             7.203         12.037        12.506
            -5.323          6.343        13.491

Paramagnetic contribution to the shielding tensor (ppm): 
            -5.287          0.083        -2.346
            -4.162         15.030       -15.749
             5.486         -8.447        15.332

Total shielding tensor (ppm): 
            35.130          3.506        -0.879
             3.041         27.067        -3.243
             0.163         -2.104        28.823


 Diagonalized sT*s matrix:
 
 sDSO            20.098            7.188           38.659  iso=      21.982
 sPSO             4.426           22.804           -2.155  iso=       8.358
        ---------------  ---------------  ---------------
 Total           24.525           29.992           36.504  iso=      30.340

 --------------
 Nucleus  68H :
 --------------

Diamagnetic contribution to the shielding tensor (ppm) : 
            31.414         -5.648        11.397
           -16.327          7.512        -1.261
            15.792          1.175        19.260

Paramagnetic contribution to the shielding tensor (ppm): 
             2.139          2.883        -6.680
            14.119         22.014        -1.289
           -11.498         -4.297        10.296

Total shielding tensor (ppm): 
            33.553         -2.765         4.717
            -2.208         29.526        -2.550
             4.295         -3.121        29.556


 Diagonalized sT*s matrix:
 
 sDSO            13.921            2.741           41.524  iso=      19.395
 sPSO            12.212           25.713           -3.477  iso=      11.483
        ---------------  ---------------  ---------------
 Total           26.133           28.455           38.047  iso=      30.878

 --------------
 Nucleus  69H :
 --------------

Diamagnetic contribution to the shielding tensor (ppm) : 
            26.737         -1.271         3.748
             4.718         18.297        18.792
            10.903         12.175        27.259

Paramagnetic contribution to the shielding tensor (ppm): 
             2.620          2.583        -1.390
            -3.833         12.861       -14.821
            -9.215         -8.092         5.588

Total shielding tensor (ppm): 
            29.357          1.311         2.358
             0.885         31.158         3.971
             1.688          4.084        32.847


 Diagonalized sT*s matrix:
 
 sDSO             7.313           23.360           41.620  iso=      24.098
 sPSO            20.402            5.482           -4.814  iso=       7.023
        ---------------  ---------------  ---------------
 Total           27.715           28.841           36.806  iso=      31.121

 --------------
 Nucleus  70H :
 --------------

Diamagnetic contribution to the shielding tensor (ppm) : 
            32.482          1.449         3.065
            -6.416         37.956         7.307
            -1.107          7.468        38.767

Paramagnetic contribution to the shielding tensor (ppm): 
            -0.416         -0.839        -3.177
             8.155         -9.208        -1.692
             2.146         -2.606        -8.742

Total shielding tensor (ppm): 
            32.066          0.610        -0.112
             1.738         28.748         5.615
             1.039          4.861        30.026


 Diagonalized sT*s matrix:
 
 sDSO            31.362           34.479           43.364  iso=      36.402
 sPSO            -7.294           -2.794           -8.278  iso=      -6.122
        ---------------  ---------------  ---------------
 Total           24.069           31.684           35.086  iso=      30.280

 --------------
 Nucleus  71H :
 --------------

Diamagnetic contribution to the shielding tensor (ppm) : 
            30.296         -6.766        -0.445
           -13.027         41.897        -6.894
            -1.406         -6.509        34.073

Paramagnetic contribution to the shielding tensor (ppm): 
             0.975          4.097         1.331
            11.018         -8.320         5.076
             1.650          4.973        -5.123

Total shielding tensor (ppm): 
            31.270         -2.669         0.886
            -2.008         33.577        -1.818
             0.244         -1.536        28.950


 Diagonalized sT*s matrix:
 
 sDSO            29.823           27.125           49.318  iso=      35.422
 sPSO            -1.435            2.798          -13.831  iso=      -4.156
        ---------------  ---------------  ---------------
 Total           28.388           29.922           35.487  iso=      31.266

 --------------
 Nucleus  72H :
 --------------

Diamagnetic contribution to the shielding tensor (ppm) : 
            37.333         -4.661        -9.690
            -9.798         26.260        -2.859
           -12.089          0.919        32.718

Paramagnetic contribution to the shielding tensor (ppm): 
            -3.052          4.315         4.930
             8.902          1.587         5.795
             7.646          0.977        -2.531

Total shielding tensor (ppm): 
            34.281         -0.346        -4.760
            -0.896         27.847         2.935
            -4.443          1.896        30.186


 Diagonalized sT*s matrix:
 
 sDSO            29.591           19.408           47.312  iso=      32.104
 sPSO            -3.910            9.601           -9.688  iso=      -1.332
        ---------------  ---------------  ---------------
 Total           25.680           29.010           37.624  iso=      30.771



--------------------------------
CHEMICAL SHIELDING SUMMARY (ppm)
--------------------------------


  Nucleus  Element    Isotropic     Anisotropy
  -------  -------  ------------   ------------
      3       H           29.372          6.472 
      4       H           29.051          7.430 
      8       H           29.569          7.981 
      9       H           29.344          5.415 
     10       H           30.107          8.376 
     11       H           29.861         10.212 
     13       H           27.733          7.777 
     16       H           26.802          4.753 
     17       H           26.521          4.812 
     19       H           25.398         10.588 
     21       H           25.587         14.916 
     24       H           28.878         10.224 
     25       H           30.027          9.398 
     27       H           30.245          7.189 
     28       H           30.121         11.805 
     30       H           29.720          8.067 
     31       H           30.417          6.806 
     33       H           29.766          3.996 
     35       H           30.152         14.911 
     37       H           30.353         10.667 
     38       H           30.281          9.863 
     40       H           29.697          9.729 
     41       H           30.751          7.682 
     42       H           30.164          7.544 
     45       H           31.238          7.490 
     46       H           31.022          8.060 
     47       H           31.270          9.558 
     48       H           29.771          3.673 
     52       H           26.317          8.696 
     53       H           25.787         13.636 
     57       H           30.197          4.808 
     58       H           30.933          4.428 
     61       H           30.932          7.482 
     62       H           30.409          9.349 
     63       H           30.807          8.801 
     64       H           30.269          9.201 
     65       H           31.040          7.172 
     66       H           30.896         10.251 
     67       H           30.340          9.245 
     68       H           30.878         10.753 
     69       H           31.121          8.528 
     70       H           30.280          7.209 
     71       H           31.266          6.332 
     72       H           30.771         10.279 



Maximum memory used throughout the entire EPRNMR-calculation: 141.0 MB

Timings for individual modules:

Sum of individual times         ...      139.787 sec (=   2.330 min)
GTO integral calculation        ...        0.840 sec (=   0.014 min)   0.6 %
SCF iterations                  ...       92.115 sec (=   1.535 min)  65.9 %
EPR/NMR calculation             ...       46.833 sec (=   0.781 min)  33.5 %
                             ****ORCA TERMINATED NORMALLY****
TOTAL RUN TIME: 0 days 0 hours 2 minutes 20 seconds 246 msec
