
                                 *****************
                                 * O   R   C   A *
                                 *****************

                                            #,                                       
                                            ###                                      
                                            ####                                     
                                            #####                                    
                                            ######                                   
                                           ########,                                 
                                     ,,################,,,,,                         
                               ,,#################################,,                 
                          ,,##########################################,,             
                       ,#########################################, ''#####,          
                    ,#############################################,,   '####,        
                  ,##################################################,,,,####,       
                ,###########''''           ''''###############################       
              ,#####''   ,,,,##########,,,,          '''####'''          '####       
            ,##' ,,,,###########################,,,                        '##       
           ' ,,###''''                  '''############,,,                           
         ,,##''                                '''############,,,,        ,,,,,,###''
      ,#''                                            '''#######################'''  
     '                                                          ''''####''''         
             ,#######,   #######,   ,#######,      ##                                
            ,#'     '#,  ##    ##  ,#'     '#,    #''#        ,####,   ,####,        
            ##       ##  ##   ,#'  ##            #'  '#       #'       #'  '#        
            ##       ##  #######   ##           ,######,      #####,   #    #        
            '#,     ,#'  ##    ##  '#,     ,#' ,#      #,     #,   #   #,  ,#        
             '#######'   ##     ##  '#######'  #'      '#     '####' # '####'        



                #########################################################
                #                        -***-                          #
                #          Department of theory and spectroscopy        #
                #                                                       #
                #                      Frank Neese                      #
                #                                                       #
                #     Directorship, Architecture, Infrastructure        #
                #                    SHARK, DRIVERS                     #
                #        Core code/Algorithms in most modules           #
                #                                                       #
                #        Max Planck Institute fuer Kohlenforschung      #
                #                Kaiser Wilhelm Platz 1                 #
                #                 D-45470 Muelheim/Ruhr                 #
                #                      Germany                          #
                #                                                       #
                #                  All rights reserved                  #
                #                        -***-                          #
                #########################################################


                         Program Version 6.0.0  -   RELEASE  -


 With contributions from (in alphabetic order):
   Daniel Aravena         : Magnetic Suceptibility
   Michael Atanasov       : Ab Initio Ligand Field Theory (pilot matlab implementation)
   Alexander A. Auer      : GIAO ZORA, VPT2 properties, NMR spectrum
   Ute Becker             : All parallelization in ORCA, NUMFREQ, NUMCALC
   Giovanni Bistoni       : ED, misc. LED, open-shell LED, HFLD
   Martin Brehm           : Molecular dynamics
   Dmytro Bykov           : pre 5.0 version of the SCF Hessian
   Marcos Casanova-Páez   : Triplet and SCS-CIS(D). UHF-(DLPNO)-IP/EA/STEOM-CCSD. UHF-CVS-IP/STEOM-CCSD
   Vijay G. Chilkuri      : MRCI spin determinant printing, contributions to CSF-ICE
   Pauline Colinet        : FMM embedding
   Dipayan Datta          : RHF DLPNO-CCSD density
   Achintya Kumar Dutta   : EOM-CC, STEOM-CC
   Nicolas Foglia         : Exact transition moments, OPA infrastructure, MCD improvements
   Dmitry Ganyushin       : Spin-Orbit,Spin-Spin,Magnetic field MRCI
   Miquel Garcia          : C-PCM and meta-GGA Hessian, CCSD/C-PCM, Gaussian charge scheme
   Tiago L. C. Gouveia    : GS-ROHF, GS-ROCIS
   Yang Guo               : DLPNO-NEVPT2, F12-NEVPT2, CIM, IAO-localization
   Andreas Hansen         : Spin unrestricted coupled pair/coupled cluster methods
   Ingolf Harden          : AUTO-CI MPn and infrastructure 
   Benjamin Helmich-Paris : MC-RPA, TRAH-(SCF,CASSCF), AVAS, COSX integrals, SCF dyn. polar.
   Lee Huntington         : MR-EOM, pCC
   Robert Izsak           : Overlap fitted RIJCOSX, COSX-SCS-MP3, EOM
   Riya Kayal             : Wick's Theorem for AUTO-CI, AUTO-CI UHF-CCSDT
   Emily Kempfer          : AUTO-CI, RHF CISDT and CCSDT
   Christian Kollmar      : KDIIS, OOCD, Brueckner-CCSD(T), CCSD density, CASPT2, CASPT2-K, improved NEVPT2
   Axel Koslowski         : Symmetry handling
   Simone Kossmann        : Meta GGA functionals, TD-DFT gradient, OOMP2, (MP2 Hessian; deprecated post 5.0)
   Lucas Lang             : DCDCAS
   Marvin Lechner         : AUTO-CI (C++ implementation), FIC-MRCC
   Spencer Leger          : CASSCF response
   Dagmar Lenk            : GEPOL surface, SMD, ORCA-2-JSON
   Dimitrios Liakos       : Extrapolation schemes; Compound Job, initial MDCI parallelization
   Dimitrios Manganas     : Further ROCIS development; embedding schemes. LFT, Crystal Embedding
   Dimitrios Pantazis     : SARC Basis sets
   Anastasios Papadopoulos: AUTO-CI, single reference methods and gradients
   Taras Petrenko         : pre 6.0 DFT Hessian and TD-DFT gradient, (ASA, deprecated), ECA, 1-Electron XAS/XES, NRVS
   Peter Pinski           : DLPNO-MP2, DLPNO-MP2 Gradient
   Christoph Reimann      : Effective Core Potentials
   Marius Retegan         : Local ZFS, SOC
   Christoph Riplinger    : Optimizer, TS searches, QM/MM, DLPNO-CCSD(T), (RO)-DLPNO pert. Triples
   Michael Roemelt        : Original ROCIS implementation
   Masaaki Saitow         : Open-shell DLPNO-CCSD energy and density
   Barbara Sandhoefer     : DKH picture change effects
   Kantharuban Sivalingam : CASSCF convergence/infrastructure, NEVPT2 and variants, FIC-MRCI
   Bernardo de Souza      : ESD, SOC TD-DFT
   Georgi Stoychev        : AutoAux, RI-MP2 NMR, DLPNO-MP2 response, X2C
   Van Anh Tran           : RI-MP2 g-tensors
   Willem Van den Heuvel  : Paramagnetic NMR
   Zikuan Wang            : NOTCH, Electric field optimization 
   Frank Wennmohs         : Technical directorship and infrastructure
   Hang Xu                : AUTO-CI-Response properties 


 We gratefully acknowledge several colleagues who have allowed us to
 interface, adapt or use parts of their codes:
   Stefan Grimme, W. Hujo, H. Kruse, P. Pracht,  : VdW corrections, initial TS optimization,
                  C. Bannwarth, S. Ehlert,         DFT functionals, gCP, sTDA/sTD-DF
                  L. Wittmann, M. Mueller
   Ed Valeev, F. Pavosevic, A. Kumar             : LibInt (2-el integral package), F12 methods
   Garnet Chan, S. Sharma, J. Yang, R. Olivares  : DMRG
   Ulf Ekstrom                                   : XCFun DFT Library
   Mihaly Kallay                                 : mrcc  (arbitrary order and MRCC methods)
   Frank Weinhold                                : gennbo (NPA and NBO analysis)
   Simon Mueller                                 : openCOSMO-RS
   Christopher J. Cramer and Donald G. Truhlar   : smd solvation model
   Lars Goerigk                                  : TD-DFT with DH, B97 family of functionals
   V. Asgeirsson, H. Jonsson                     : NEB implementation
   FAccTs GmbH                                   : IRC, NEB, NEB-TS, DLPNO-Multilevel, CI-OPT
                                                   MM, QMMM, 2- and 3-layer-ONIOM, Crystal-QMMM,
                                                   LR-CPCM, SF, NACMEs, symmetry and pop. for TD-DFT,
                                                   nearIR, NL-DFT gradient (VV10), updates on ESD,
                                                   ML-optimized integration grids, MBIS, APM,
                                                   GOAT, DOCKER, SOLVATOR, interface openCOSMO-RS
   S Lehtola, MJT Oliveira, MAL Marques          : LibXC Library
   Liviu Ungur et al                             : ANISO software


 Your calculation uses the libint2 library for the computation of 2-el integrals
 For citations please refer to: http://libint.valeyev.net

 Your ORCA version has been built with support for libXC version: 6.2.2
 For citations please refer to: https://libxc.gitlab.io

 This ORCA versions uses:
   CBLAS   interface :  Fast vector & matrix operations
   LAPACKE interface :  Fast linear algebra routines
   SCALAPACK package :  Parallel linear algebra routines
   Shared memory     :  Shared parallel matrices
   BLAS/LAPACK       :  OpenBLAS 0.3.27  USE64BITINT DYNAMIC_ARCH NO_AFFINITY Zen SINGLE_THREADED
        Core in use  :  Zen
   Copyright (c) 2011-2014, The OpenBLAS Project


NOTE: MaxCore=8000 MB was set to SCF,MP2,MDCI,CIPSI,MRCI and CIS
      => If you want to overwrite this, your respective input block should be placed after the MaxCore statement
Your calculation utilizes the atom-pairwise dispersion correction
based on EEQ partial charges (D4)


================================================================================

----- Orbital basis set information -----
Your calculation utilizes the basis: def2-SVP
   F. Weigend and R. Ahlrichs, Phys. Chem. Chem. Phys. 7, 3297 (2005).

----- AuxJ basis set information -----
Your calculation utilizes the auxiliary basis: def2/J
   F. Weigend, Phys. Chem. Chem. Phys. 8, 1057 (2006).

================================================================================
                                        WARNINGS
                       Please study these warnings very carefully!
================================================================================

WARNING: Old DensityContainer found on disk!
         Will remove this file - 
         If you want to keep old densities, please start your calculation with a different basename. 


================================================================================
                                       INPUT FILE
================================================================================
NAME = inpS
|  1> ! wb97x-d4
|  2> ! def2-svp
|  3> ! def2/J RIJCOSX
|  4> ! DEFGRID2
|  5> ! scfconv7
|  6> ! smallprint printgap noloewdin
|  7> ! NOSOSCF
|  8> %MaxCore 8000
|  9> %output
| 10>        print[P_BondOrder_M] 1
| 11>        print[P_Mayer] 1
| 12>        print[P_basis] 2
| 13> end
| 14> %pal
| 15>     nprocs 4
| 16> end
| 17> ! CPCM(chloroform)
| 18> *xyz 0 1
| 19> C   -4.9238646300   0.2798937200   0.4505105800
| 20> C   -6.3479012400  -0.1321753300   0.1602537200
| 21> C   -6.9531465700   0.6821681900  -0.9897526900
| 22> H   -6.9707601900   0.0506000200   1.0524501000
| 23> H   -6.4017619600  -1.2017413600  -0.0707950500
| 24> C   -4.7355309300   1.7367471800   0.6164089500
| 25> C   -5.3812665900   2.5782308900  -0.4611280200
| 26> C   -6.8428832900   2.1742363100  -0.6973374700
| 27> H   -4.8238654000   2.4290024800  -1.3983560500
| 28> H   -5.3107847900   3.6405640800  -0.2047837800
| 29> H   -7.2650289200   2.7465296300  -1.5317679200
| 30> H   -7.4386063000   2.4024154400   0.1994019000
| 31> O   -8.3071079100   0.2878684700  -1.2483766100
| 32> H   -6.4101418700   0.4512059000  -1.9169201500
| 33> C   -3.9313359600  -0.6399467400   0.5009611000
| 34> C   -4.0897840000   2.2817057000   1.6538502400
| 35> H   -3.6541955600   1.6663312200   2.4361386400
| 36> H   -3.9931042600   3.3607511800   1.7476882100
| 37> C   -2.5219382300  -0.3744588200   0.6732504200
| 38> H   -4.2304956800  -1.6771434900   0.3560680800
| 39> C   -1.5439449500  -1.2957929200   0.8090627500
| 40> H   -2.2332479700   0.6741116700   0.6833352100
| 41> C   -1.7444758600  -2.7889058000   0.8680854800
| 42> C   -0.8500269400  -3.5266643600  -0.1453493600
| 43> H   -2.7895069800  -3.0740614400   0.7191743900
| 44> H   -1.4661276900  -3.1253881400   1.8797575000
| 45> C    0.6227939900  -3.1049447400  -0.0517661200
| 46> H   -1.2253376900  -3.3370580900  -1.1589276900
| 47> H   -0.9333836000  -4.6077419900   0.0205652500
| 48> C    0.7896989900  -1.5833125700  -0.1703489400
| 49> H    1.1916106600  -3.6308559100  -0.8252034900
| 50> H    1.0304057900  -3.4241920300   0.9193453300
| 51> C   -0.0968965600  -0.9301542200   0.9373479200
| 52> H    0.2568021500  -1.3898387500   1.8788981500
| 53> C    0.3458931300   0.5291206400   0.9578599900
| 54> H   -8.8242031600   0.4818609200  -0.4550874100
| 55> C    1.8662583400   0.4508143100   0.6741096800
| 56> H    0.1158804200   1.0171387000   1.9107907900
| 57> H   -0.1614984500   1.0995401700   0.1718964000
| 58> C    2.1769407900  -1.0144703100   0.2405276700
| 59> H    2.4567371300   0.7272726900   1.5535374700
| 60> H    2.1451724200   1.1498945500  -0.1235675900
| 61> H    2.4947091000  -1.5809510700   1.1308416900
| 62> C    3.3463563200  -1.0882780100  -0.7717362900
| 63> C    0.3830823100  -1.0891740000  -1.5647767900
| 64> H   -0.6893559600  -1.2212242500  -1.7378833200
| 65> H    0.9212336100  -1.6417613300  -2.3428049800
| 66> H    0.6065101100  -0.0259228000  -1.6979694300
| 67> H    3.0511018500  -0.4883359800  -1.6484976800
| 68> C    3.6505393700  -2.5091910200  -1.2448522500
| 69> C    4.5480859600  -0.4091980700  -0.1592424500
| 70> C    5.6799833900  -0.9920869600   0.2377292400
| 71> H    4.4470792500   0.6654538100   0.0042199000
| 72> H    5.8186748700  -2.0643447000   0.0914950000
| 73> C    6.8186538800  -0.2710733400   0.9038024900
| 74> C    8.1386674200  -0.5624801400   0.1774461700
| 75> C    6.9115963800  -0.5933680700   2.4212273300
| 76> H    6.6219474900   0.8091571400   0.8318636200
| 77> H    7.8039028200  -0.0627558400   2.7882224400
| 78> C    7.0947266400  -2.0843862500   2.7176114700
| 79> C    5.6962339400  -0.0491972400   3.1738111700
| 80> H    8.0993941900  -0.1952877500  -0.8535353600
| 81> H    8.3428883800  -1.6380258900   0.1367081100
| 82> H    8.9803680100  -0.0760785900   0.6840409900
| 83> H    7.2453152100  -2.2412085900   3.7914089700
| 84> H    7.9589392800  -2.5073073200   2.1954334700
| 85> H    6.2058271000  -2.6546277700   2.4225437400
| 86> H    4.7814764700  -0.5603687500   2.8504269600
| 87> H    5.5622226700   1.0233841100   2.9911469100
| 88> H    5.8058093000  -0.2011131000   4.2534499300
| 89> H    4.5654480000  -2.5272311900  -1.8468419100
| 90> H    2.8393178100  -2.8995950900  -1.8626454000
| 91> H    3.7880168200  -3.1911257000  -0.3974130200
| 92> *
| 93> %eprnmr
| 94>  Nuclei = all C { shift }
| 95>  origin giao
| 96>  giao_2el giao_2el_same_as_scf
| 97>  giao_1el giao_1el_analytic
| 98> end
| 99> 
|100>                          ****END OF INPUT****
================================================================================

                       ****************************
                       * Single Point Calculation *
                       ****************************

---------------------------------
CARTESIAN COORDINATES (ANGSTROEM)
---------------------------------
  C     -4.923865    0.279894    0.450511
  C     -6.347901   -0.132175    0.160254
  C     -6.953147    0.682168   -0.989753
  H     -6.970760    0.050600    1.052450
  H     -6.401762   -1.201741   -0.070795
  C     -4.735531    1.736747    0.616409
  C     -5.381267    2.578231   -0.461128
  C     -6.842883    2.174236   -0.697337
  H     -4.823865    2.429002   -1.398356
  H     -5.310785    3.640564   -0.204784
  H     -7.265029    2.746530   -1.531768
  H     -7.438606    2.402415    0.199402
  O     -8.307108    0.287868   -1.248377
  H     -6.410142    0.451206   -1.916920
  C     -3.931336   -0.639947    0.500961
  C     -4.089784    2.281706    1.653850
  H     -3.654196    1.666331    2.436139
  H     -3.993104    3.360751    1.747688
  C     -2.521938   -0.374459    0.673250
  H     -4.230496   -1.677143    0.356068
  C     -1.543945   -1.295793    0.809063
  H     -2.233248    0.674112    0.683335
  C     -1.744476   -2.788906    0.868085
  C     -0.850027   -3.526664   -0.145349
  H     -2.789507   -3.074061    0.719174
  H     -1.466128   -3.125388    1.879757
  C      0.622794   -3.104945   -0.051766
  H     -1.225338   -3.337058   -1.158928
  H     -0.933384   -4.607742    0.020565
  C      0.789699   -1.583313   -0.170349
  H      1.191611   -3.630856   -0.825203
  H      1.030406   -3.424192    0.919345
  C     -0.096897   -0.930154    0.937348
  H      0.256802   -1.389839    1.878898
  C      0.345893    0.529121    0.957860
  H     -8.824203    0.481861   -0.455087
  C      1.866258    0.450814    0.674110
  H      0.115880    1.017139    1.910791
  H     -0.161498    1.099540    0.171896
  C      2.176941   -1.014470    0.240528
  H      2.456737    0.727273    1.553537
  H      2.145172    1.149895   -0.123568
  H      2.494709   -1.580951    1.130842
  C      3.346356   -1.088278   -0.771736
  C      0.383082   -1.089174   -1.564777
  H     -0.689356   -1.221224   -1.737883
  H      0.921234   -1.641761   -2.342805
  H      0.606510   -0.025923   -1.697969
  H      3.051102   -0.488336   -1.648498
  C      3.650539   -2.509191   -1.244852
  C      4.548086   -0.409198   -0.159242
  C      5.679983   -0.992087    0.237729
  H      4.447079    0.665454    0.004220
  H      5.818675   -2.064345    0.091495
  C      6.818654   -0.271073    0.903802
  C      8.138667   -0.562480    0.177446
  C      6.911596   -0.593368    2.421227
  H      6.621947    0.809157    0.831864
  H      7.803903   -0.062756    2.788222
  C      7.094727   -2.084386    2.717611
  C      5.696234   -0.049197    3.173811
  H      8.099394   -0.195288   -0.853535
  H      8.342888   -1.638026    0.136708
  H      8.980368   -0.076079    0.684041
  H      7.245315   -2.241209    3.791409
  H      7.958939   -2.507307    2.195433
  H      6.205827   -2.654628    2.422544
  H      4.781476   -0.560369    2.850427
  H      5.562223    1.023384    2.991147
  H      5.805809   -0.201113    4.253450
  H      4.565448   -2.527231   -1.846842
  H      2.839318   -2.899595   -1.862645
  H      3.788017   -3.191126   -0.397413

----------------------------
CARTESIAN COORDINATES (A.U.)
----------------------------
  NO LB      ZA    FRAG     MASS         X           Y           Z
   0 C     6.0000    0    12.011   -9.304756    0.528922    0.851342
   1 C     6.0000    0    12.011  -11.995795   -0.249775    0.302836
   2 C     6.0000    0    12.011  -13.139543    1.289111   -1.870362
   3 H     1.0000    0     1.008  -13.172828    0.095620    1.988842
   4 H     1.0000    0     1.008  -12.097577   -2.270962   -0.133783
   5 C     6.0000    0    12.011   -8.948857    3.281977    1.164844
   6 C     6.0000    0    12.011  -10.169120    4.872150   -0.871406
   7 C     6.0000    0    12.011  -12.931175    4.108711   -1.317777
   8 H     1.0000    0     1.008   -9.115785    4.590149   -2.642510
   9 H     1.0000    0     1.008  -10.035929    6.879669   -0.386985
  10 H     1.0000    0     1.008  -13.728915    5.190189   -2.894622
  11 H     1.0000    0     1.008  -14.056929    4.539907    0.376815
  12 O     8.0000    0    15.999  -15.698159    0.543993   -2.359090
  13 H     1.0000    0     1.008  -12.113413    0.852656   -3.622454
  14 C     6.0000    0    12.011   -7.429148   -1.209324    0.946679
  15 C     6.0000    0    12.011   -7.728572    4.311799    3.125324
  16 H     1.0000    0     1.008   -6.905429    3.148910    4.603635
  17 H     1.0000    0     1.008   -7.545873    6.350899    3.302652
  18 C     6.0000    0    12.011   -4.765773   -0.707625    1.272259
  19 H     1.0000    0     1.008   -7.994478   -3.169342    0.672871
  20 C     6.0000    0    12.011   -2.917633   -2.448694    1.528907
  21 H     1.0000    0     1.008   -4.220227    1.273886    1.291316
  22 C     6.0000    0    12.011   -3.296582   -5.270268    1.640444
  23 C     6.0000    0    12.011   -1.606318   -6.664430   -0.274670
  24 H     1.0000    0     1.008   -5.271404   -5.809134    1.359043
  25 H     1.0000    0     1.008   -2.770580   -5.906128    3.552227
  26 C     6.0000    0    12.011    1.176910   -5.867495   -0.097824
  27 H     1.0000    0     1.008   -2.315553   -6.306126   -2.190056
  28 H     1.0000    0     1.008   -1.763839   -8.707370    0.038863
  29 C     6.0000    0    12.011    1.492315   -2.992027   -0.321913
  30 H     1.0000    0     1.008    2.251818   -6.861323   -1.559409
  31 H     1.0000    0     1.008    1.947185   -6.470785    1.737311
  32 C     6.0000    0    12.011   -0.183108   -1.757737    1.771331
  33 H     1.0000    0     1.008    0.485286   -2.626415    3.550603
  34 C     6.0000    0    12.011    0.653643    0.999893    1.810093
  35 H     1.0000    0     1.008  -16.675327    0.910585   -0.859991
  36 C     6.0000    0    12.011    3.526717    0.851916    1.273883
  37 H     1.0000    0     1.008    0.218982    1.922114    3.610871
  38 H     1.0000    0     1.008   -0.305188    2.077830    0.324837
  39 C     6.0000    0    12.011    4.113822   -1.917071    0.454531
  40 H     1.0000    0     1.008    4.642560    1.374346    2.935760
  41 H     1.0000    0     1.008    4.053788    2.172986   -0.233509
  42 H     1.0000    0     1.008    4.714317   -2.987565    2.136981
  43 C     6.0000    0    12.011    6.323697   -2.056547   -1.458370
  44 C     6.0000    0    12.011    0.723921   -2.058241   -2.957000
  45 H     1.0000    0     1.008   -1.302694   -2.307779   -3.284124
  46 H     1.0000    0     1.008    1.740879   -3.102479   -4.427260
  47 H     1.0000    0     1.008    1.146138   -0.048987   -3.208697
  48 H     1.0000    0     1.008    5.765747   -0.922821   -3.115209
  49 C     6.0000    0    12.011    6.898520   -4.741684   -2.352430
  50 C     6.0000    0    12.011    8.594637   -0.773272   -0.300925
  51 C     6.0000    0    12.011   10.733613   -1.874773    0.449243
  52 H     1.0000    0     1.008    8.403762    1.257525    0.007974
  53 H     1.0000    0     1.008   10.995702   -3.901046    0.172900
  54 C     6.0000    0    12.011   12.885388   -0.512254    1.707939
  55 C     6.0000    0    12.011   15.379853   -1.062933    0.335325
  56 C     6.0000    0    12.011   13.061024   -1.121303    4.575457
  57 H     1.0000    0     1.008   12.513667    1.529085    1.571994
  58 H     1.0000    0     1.008   14.747239   -0.118591    5.268977
  59 C     6.0000    0    12.011   13.407090   -3.938919    5.135541
  60 C     6.0000    0    12.011   10.764322   -0.092969    5.997634
  61 H     1.0000    0     1.008   15.305637   -0.369040   -1.612948
  62 H     1.0000    0     1.008   15.765774   -3.095420    0.258341
  63 H     1.0000    0     1.008   16.970436   -0.143768    1.292650
  64 H     1.0000    0     1.008   13.691662   -4.235270    7.164725
  65 H     1.0000    0     1.008   15.040216   -4.738124    4.148768
  66 H     1.0000    0     1.008   11.727314   -5.016519    4.577944
  67 H     1.0000    0     1.008    9.035681   -1.058943    5.386526
  68 H     1.0000    0     1.008   10.511078    1.933916    5.652448
  69 H     1.0000    0     1.008   10.971390   -0.380049    8.037855
  70 H     1.0000    0     1.008    8.627446   -4.775775   -3.490025
  71 H     1.0000    0     1.008    5.365533   -5.479441   -3.519890
  72 H     1.0000    0     1.008    7.158314   -6.030354   -0.751002

--------------------------------
INTERNAL COORDINATES (ANGSTROEM)
--------------------------------
 C      0   0   0     0.000000000000     0.00000000     0.00000000
 C      1   0   0     1.510605909351     0.00000000     0.00000000
 C      2   1   0     1.533620559687   111.79404721     0.00000000
 H      2   1   3     1.103346944822   109.36615864   241.44486699
 H      2   1   3     1.095561957996   110.68188927   122.90996298
 C      1   2   3     1.478314532039   114.23520952    50.26317418
 C      6   1   2     1.512003736274   114.46095224   312.21353803
 C      3   2   1     1.524444792875   110.32436922   305.12588402
 H      7   6   1     1.100618728344   108.36758917   289.97726195
 H      7   6   1     1.095094452588   110.21706606   172.77148980
 H      8   3   2     1.096357949272   109.69830531   179.18189266
 H      8   3   2     1.100496759522   108.66817986   296.64914577
 O      3   2   1     1.433725884332   111.21860129   180.41412356
 H      3   2   1     1.099016461436   109.02797640    65.25785034
 C      1   2   3     1.354165753367   120.85096639   232.29846059
 C      6   1   2     1.338003481431   123.35854840   129.97681615
 H     16   6   1     1.086461311079   121.40547852     0.65912879
 H     16   6   1     1.087424335137   120.92873639   181.35714767
 C     15   1   2     1.444496246718   126.49372861   175.30680247
 H     15   1   2     1.089159135997   116.14126908   357.95320343
 C     19  15   1     1.350471165382   126.38413697   175.44400626
 H     19  15   1     1.087632218035   115.93036335   354.82886114
 C     21  19  15     1.507674500993   125.67999582   357.11466357
 C     23  21  19     1.539927510719   111.80447203   128.03267936
 H     23  21  19     1.093425028759   112.33745622     3.91139760
 H     23  21  19     1.101897610908   107.74378589   246.71357775
 C     24  23  21     1.534863756999   112.68097517    50.87369285
 H     24  23  21     1.097337563257   109.05250653   288.81515621
 H     24  23  21     1.096906938926   109.17719030   172.82358028
 C     27  24  23     1.535344790268   111.83354603   306.06768979
 H     27  24  23     1.094687319792   108.87666488   182.52000603
 H     27  24  23     1.100510636020   109.23902255    66.04689122
 C     21  19  15     1.498031303672   122.79491755   177.86703474
 H     33  21  19     1.105861419975   106.28453964   123.80773656
 C     33  21  19     1.525111986581   121.00723109     1.65138199
 H     13   3   2     0.966606602019   107.57542021    62.74283126
 C     35  33  21     1.548598234379   103.54399753   196.32305120
 H     35  33  21     1.095054602856   112.15654727    74.36918731
 H     35  33  21     1.095702249914   110.73404187   314.72190229
 C     30  27  24     1.554619219318   116.05464471   166.11392937
 H     37  35  33     1.094754618687   111.68953984   249.08539548
 H     37  35  33     1.096720234634   110.53116312   130.54534639
 H     40  30  27     1.102059982260   106.42306143   320.47236575
 C     40  30  27     1.548437465027   118.92690315    80.69750389
 C     30  27  24     1.534255219861   111.13581608   294.23037048
 H     45  30  27     1.094315759831   111.38502186    66.56684263
 H     45  30  27     1.095576306518   110.65899515   306.47641228
 H     45  30  27     1.094606493432   111.67491080   186.56817941
 H     44  40  30     1.102640547237   106.95690570    62.15167629
 C     44  40  30     1.528188411650   113.39304089   302.91180877
 C     44  40  30     1.510116683109   108.32527590   177.07346958
 C     51  44  40     1.333618301010   126.84137151   111.52205475
 H     51  44  40     1.091695451360   115.45288781   294.08583907
 H     52  51  44     1.091034573496   119.83775848     2.62604773
 C     52  51  44     1.503357808171   124.41018856   183.13028933
 C     55  52  51     1.534583713088   110.53201422   232.15915776
 C     55  52  51     1.554056094979   112.23755823   106.60166070
 H     55  52  51     1.100348351571   107.84635519   350.03115823
 H     57  55  52     1.101111044471   105.90039494   176.88191222
 C     57  55  52     1.531181068216   113.45979940    58.68366432
 C     57  55  52     1.529578435065   111.04618155   293.83630637
 H     56  55  52     1.095123533246   110.55359938    62.37434089
 H     56  55  52     1.095520173424   111.36951754   302.91880053
 H     56  55  52     1.096213785126   110.94489011   182.53251096
 H     60  57  55     1.095587164375   110.21479407   174.84513854
 H     60  57  55     1.094712556916   112.22744423    54.83888100
 H     60  57  55     1.096532146648   110.93811888   293.79291601
 H     61  57  55     1.096656230928   110.60133890    65.12236658
 H     61  57  55     1.096246324845   111.29896670   305.37223354
 H     61  57  55     1.095766873077   110.85470341   184.91320460
 H     50  44  40     1.095342320797   110.59269058   187.78527381
 H     50  44  40     1.091862689842   111.08445442    68.27343909
 H     50  44  40     1.096397831806   111.34488819   307.92877997

---------------------------
INTERNAL COORDINATES (A.U.)
---------------------------
 C      0   0   0     0.000000000000     0.00000000     0.00000000
 C      1   0   0     2.854631464956     0.00000000     0.00000000
 C      2   1   0     2.898122851159   111.79404721     0.00000000
 H      2   1   3     2.085023556412   109.36615864   241.44486699
 H      2   1   3     2.070312063354   110.68188927   122.90996298
 C      1   2   3     2.793609605350   114.23520952    50.26317418
 C      6   1   2     2.857272975024   114.46095224   312.21353803
 C      3   2   1     2.880783164816   110.32436922   305.12588402
 H      7   6   1     2.079867974435   108.36758917   289.97726195
 H      7   6   1     2.069428606167   110.21706606   172.77148980
 H      8   3   2     2.071816268872   109.69830531   179.18189266
 H      8   3   2     2.079637486765   108.66817986   296.64914577
 O      3   2   1     2.709349272501   111.21860129   180.41412356
 H      3   2   1     2.076840128785   109.02797640    65.25785034
 C      1   2   3     2.559002413800   120.85096639   232.29846059
 C      6   1   2     2.528460146138   123.35854840   129.97681615
 H     16   6   1     2.053114333040   121.40547852     0.65912879
 H     16   6   1     2.054934184771   120.92873639   181.35714767
 C     15   1   2     2.729702307773   126.49372861   175.30680247
 H     15   1   2     2.058212483293   116.14126908   357.95320343
 C     19  15   1     2.552020654329   126.38413697   175.44400626
 H     19  15   1     2.055327026515   115.93036335   354.82886114
 C     21  19  15     2.849091905973   125.67999582   357.11466357
 C     23  21  19     2.910041261349   111.80447203   128.03267936
 H     23  21  19     2.066273852330   112.33745622     3.91139760
 H     23  21  19     2.082284712239   107.74378589   246.71357775
 C     24  23  21     2.900472153609   112.68097517    50.87369285
 H     24  23  21     2.073667471020   109.05250653   288.81515621
 H     24  23  21     2.072853708968   109.17719030   172.82358028
 C     27  24  23     2.901381174749   111.83354603   306.06768979
 H     27  24  23     2.068659236683   108.87666488   182.52000603
 H     27  24  23     2.079663709545   109.23902255    66.04689122
 C     21  19  15     2.830868903981   122.79491755   177.86703474
 H     33  21  19     2.089775225823   106.28453964   123.80773656
 C     33  21  19     2.882043978199   121.00723109     1.65138199
 H     13   3   2     1.826621757056   107.57542021    62.74283126
 C     35  33  21     2.926426554450   103.54399753   196.32305120
 H     35  33  21     2.069353301088   112.15654727    74.36918731
 H     35  33  21     2.070577176658   110.73404187   314.72190229
 C     30  27  24     2.937804567042   116.05464471   166.11392937
 H     37  35  33     2.068786413164   111.68953984   249.08539548
 H     37  35  33     2.072500888988   110.53116312   130.54534639
 H     40  30  27     2.082591549626   106.42306143   320.47236575
 C     40  30  27     2.926122744404   118.92690315    80.69750389
 C     30  27  24     2.899322185077   111.13581608   294.23037048
 H     45  30  27     2.067957090114   111.38502186    66.56684263
 H     45  30  27     2.070339178131   110.65899515   306.47641228
 H     45  30  27     2.068506496999   111.67491080   186.56817941
 H     44  40  30     2.083688658434   106.95690570    62.15167629
 C     44  40  30     2.887857579051   113.39304089   302.91180877
 C     44  40  30     2.853706961341   108.32527590   177.07346958
 C     51  44  40     2.520173356093   126.84137151   111.52205475
 H     51  44  40     2.063005424718   115.45288781   294.08583907
 H     52  51  44     2.061756546546   119.83775848     2.62604773
 C     52  51  44     2.840934538735   124.41018856   183.13028933
 C     55  52  51     2.899942947311   110.53201422   232.15915776
 C     55  52  51     2.936740416261   112.23755823   106.60166070
 H     55  52  51     2.079357036381   107.84635519   350.03115823
 H     57  55  52     2.080798317085   105.90039494   176.88191222
 C     57  55  52     2.893512880372   113.45979940    58.68366432
 C     57  55  52     2.890484342624   111.04618155   293.83630637
 H     56  55  52     2.069483560648   110.55359938    62.37434089
 H     56  55  52     2.070233101957   111.36951754   302.91880053
 H     56  55  52     2.071543838117   110.94489011   182.53251096
 H     60  57  55     2.070359696509   110.21479407   174.84513854
 H     60  57  55     2.068706927936   112.22744423    54.83888100
 H     60  57  55     2.072145454205   110.93811888   293.79291601
 H     61  57  55     2.072379939513   110.60133890    65.12236658
 H     61  57  55     2.071605329275   111.29896670   305.37223354
 H     61  57  55     2.070699296739   110.85470341   184.91320460
 H     50  44  40     2.069897009200   110.59269058   187.78527381
 H     50  44  40     2.063321459647   111.08445442    68.27343909
 H     50  44  40     2.071891635938   111.34488819   307.92877997

---------------------
BASIS SET INFORMATION
---------------------
There are 3 groups of distinct atoms

 Group   1 Type C   : 7s4p1d contracted to 3s2p1d pattern {511/31/1}
 Group   2 Type H   : 4s1p contracted to 2s1p pattern {31/1}
 Group   3 Type O   : 7s4p1d contracted to 3s2p1d pattern {511/31/1}

Atom   0C    basis set group =>   1
Atom   1C    basis set group =>   1
Atom   2C    basis set group =>   1
Atom   3H    basis set group =>   2
Atom   4H    basis set group =>   2
Atom   5C    basis set group =>   1
Atom   6C    basis set group =>   1
Atom   7C    basis set group =>   1
Atom   8H    basis set group =>   2
Atom   9H    basis set group =>   2
Atom  10H    basis set group =>   2
Atom  11H    basis set group =>   2
Atom  12O    basis set group =>   3
Atom  13H    basis set group =>   2
Atom  14C    basis set group =>   1
Atom  15C    basis set group =>   1
Atom  16H    basis set group =>   2
Atom  17H    basis set group =>   2
Atom  18C    basis set group =>   1
Atom  19H    basis set group =>   2
Atom  20C    basis set group =>   1
Atom  21H    basis set group =>   2
Atom  22C    basis set group =>   1
Atom  23C    basis set group =>   1
Atom  24H    basis set group =>   2
Atom  25H    basis set group =>   2
Atom  26C    basis set group =>   1
Atom  27H    basis set group =>   2
Atom  28H    basis set group =>   2
Atom  29C    basis set group =>   1
Atom  30H    basis set group =>   2
Atom  31H    basis set group =>   2
Atom  32C    basis set group =>   1
Atom  33H    basis set group =>   2
Atom  34C    basis set group =>   1
Atom  35H    basis set group =>   2
Atom  36C    basis set group =>   1
Atom  37H    basis set group =>   2
Atom  38H    basis set group =>   2
Atom  39C    basis set group =>   1
Atom  40H    basis set group =>   2
Atom  41H    basis set group =>   2
Atom  42H    basis set group =>   2
Atom  43C    basis set group =>   1
Atom  44C    basis set group =>   1
Atom  45H    basis set group =>   2
Atom  46H    basis set group =>   2
Atom  47H    basis set group =>   2
Atom  48H    basis set group =>   2
Atom  49C    basis set group =>   1
Atom  50C    basis set group =>   1
Atom  51C    basis set group =>   1
Atom  52H    basis set group =>   2
Atom  53H    basis set group =>   2
Atom  54C    basis set group =>   1
Atom  55C    basis set group =>   1
Atom  56C    basis set group =>   1
Atom  57H    basis set group =>   2
Atom  58H    basis set group =>   2
Atom  59C    basis set group =>   1
Atom  60C    basis set group =>   1
Atom  61H    basis set group =>   2
Atom  62H    basis set group =>   2
Atom  63H    basis set group =>   2
Atom  64H    basis set group =>   2
Atom  65H    basis set group =>   2
Atom  66H    basis set group =>   2
Atom  67H    basis set group =>   2
Atom  68H    basis set group =>   2
Atom  69H    basis set group =>   2
Atom  70H    basis set group =>   2
Atom  71H    basis set group =>   2
Atom  72H    basis set group =>   2

-------------------------
BASIS SET IN INPUT FORMAT
-------------------------

 # Basis set for element : H 
 NewGTO H 
 S 3 
   1      13.0107010000      0.0334854848
   2       1.9622572000      0.2347218709
   3       0.4445379600      0.8137702853
 S 1 
   1       0.1219496200      1.0000000000
 P 1 
   1       0.8000000000      1.0000000000
  end;

 # Basis set for element : C 
 NewGTO C 
 S 5 
   1    1238.4016938000      0.0055173650
   2     186.2900499200      0.0410888285
   3      42.2511763460      0.1822538213
   4      11.6765579320      0.4682845944
   5       3.5930506482      0.4457581734
 S 1 
   1       0.4024514736      1.0000000000
 S 1 
   1       0.1309018267      1.0000000000
 P 3 
   1       9.4680970621      0.0568883320
   2       2.0103545142      0.3129405934
   3       0.5477100471      0.7606501651
 P 1 
   1       0.1526861379      1.0000000000
 D 1 
   1       0.8000000000      1.0000000000
  end;

 # Basis set for element : O 
 NewGTO O 
 S 5 
   1    2266.1767785000     -0.0053893504
   2     340.8701019100     -0.0402347214
   3      77.3631351670     -0.1800818421
   4      21.4796449400     -0.4682885766
   5       6.6589433124     -0.4469261716
 S 1 
   1       0.8097597567      1.0000000000
 S 1 
   1       0.2553077223      1.0000000000
 P 3 
   1      17.7215043170      0.0626302488
   2       3.8635505440      0.3333113849
   3       1.0480920883      0.7414863830
 P 1 
   1       0.2764154441      1.0000000000
 D 1 
   1       1.2000000000      1.0000000000
  end;

---------------------------------
AUXILIARY/J BASIS SET INFORMATION
---------------------------------
There are 3 groups of distinct atoms

 Group   1 Type C   : 12s5p4d2f1g contracted to 6s4p3d1f1g pattern {711111/2111/211/2/1}
 Group   2 Type H   : 5s2p1d contracted to 3s1p1d pattern {311/2/1}
 Group   3 Type O   : 12s5p4d2f1g contracted to 6s4p3d1f1g pattern {711111/2111/211/2/1}

Atom   0C    basis set group =>   1
Atom   1C    basis set group =>   1
Atom   2C    basis set group =>   1
Atom   3H    basis set group =>   2
Atom   4H    basis set group =>   2
Atom   5C    basis set group =>   1
Atom   6C    basis set group =>   1
Atom   7C    basis set group =>   1
Atom   8H    basis set group =>   2
Atom   9H    basis set group =>   2
Atom  10H    basis set group =>   2
Atom  11H    basis set group =>   2
Atom  12O    basis set group =>   3
Atom  13H    basis set group =>   2
Atom  14C    basis set group =>   1
Atom  15C    basis set group =>   1
Atom  16H    basis set group =>   2
Atom  17H    basis set group =>   2
Atom  18C    basis set group =>   1
Atom  19H    basis set group =>   2
Atom  20C    basis set group =>   1
Atom  21H    basis set group =>   2
Atom  22C    basis set group =>   1
Atom  23C    basis set group =>   1
Atom  24H    basis set group =>   2
Atom  25H    basis set group =>   2
Atom  26C    basis set group =>   1
Atom  27H    basis set group =>   2
Atom  28H    basis set group =>   2
Atom  29C    basis set group =>   1
Atom  30H    basis set group =>   2
Atom  31H    basis set group =>   2
Atom  32C    basis set group =>   1
Atom  33H    basis set group =>   2
Atom  34C    basis set group =>   1
Atom  35H    basis set group =>   2
Atom  36C    basis set group =>   1
Atom  37H    basis set group =>   2
Atom  38H    basis set group =>   2
Atom  39C    basis set group =>   1
Atom  40H    basis set group =>   2
Atom  41H    basis set group =>   2
Atom  42H    basis set group =>   2
Atom  43C    basis set group =>   1
Atom  44C    basis set group =>   1
Atom  45H    basis set group =>   2
Atom  46H    basis set group =>   2
Atom  47H    basis set group =>   2
Atom  48H    basis set group =>   2
Atom  49C    basis set group =>   1
Atom  50C    basis set group =>   1
Atom  51C    basis set group =>   1
Atom  52H    basis set group =>   2
Atom  53H    basis set group =>   2
Atom  54C    basis set group =>   1
Atom  55C    basis set group =>   1
Atom  56C    basis set group =>   1
Atom  57H    basis set group =>   2
Atom  58H    basis set group =>   2
Atom  59C    basis set group =>   1
Atom  60C    basis set group =>   1
Atom  61H    basis set group =>   2
Atom  62H    basis set group =>   2
Atom  63H    basis set group =>   2
Atom  64H    basis set group =>   2
Atom  65H    basis set group =>   2
Atom  66H    basis set group =>   2
Atom  67H    basis set group =>   2
Atom  68H    basis set group =>   2
Atom  69H    basis set group =>   2
Atom  70H    basis set group =>   2
Atom  71H    basis set group =>   2
Atom  72H    basis set group =>   2

-------------------------------------
AUXILIARY/J BASIS SET IN INPUT FORMAT
-------------------------------------

 # Auxiliary/J basis set for element : H 
 NewAuxJGTO H 
 S 3 
   1      15.6752927000      0.1007184237
   2       3.6063578000      0.3404257499
   3       1.2080016000      0.6491996172
 S 1 
   1       0.4726794000      1.0000000000
 S 1 
   1       0.2018100000      1.0000000000
 P 2 
   1       2.0281365000      0.5596620919
   2       0.5358730000      0.5596620919
 D 1 
   1       2.2165124000      1.0000000000
  end;

 # Auxiliary/J basis set for element : C 
 NewAuxJGTO C 
 S 7 
   1    1861.0916331000      0.0134602335
   2     642.9939764000      0.0299160374
   3     235.1105725000      0.1008649584
   4      90.7028894000      0.2370970548
   5      36.7794552000      0.3924037254
   6      15.6046273000      0.3195862154
   7       6.8907294000      0.0530104441
 S 1 
   1       3.1478850000     -1.0000000000
 S 1 
   1       1.4777287000      1.0000000000
 S 1 
   1       0.7076466000      1.0000000000
 S 1 
   1       0.3430122000      1.0000000000
 S 1 
   1       0.1669453000      1.0000000000
 P 2 
   1      13.5472892000     -0.6769313712
   2       5.4669419000     -0.3779500978
 P 1 
   1       2.1751721000      1.0000000000
 P 1 
   1       0.8582194000      1.0000000000
 P 1 
   1       0.3376720000      1.0000000000
 D 2 
   1       5.9287253000     -0.3533329857
   2       1.9809209000     -0.7456525731
 D 1 
   1       0.8055417000     -1.0000000000
 D 1 
   1       0.3531244000     -1.0000000000
 F 2 
   1       1.6755626000      0.6311076882
   2       0.5997536000      0.4968166032
 G 1 
   1       1.0024600000     -1.0000000000
  end;

 # Auxiliary/J basis set for element : O 
 NewAuxJGTO O 
 S 7 
   1    2876.8216605000      0.0168151159
   2    1004.7443032000      0.0340137548
   3     369.7579954000      0.1194951309
   4     142.9442404000      0.2664627624
   5      57.8366425000      0.4202764046
   6      24.3864983000      0.2765077335
   7      10.6622662000      0.0057008815
 S 1 
   1       4.8070437000     -1.0000000000
 S 1 
   1       2.2210770000      1.0000000000
 S 1 
   1       1.0447795000      1.0000000000
 S 1 
   1       0.4968425000      1.0000000000
 S 1 
   1       0.2371384000      1.0000000000
 P 2 
   1      64.2613382000     -0.2731534179
   2      16.3006076000     -0.8168011598
 P 1 
   1       4.3550542000      1.0000000000
 P 1 
   1       1.2019554000      1.0000000000
 P 1 
   1       0.3354196000      1.0000000000
 D 2 
   1       9.2146611000     -0.4661230638
   2       2.8435251000     -0.6600908911
 D 1 
   1       0.9955759000     -1.0000000000
 D 1 
   1       0.3649441000     -1.0000000000
 F 2 
   1       2.6420115000      0.5931563945
   2       0.7345613000      0.5931563945
 G 1 
   1       1.3931000000     -1.0000000000
  end;


Checking for AutoStart:
The File: inpS.gbw exists
Trying to determine its content:
     ... Fine, the file contains calculation information
     ... Fine, the calculation information was read
     ... Fine, the file contains a basis set
     ... Fine, the basis set was read
     ... Fine, the file contains a geometry
     ... Fine, the geometry was read
     ... Fine, the file contains a set of orbitals
     ... Fine, the orbitals can be read
     => possible old guess file was deleted
     => GBW file was renamed to GES file
     => GES file is set as startup file
     => Guess is set to MORead
     ... now leaving AutoStart



           ************************************************************
           *        Program running with 4 parallel MPI-processes     *
           *              working on a common directory               *
           ************************************************************
------------------------------------------------------------------------------
                             ORCA STARTUP CALCULATIONS
                           -- RI-GTO INTEGRALS CHOSEN --
------------------------------------------------------------------------------
------------------------------------------------------------------------------
                   ___                                                        
                  /   \      - P O W E R E D   B Y -                         
                 /     \                                                     
                 |  |  |   _    _      __       _____    __    __             
                 |  |  |  | |  | |    /  \     |  _  \  |  |  /  |          
                  \  \/   | |  | |   /    \    | | | |  |  | /  /          
                 / \  \   | |__| |  /  /\  \   | |_| |  |  |/  /          
                |  |  |   |  __  | /  /__\  \  |    /   |      \           
                |  |  |   | |  | | |   __   |  |    \   |  |\   \          
                \     /   | |  | | |  |  |  |  | |\  \  |  | \   \       
                 \___/    |_|  |_| |__|  |__|  |_| \__\ |__|  \__/        
                                                                              
                      - O R C A' S   B I G   F R I E N D -                    
                                      &                                       
                       - I N T E G R A L  F E E D E R -                       
                                                                              
 v1 FN, 2020, v2 2021, v3 2022-2024                                           
------------------------------------------------------------------------------


----------------------
SHARK INTEGRAL PACKAGE
----------------------

Number of atoms                             ...     73
Number of basis functions                   ...    626
Number of shells                            ...    306
Maximum angular momentum                    ...      2
Integral batch strategy                     ... SHARK/LIBINT Hybrid
RI-J (if used) integral strategy            ... SPLIT-RIJ (Revised 2003 algorithm where possible)
Printlevel                                  ...      1
Contraction scheme used                     ... SEGMENTED contraction
Prescreening option                         ... SCHWARTZ
   Thresh                                   ... 3.000e-11
   Tcut                                     ... 1.000e-12
   Tpresel                                  ... 1.000e-12 
Coulomb Range Separation                    ... NOT USED
Exchange Range Separation                   ... Long Range
   Mu parameter                             ... 3.000e-01
   Scaling (regular/separated)              ... 1.670e-01 8.330e-01
Multipole approximations                    ... NOT USED
Finite Nucleus Model                        ... NOT USED
CABS basis                                  ... NOT available
Auxiliary Coulomb fitting basis             ... AVAILABLE
   # of basis functions in Aux-J            ...   1905
   # of shells in Aux-J                     ...    655
   Maximum angular momentum in Aux-J        ...      4
Auxiliary J/K fitting basis                 ... NOT available
Auxiliary Correlation fitting basis         ... NOT available
Auxiliary 'external' fitting basis          ... NOT available

Checking pre-screening integrals            ... done (  0.0 sec) Dimension = 306
Check shell pair data                       ... done (  0.0 sec)
Shell pair information
Shell pair cut-off parameter TPreSel        ...   1.0e-12
Total number of shell pairs                 ...     46971
Shell pairs after pre-screening             ...     27686
Total number of primitive shell pairs       ...    162105
Primitive shell pairs kept                  ...     60965
          la=0 lb=0:   9687 shell pairs
          la=1 lb=0:  10631 shell pairs
          la=1 lb=1:   2933 shell pairs
          la=2 lb=0:   2763 shell pairs
          la=2 lb=1:   1477 shell pairs
          la=2 lb=2:    195 shell pairs

Calculating one electron integrals          ... done (  0.1 sec)
Calculating RI/J V-Matrix + Cholesky decomp.... done (  0.2 sec)
Calculating Nuclear repulsion               ... done (  0.0 sec) ENN=   2775.120272116210 Eh

Diagonalization of the overlap matrix:
Smallest eigenvalue                        ... 4.457e-04
Time for diagonalization                   ...    0.048 sec
Threshold for overlap eigenvalues          ... 1.000e-07
Number of eigenvalues below threshold      ... 0
Time for construction of square roots      ...    0.028 sec
Total time needed                          ...    0.079 sec

-------------------
DFT GRID GENERATION
-------------------

General Integration Accuracy     IntAcc      ... 4.388
Radial Grid Type                 RadialGrid  ... OptM3 with GC (2021)
Angular Grid (max. ang.)         AngularGrid ... 4 (Lebedev-302)
Angular grid pruning method      GridPruning ... 4 (adaptive)
Weight generation scheme         WeightScheme... mBecke (2022)
Basis function cutoff            BFCut       ... 1.0000e-11
Integration weight cutoff        WCut        ... 1.0000e-14
Partially contracted basis set               ... off
Rotationally invariant grid construction     ... off
Angular grids for H and He will be reduced by one unit

Total number of grid points                  ...   309765
Total number of batches                      ...     4875
Average number of points per batch           ...       63
Average number of grid points per atom       ...     4243

--------------------
COSX GRID GENERATION
--------------------

GRIDX 1
-------
General Integration Accuracy     IntAcc      ... 3.816
Radial Grid Type                 RadialGrid  ... OptM3 with GC (2021)
Angular Grid (max. ang.)         AngularGrid ... 1 (Lebedev-50)
Angular grid pruning method      GridPruning ... 4 (adaptive)
Weight generation scheme         WeightScheme... mBecke (2022)
Basis function cutoff            BFCut       ... 1.0000e-11
Integration weight cutoff        WCut        ... 1.0000e-14
Partially contracted basis set               ... on
Rotationally invariant grid construction     ... off
Angular grids for H and He will be reduced by one unit

Total number of grid points                  ...    39416
Total number of batches                      ...      352
Average number of points per batch           ...      111
Average number of grid points per atom       ...      540
UseSFitting                                  ... on

GRIDX 2
-------
General Integration Accuracy     IntAcc      ... 4.020
Radial Grid Type                 RadialGrid  ... OptM3 with GC (2021)
Angular Grid (max. ang.)         AngularGrid ... 2 (Lebedev-110)
Angular grid pruning method      GridPruning ... 4 (adaptive)
Weight generation scheme         WeightScheme... mBecke (2022)
Basis function cutoff            BFCut       ... 1.0000e-11
Integration weight cutoff        WCut        ... 1.0000e-14
Partially contracted basis set               ... on
Rotationally invariant grid construction     ... off
Angular grids for H and He will be reduced by one unit

Total number of grid points                  ...    81425
Total number of batches                      ...      677
Average number of points per batch           ...      120
Average number of grid points per atom       ...     1115
UseSFitting                                  ... on

GRIDX 3
-------
General Integration Accuracy     IntAcc      ... 4.338
Radial Grid Type                 RadialGrid  ... OptM3 with GC (2021)
Angular Grid (max. ang.)         AngularGrid ... 3 (Lebedev-194)
Angular grid pruning method      GridPruning ... 4 (adaptive)
Weight generation scheme         WeightScheme... mBecke (2022)
Basis function cutoff            BFCut       ... 1.0000e-11
Integration weight cutoff        WCut        ... 1.0000e-14
Partially contracted basis set               ... on
Rotationally invariant grid construction     ... off
Angular grids for H and He will be reduced by one unit

Total number of grid points                  ...   176208
Total number of batches                      ...     1419
Average number of points per batch           ...      124
Average number of grid points per atom       ...     2414
UseSFitting                                  ... on
Initializing property integral containers    ... done (  0.0 sec)

SHARK setup successfully completed in   4.5 seconds

Maximum memory used throughout the entire STARTUP-calculation: 95.6 MB


           ************************************************************
           *        Program running with 4 parallel MPI-processes     *
           *              working on a common directory               *
           ************************************************************
-------------------------------------------------------------------------------
                                 ORCA GUESS
                   Start orbitals & Density for SCF / CASSCF
-------------------------------------------------------------------------------

------------
SCF SETTINGS
------------
Hamiltonian:
 Density Functional     Method          .... DFT(GTOs)
 Exchange Functional    Exchange        .... WB97X-V
 Correlation Functional Correlation     .... WB97X-V
 Gradients option       PostSCFGGA      .... off
 Hybrid DFT is turned on
   Fraction HF Exchange ScalHFX         ....  0.167000
   Scaling of DF-GGA-X  ScalDFX         ....  0.000000
   Scaling of DF-GGA-C  ScalDFC         ....  1.000000
   Scaling of DF-LDA-C  ScalLDAC        ....  1.000000
   Perturbative correction              ....  0.000000
 Long-range corrected/Screened/Range-Separated Hybrid DFT is turned on
   Amount of maximum screened exact exchange              ....  0.833000
   Range separation parameter mu (erf(mu*r12)/r12)        ....  0.300000
 RI-approximation to the Coulomb term is turned on
   Number of AuxJ basis functions       .... 1905
   RIJ-COSX (HFX calculated with COS-X)).... on


General Settings:
 Integral files         IntName         .... inpS
 Hartree-Fock type      HFTyp           .... RHF
 Total Charge           Charge          ....    0
 Multiplicity           Mult            ....    1
 Number of Electrons    NEL             ....  220
 Basis Dimension        Dim             ....  626
 Nuclear Repulsion      ENuc            ....   2775.1202721162 Eh

Convergence Acceleration:
 AO-DIIS                CNVDIIS         .... on
   Start iteration      DIISMaxIt       ....    12
   Startup error        DIISStart       ....  0.200000
   # of expansion vecs  DIISMaxEq       ....     5
   Bias factor          DIISBfac        ....   1.050
   Max. coefficient     DIISMaxC        ....  10.000
 MO-DIIS                CNVKDIIS        .... off
 Trust-Rad. Augm. Hess. CNVTRAH         .... auto
   Auto Start mean grad. ratio tolernc. ....  1.125000
   Auto Start start iteration           ....     1
   Auto Start num. interpolation iter.  ....    10
   Max. Number of Micro iterations      ....    24
   Max. Number of Macro iterations      .... Maxiter - #DIIS iter
   Number of Davidson start vectors     ....     2
   Converg. threshold    (grad. norm)   ....   1.000e-04
   Grad. Scal. Fac. for Micro threshold ....   0.100
   Minimum threshold for Micro iter.    ....   1.000e-02
   NR start threshold (gradient norm)   ....   1.000e-04
   Initial trust radius                 ....   0.400
   Minimum AH scaling param. (alpha)    ....   1.000
   Maximum AH scaling param. (alpha)    .... 1000.000
   Quad. conv. algorithm                .... NR
   White noise on init. David. guess    .... on
   Maximum white noise                  ....   0.010
   Pseudo random numbers                .... off
   Inactive MOs                         .... canonical
   Orbital update algorithm             .... Taylor
   Preconditioner                       .... Diag
   Full preconditioner red. dimension   ....   250
 SOSCF                  CNVSOSCF        .... off
 Level Shifting         CNVShift        .... on
   Level shift para.    LevelShift      ....    0.2500
   Turn off err/grad.   ShiftErr        ....    0.0010
 Zerner damping         CNVZerner       .... off
 Static damping         CNVDamp         .... on
   Fraction old density DampFac         ....    0.7000
   Max. Damping (<1)    DampMax         ....    0.9800
   Min. Damping (>=0)   DampMin         ....    0.0000
   Turn off err/grad.   DampErr         ....    0.1000

SCF Procedure:
 Maximum # iterations   MaxIter         ....   125
 SCF integral mode      SCFMode         .... Direct
   Integral package                     .... SHARK and LIBINT hybrid scheme
 Reset frequency        DirectResetFreq ....    20
 Integral Threshold     Thresh          ....  3.000e-11 Eh
 Primitive CutOff       TCut            ....  1.000e-12 Eh

Convergence Tolerance:
 Convergence Check Mode ConvCheckMode   .... Total+1el-Energy
 Convergence forced     ConvForced      .... 0
 Energy Change          TolE            ....  1.000e-07 Eh
 1-El. energy change                    ....  1.000e-04 Eh
 DIIS Error             TolErr          ....  1.000e-07

---------------------
INITIAL GUESS: MOREAD
---------------------
Guess MOs are being read from file: inpS.ges
Input Geometry matches current geometry (good)
Input basis set matches current basis set (good)
Occupation numbers will be reassigned to an Aufbau configuration
MOs were renormalized
MOs were reorthogonalized (Cholesky)
                      ------------------
                      INITIAL GUESS DONE (   0.2 sec)
                      ------------------
             **** ENERGY FILE WAS UPDATED (inpS.en.tmp) ****
Finished Guess after   0.3 sec
Maximum memory used throughout the entire GUESS-calculation: 52.6 MB


           ************************************************************
           *        Program running with 4 parallel MPI-processes     *
           *              working on a common directory               *
           ************************************************************

-------------------------------------------------------------------------------------------
                                      ORCA LEAN-SCF
                              memory conserving SCF solver
-------------------------------------------------------------------------------------------

--------------------
CPCM SOLVATION MODEL
--------------------
CPCM parameters:
  Epsilon                                         ...       4.8030
  Refrac                                          ...       1.4459
  Rsolv                                           ...       1.3000
  Surface type                                    ... GAUSSIAN VDW
  Discretization scheme                           ... Constant charge density
    Threshold for H atoms                         ...       5.0000 (charges/Ang^2)
    Threshold for non-H atoms                     ...       5.0000 (charges/Ang^2)
  Epsilon function type                           ...         CPCM
Solvent:                                          ... CHLOROFORM
Radii:
  Scheme                                          ... Element-dependent radii
  Radius for C  used is    3.8550 Bohr (=   2.0400 Ang.)
  Radius for H  used is    2.4944 Bohr (=   1.3200 Ang.)
  Radius for O  used is    3.4469 Bohr (=   1.8240 Ang.)
Calculating surface                               ...        done! (  0.0s)
Cavity surface points                             ...         5394
Cavity Volume                                     ...    3618.2579
Cavity Surface-area                               ...    1808.3837
Calculating surface distance matrix               ...        done! (  0.2s)
Performing Cholesky decomposition & store         ...        done! (  0.9s)
Overall time for CPCM initialization              ...                 1.1s

----------------------------------------D-I-I-S--------------------------------------------
Iteration    Energy (Eh)           Delta-E    RMSDP     MaxDP     DIISErr   Damp  Time(sec)
-------------------------------------------------------------------------------------------
               ***  Starting incremental Fock matrix formation  ***
    1    -1168.3627169954411329     0.00e+00  3.17e-08  1.70e-06  6.35e-06  0.700  23.5

  HOMO= 109 E= -7.885 eV LUMO=  8.090 eV gap=  15.975 eV
    2    -1168.3627169940668864     1.37e-09  2.71e-08  1.26e-06  3.20e-06  0.700   4.8
                 **** Energy Check signals convergence ****

  HOMO= 109 E= -7.885 eV LUMO=  8.090 eV gap=  15.975 eV

               *****************************************************
               *                     SUCCESS                       *
               *           SCF CONVERGED AFTER   2 CYCLES          *
               *****************************************************

Recomputing exchange energy using gridx3       ... done (   40.900 sec)
Old exchange energy                            :    -56.782702595 Eh
New exchange energy                            :    -56.782692721 Eh
Exchange energy change after final integration :      0.000009875 Eh
Total energy after final integration           :  -1168.362707120 Eh
             **** ENERGY FILE WAS UPDATED (inpS.en.tmp) ****

----------------
TOTAL SCF ENERGY
----------------

Total Energy       :      -1168.36270711955899 Eh          -31792.76557 eV

Components:
Nuclear Repulsion  :       2775.12027211621034 Eh           75514.86171 eV
Electronic Energy  :      -3943.47242483743275 Eh         -107307.34008 eV
One Electron Energy:      -7095.47949210509341 Eh         -193077.81287 eV
Two Electron Energy:       3152.00706726766066 Eh           85770.47279 eV
CPCM Dielectric    :         -0.01056427284441 Eh              -0.28747 eV

Virial components:
Potential Energy   :      -2321.67810528811606 Eh          -63176.07305 eV
Kinetic Energy     :       1153.31539816855684 Eh           31383.30748 eV
Virial Ratio       :          2.01304700255879

DFT components:
N(Alpha)           :      110.000126666459 electrons
N(Beta)            :      110.000126666459 electrons
N(Total)           :      220.000253332917 electrons
E(X)               :     -111.769892245155 Eh       
E(C)               :       -8.950872970090 Eh       
E(XC)              :     -120.720765215245 Eh       

CPCM Solvation Model Properties:
Surface-charge          :         -0.04139429372601
Corrected charge        :          0.00000000000000
Outlying charge corr.   :          0.00005995353878 Eh               0.00163 eV
Free-energy (cav+disp)  :  This term is not implemented in the current solvation scheme

---------------
SCF CONVERGENCE
---------------

  Last Energy change         ...   -1.3742e-09  Tolerance :   1.0000e-07
  Last MAX-Density change    ...    1.2632e-06  Tolerance :   1.0000e-05
  Last RMS-Density change    ...    2.7112e-08  Tolerance :   1.0000e-06
  Last DIIS Error            ...    3.2015e-06  Tolerance :   1.0000e-07


----------------
ORBITAL ENERGIES
----------------

  NO   OCC          E(Eh)            E(eV) 
   0   2.0000     -19.213684      -522.8309 
   1   2.0000     -10.329795      -281.0880 
   2   2.0000     -10.293500      -280.1004 
   3   2.0000     -10.290301      -280.0133 
   4   2.0000     -10.286292      -279.9042 
   5   2.0000     -10.286190      -279.9015 
   6   2.0000     -10.285140      -279.8729 
   7   2.0000     -10.283352      -279.8242 
   8   2.0000     -10.282034      -279.7884 
   9   2.0000     -10.280851      -279.7562 
  10   2.0000     -10.280698      -279.7520 
  11   2.0000     -10.280338      -279.7422 
  12   2.0000     -10.279452      -279.7181 
  13   2.0000     -10.279039      -279.7069 
  14   2.0000     -10.278482      -279.6917 
  15   2.0000     -10.277192      -279.6566 
  16   2.0000     -10.276810      -279.6462 
  17   2.0000     -10.276547      -279.6391 
  18   2.0000     -10.273570      -279.5581 
  19   2.0000     -10.272106      -279.5182 
  20   2.0000     -10.271777      -279.5093 
  21   2.0000     -10.271699      -279.5071 
  22   2.0000     -10.271245      -279.4948 
  23   2.0000     -10.271023      -279.4887 
  24   2.0000     -10.269662      -279.4517 
  25   2.0000     -10.268326      -279.4154 
  26   2.0000     -10.267867      -279.4029 
  27   2.0000     -10.267237      -279.3857 
  28   2.0000     -10.266355      -279.3617 
  29   2.0000      -1.131608       -30.7926 
  30   2.0000      -0.998459       -27.1695 
  31   2.0000      -0.979203       -26.6455 
  32   2.0000      -0.957260       -26.0484 
  33   2.0000      -0.942570       -25.6486 
  34   2.0000      -0.917429       -24.9645 
  35   2.0000      -0.910922       -24.7874 
  36   2.0000      -0.889456       -24.2033 
  37   2.0000      -0.887200       -24.1419 
  38   2.0000      -0.871365       -23.7110 
  39   2.0000      -0.853374       -23.2215 
  40   2.0000      -0.835437       -22.7334 
  41   2.0000      -0.828184       -22.5360 
  42   2.0000      -0.809312       -22.0225 
  43   2.0000      -0.799798       -21.7636 
  44   2.0000      -0.795388       -21.6436 
  45   2.0000      -0.787175       -21.4201 
  46   2.0000      -0.759662       -20.6715 
  47   2.0000      -0.752476       -20.4759 
  48   2.0000      -0.727584       -19.7986 
  49   2.0000      -0.713264       -19.4089 
  50   2.0000      -0.712311       -19.3830 
  51   2.0000      -0.702728       -19.1222 
  52   2.0000      -0.690068       -18.7777 
  53   2.0000      -0.670166       -18.2361 
  54   2.0000      -0.649706       -17.6794 
  55   2.0000      -0.639424       -17.3996 
  56   2.0000      -0.631263       -17.1775 
  57   2.0000      -0.620827       -16.8935 
  58   2.0000      -0.605017       -16.4633 
  59   2.0000      -0.600835       -16.3496 
  60   2.0000      -0.586221       -15.9519 
  61   2.0000      -0.580528       -15.7970 
  62   2.0000      -0.575877       -15.6704 
  63   2.0000      -0.567930       -15.4542 
  64   2.0000      -0.563660       -15.3380 
  65   2.0000      -0.558468       -15.1967 
  66   2.0000      -0.551335       -15.0026 
  67   2.0000      -0.550127       -14.9697 
  68   2.0000      -0.547294       -14.8926 
  69   2.0000      -0.546404       -14.8684 
  70   2.0000      -0.536025       -14.5860 
  71   2.0000      -0.531829       -14.4718 
  72   2.0000      -0.523305       -14.2399 
  73   2.0000      -0.521000       -14.1771 
  74   2.0000      -0.518254       -14.1024 
  75   2.0000      -0.515257       -14.0208 
  76   2.0000      -0.504462       -13.7271 
  77   2.0000      -0.501586       -13.6488 
  78   2.0000      -0.497681       -13.5426 
  79   2.0000      -0.491214       -13.3666 
  80   2.0000      -0.489330       -13.3153 
  81   2.0000      -0.486168       -13.2293 
  82   2.0000      -0.484215       -13.1762 
  83   2.0000      -0.479553       -13.0493 
  84   2.0000      -0.473155       -12.8752 
  85   2.0000      -0.466809       -12.7025 
  86   2.0000      -0.465891       -12.6775 
  87   2.0000      -0.462471       -12.5845 
  88   2.0000      -0.456475       -12.4213 
  89   2.0000      -0.452860       -12.3229 
  90   2.0000      -0.447987       -12.1903 
  91   2.0000      -0.446192       -12.1415 
  92   2.0000      -0.439407       -11.9569 
  93   2.0000      -0.431732       -11.7480 
  94   2.0000      -0.426175       -11.5968 
  95   2.0000      -0.425041       -11.5660 
  96   2.0000      -0.421711       -11.4754 
  97   2.0000      -0.420394       -11.4395 
  98   2.0000      -0.415106       -11.2956 
  99   2.0000      -0.414725       -11.2852 
 100   2.0000      -0.410793       -11.1782 
 101   2.0000      -0.406737       -11.0679 
 102   2.0000      -0.405696       -11.0395 
 103   2.0000      -0.400499       -10.8981 
 104   2.0000      -0.394654       -10.7391 
 105   2.0000      -0.382032       -10.3956 
 106   2.0000      -0.372329       -10.1316 
 107   2.0000      -0.357207        -9.7201 
 108   2.0000      -0.336008        -9.1433 
 109   2.0000      -0.289765        -7.8849 
 110   0.0000       0.047292         1.2869 
 111   0.0000       0.100288         2.7290 
 112   0.0000       0.109707         2.9853 
 113   0.0000       0.129720         3.5299 
 114   0.0000       0.144855         3.9417 
 115   0.0000       0.145634         3.9629 
 116   0.0000       0.152161         4.1405 
 117   0.0000       0.153276         4.1709 
 118   0.0000       0.157624         4.2892 
 119   0.0000       0.159392         4.3373 
 120   0.0000       0.167724         4.5640 
*Only the first 10 virtual orbitals were printed.

                    ********************************
                    * MULLIKEN POPULATION ANALYSIS *
                    ********************************

-----------------------
MULLIKEN ATOMIC CHARGES
-----------------------
   0 C :   -0.126529
   1 C :    0.143960
   2 C :    0.081596
   3 H :    0.016829
   4 H :    0.013328
   5 C :   -0.184165
   6 C :    0.111200
   7 C :    0.006613
   8 H :    0.029699
   9 H :    0.012201
  10 H :    0.023606
  11 H :    0.011386
  12 O :   -0.355241
  13 H :    0.014156
  14 C :   -0.025020
  15 C :   -0.045003
  16 H :    0.036473
  17 H :    0.029248
  18 C :   -0.060349
  19 H :   -0.006731
  20 C :   -0.116524
  21 H :    0.001085
  22 C :    0.115143
  23 C :   -0.000823
  24 H :    0.012581
  25 H :    0.017847
  26 C :    0.105464
  27 H :    0.012558
  28 H :    0.014925
  29 C :   -0.405948
  30 H :    0.008633
  31 H :   -0.002445
  32 C :   -0.043912
  33 H :    0.011745
  34 C :    0.119653
  35 H :    0.181737
  36 C :    0.048888
  37 H :    0.007706
  38 H :    0.015859
  39 C :   -0.055616
  40 H :    0.013200
  41 H :    0.009953
  42 H :   -0.005779
  43 C :   -0.017601
  44 C :    0.092991
  45 H :    0.023554
  46 H :    0.018859
  47 H :    0.019393
  48 H :    0.003994
  49 C :    0.060392
  50 C :   -0.060428
  51 C :   -0.070156
  52 H :    0.008425
  53 H :    0.012782
  54 C :   -0.071328
  55 C :    0.038631
  56 C :   -0.146441
  57 H :    0.005287
  58 H :    0.010392
  59 C :    0.013558
  60 C :    0.032523
  61 H :    0.019649
  62 H :    0.020647
  63 H :    0.017652
  64 H :    0.019221
  65 H :    0.019126
  66 H :    0.017386
  67 H :    0.020316
  68 H :    0.014096
  69 H :    0.016950
  70 H :    0.019829
  71 H :    0.029331
  72 H :    0.017786
Sum of atomic charges:   -0.0000000

--------------------------------
MULLIKEN REDUCED ORBITAL CHARGES
--------------------------------
  0 C s       :     3.077600  s :     3.077600
      pz      :     1.004864  p :     3.006093
      px      :     0.998470
      py      :     1.002759
      dz2     :     0.003087  d :     0.042837
      dxz     :     0.007094
      dyz     :     0.006017
      dx2y2   :     0.014789
      dxy     :     0.011850

  1 C s       :     2.932490  s :     2.932490
      pz      :     0.984504  p :     2.889114
      px      :     0.936301
      py      :     0.968309
      dz2     :     0.006999  d :     0.034436
      dxz     :     0.009079
      dyz     :     0.004751
      dx2y2   :     0.009025
      dxy     :     0.004582

  2 C s       :     3.075229  s :     3.075229
      pz      :     1.048584  p :     2.772020
      px      :     0.750893
      py      :     0.972543
      dz2     :     0.011787  d :     0.071155
      dxz     :     0.015466
      dyz     :     0.009095
      dx2y2   :     0.019717
      dxy     :     0.015090

  3 H s       :     0.959978  s :     0.959978
      pz      :     0.011379  p :     0.023193
      px      :     0.007216
      py      :     0.004598

  4 H s       :     0.963878  s :     0.963878
      pz      :     0.004498  p :     0.022793
      px      :     0.003793
      py      :     0.014502

  5 C s       :     3.111755  s :     3.111755
      pz      :     1.000254  p :     3.027619
      px      :     0.976696
      py      :     1.050669
      dz2     :     0.011091  d :     0.044791
      dxz     :     0.006418
      dyz     :     0.011669
      dx2y2   :     0.008674
      dxy     :     0.006939

  6 C s       :     2.949125  s :     2.949125
      pz      :     0.978838  p :     2.904201
      px      :     0.962146
      py      :     0.963217
      dz2     :     0.007002  d :     0.035474
      dxz     :     0.009059
      dyz     :     0.005034
      dx2y2   :     0.009254
      dxy     :     0.005126

  7 C s       :     3.013138  s :     3.013138
      pz      :     0.990874  p :     2.945225
      px      :     0.988097
      py      :     0.966253
      dz2     :     0.005380  d :     0.035025
      dxz     :     0.008186
      dyz     :     0.006701
      dx2y2   :     0.009565
      dxy     :     0.005193

  8 H s       :     0.947010  s :     0.947010
      pz      :     0.011990  p :     0.023291
      px      :     0.006746
      py      :     0.004554

  9 H s       :     0.964978  s :     0.964978
      pz      :     0.004731  p :     0.022821
      px      :     0.003717
      py      :     0.014374

 10 H s       :     0.953701  s :     0.953701
      pz      :     0.010620  p :     0.022693
      px      :     0.005410
      py      :     0.006663

 11 H s       :     0.965923  s :     0.965923
      pz      :     0.011533  p :     0.022692
      px      :     0.006770
      py      :     0.004389

 12 O s       :     3.726271  s :     3.726271
      pz      :     1.511163  p :     4.616770
      px      :     1.263515
      py      :     1.842092
      dz2     :     0.002949  d :     0.012200
      dxz     :     0.003874
      dyz     :     0.001464
      dx2y2   :     0.001934
      dxy     :     0.001980

 13 H s       :     0.965623  s :     0.965623
      pz      :     0.011759  p :     0.020220
      px      :     0.004475
      py      :     0.003986

 14 C s       :     3.197158  s :     3.197158
      pz      :     0.991814  p :     2.791633
      px      :     0.884645
      py      :     0.915174
      dz2     :     0.002536  d :     0.036229
      dxz     :     0.007719
      dyz     :     0.003260
      dx2y2   :     0.012198
      dxy     :     0.010515

 15 C s       :     3.123097  s :     3.123097
      pz      :     0.982420  p :     2.895658
      px      :     0.998564
      py      :     0.914674
      dz2     :     0.006944  d :     0.026248
      dxz     :     0.004238
      dyz     :     0.006869
      dx2y2   :     0.005011
      dxy     :     0.003185

 16 H s       :     0.938981  s :     0.938981
      pz      :     0.010154  p :     0.024546
      px      :     0.006419
      py      :     0.007973

 17 H s       :     0.946127  s :     0.946127
      pz      :     0.004146  p :     0.024625
      px      :     0.004637
      py      :     0.015841

 18 C s       :     3.200970  s :     3.200970
      pz      :     1.030753  p :     2.824066
      px      :     0.875133
      py      :     0.918180
      dz2     :     0.002630  d :     0.035313
      dxz     :     0.007032
      dyz     :     0.003097
      dx2y2   :     0.012512
      dxy     :     0.010042

 19 H s       :     0.982409  s :     0.982409
      pz      :     0.004730  p :     0.024321
      px      :     0.004419
      py      :     0.015172

 20 C s       :     3.099804  s :     3.099804
      pz      :     0.955044  p :     2.972717
      px      :     0.993433
      py      :     1.024239
      dz2     :     0.003225  d :     0.044003
      dxz     :     0.007233
      dyz     :     0.006922
      dx2y2   :     0.014851
      dxy     :     0.011772

 21 H s       :     0.974405  s :     0.974405
      pz      :     0.004649  p :     0.024510
      px      :     0.004282
      py      :     0.015579

 22 C s       :     2.924087  s :     2.924087
      pz      :     1.001657  p :     2.925196
      px      :     0.975234
      py      :     0.948305
      dz2     :     0.009223  d :     0.035574
      dxz     :     0.004372
      dyz     :     0.006341
      dx2y2   :     0.009899
      dxy     :     0.005739

 23 C s       :     3.001243  s :     3.001243
      pz      :     1.007888  p :     2.963133
      px      :     0.970076
      py      :     0.985169
      dz2     :     0.009354  d :     0.036447
      dxz     :     0.008212
      dyz     :     0.003316
      dx2y2   :     0.010233
      dxy     :     0.005333

 24 H s       :     0.964169  s :     0.964169
      pz      :     0.004566  p :     0.023250
      px      :     0.014088
      py      :     0.004596

 25 H s       :     0.958841  s :     0.958841
      pz      :     0.013092  p :     0.023312
      px      :     0.005169
      py      :     0.005050

 26 C s       :     2.971052  s :     2.971052
      pz      :     0.967676  p :     2.888160
      px      :     0.974781
      py      :     0.945704
      dz2     :     0.006405  d :     0.035324
      dxz     :     0.006947
      dyz     :     0.006031
      dx2y2   :     0.008839
      dxy     :     0.007103

 27 H s       :     0.964561  s :     0.964561
      pz      :     0.013065  p :     0.022881
      px      :     0.004896
      py      :     0.004919

 28 H s       :     0.962430  s :     0.962430
      pz      :     0.004522  p :     0.022645
      px      :     0.003836
      py      :     0.014288

 29 C s       :     3.254263  s :     3.254263
      pz      :     1.039155  p :     3.100735
      px      :     1.003720
      py      :     1.057861
      dz2     :     0.011635  d :     0.050950
      dxz     :     0.010183
      dyz     :     0.009568
      dx2y2   :     0.011116
      dxy     :     0.008448

 30 H s       :     0.968303  s :     0.968303
      pz      :     0.009866  p :     0.023065
      px      :     0.007019
      py      :     0.006180

 31 H s       :     0.979907  s :     0.979907
      pz      :     0.012540  p :     0.022538
      px      :     0.005332
      py      :     0.004667

 32 C s       :     3.031989  s :     3.031989
      pz      :     0.982590  p :     2.968079
      px      :     0.953961
      py      :     1.031529
      dz2     :     0.008163  d :     0.043844
      dxz     :     0.007765
      dyz     :     0.008144
      dx2y2   :     0.011037
      dxy     :     0.008734

 33 H s       :     0.966960  s :     0.966960
      pz      :     0.011711  p :     0.021295
      px      :     0.004601
      py      :     0.004982

 34 C s       :     2.896716  s :     2.896716
      pz      :     0.987550  p :     2.948782
      px      :     0.976631
      py      :     0.984602
      dz2     :     0.005568  d :     0.034849
      dxz     :     0.005874
      dyz     :     0.008156
      dx2y2   :     0.008748
      dxy     :     0.006503

 35 H s       :     0.750148  s :     0.750148
[...]
 Total          142.392          174.049          191.192  iso=     169.211

 Orientation: 
  X           0.3231872   -0.5917926    0.7384657
  Y          -0.1582339   -0.8031505   -0.5743791
  Z           0.9330124    0.0687817   -0.3532095

 --------------
 Nucleus  39C :
 --------------

Diamagnetic contribution to the shielding tensor (ppm) : 
           264.677          5.201        -8.338
             6.374        256.880         2.949
            -7.631          2.779       267.743

Paramagnetic contribution to the shielding tensor (ppm): 
           -98.969         -2.755         7.069
             0.130       -129.076         0.205
            11.093         -2.654      -141.316

Total shielding tensor (ppm): 
           165.708          2.446        -1.269
             6.505        127.804         3.154
             3.462          0.125       126.427


 Diagonalized sT*s matrix:
 
 sDSO           260.127          263.709          265.464  iso=     263.100
 sPSO          -134.859         -135.305          -99.197  iso=    -123.120
        ---------------  ---------------  ---------------
 Total          125.268          128.405          166.267  iso=     139.980

 Orientation: 
  X           0.0463804   -0.1023482   -0.9936668
  Y          -0.6027086    0.7904065   -0.1095443
  Z           0.7966123    0.6039722   -0.0250268

 --------------
 Nucleus  43C :
 --------------

Diamagnetic contribution to the shielding tensor (ppm) : 
           257.527         -1.041        -6.848
             0.906        241.634         8.037
           -10.293          3.733       254.119

Paramagnetic contribution to the shielding tensor (ppm): 
           -94.435         -1.662        -1.049
             1.522        -85.411        -6.328
             3.090          1.050       -90.439

Total shielding tensor (ppm): 
           163.092         -2.703        -7.897
             2.428        156.224         1.708
            -7.203          4.784       163.680


 Diagonalized sT*s matrix:
 
 sDSO           239.822          248.427          265.031  iso=     251.093
 sPSO           -86.118          -90.476          -93.690  iso=     -90.095
        ---------------  ---------------  ---------------
 Total          153.704          157.951          171.341  iso=     160.999

 Orientation: 
  X          -0.4380973    0.6038004   -0.6659548
  Y           0.6984097    0.6950382    0.1707217
  Z          -0.5659458    0.3903166    0.7261944

 --------------
 Nucleus  44C :
 --------------

Diamagnetic contribution to the shielding tensor (ppm) : 
           250.855          1.323         2.367
             0.024        253.916        -4.429
            -0.025         -0.309       273.334

Paramagnetic contribution to the shielding tensor (ppm): 
           -71.710         -5.901        -1.919
            -2.914        -73.416         1.188
             0.751         -2.999       -80.070

Total shielding tensor (ppm): 
           179.145         -4.578         0.448
            -2.890        180.500        -3.242
             0.726         -3.308       193.264


 Diagonalized sT*s matrix:
 
 sDSO           252.952          251.972          273.181  iso=     259.369
 sPSO           -77.091          -69.127          -78.979  iso=     -75.065
        ---------------  ---------------  ---------------
 Total          175.862          182.845          194.203  iso=     184.303

 Orientation: 
  X           0.7408532   -0.6640188    0.1010723
  Y           0.6641602    0.7017965   -0.2576292
  Z           0.1001385    0.2579936    0.9609431

 --------------
 Nucleus  49C :
 --------------

Diamagnetic contribution to the shielding tensor (ppm) : 
           243.251         -4.903        -2.274
           -11.489        252.566         8.715
           -11.326          7.221       252.943

Paramagnetic contribution to the shielding tensor (ppm): 
           -64.621          2.744        -3.361
             9.065        -70.099        -3.209
             4.179         -2.596       -75.592

Total shielding tensor (ppm): 
           178.630         -2.159        -5.635
            -2.424        182.467         5.506
            -7.147          4.625       177.351


 Diagonalized sT*s matrix:
 
 sDSO           242.772          240.521          265.466  iso=     249.587
 sPSO           -71.724          -61.870          -76.718  iso=     -70.104
        ---------------  ---------------  ---------------
 Total          171.048          178.651          188.749  iso=     179.483

 Orientation: 
  X           0.5850250   -0.6319131    0.5083617
  Y          -0.2279976   -0.7296879   -0.6446493
  Z           0.7783077    0.2612307   -0.5709603

 --------------
 Nucleus  50C :
 --------------

Diamagnetic contribution to the shielding tensor (ppm) : 
           275.572         -2.857         9.372
             7.562        256.790        -4.871
             7.551          4.625       249.329

Paramagnetic contribution to the shielding tensor (ppm): 
          -188.935        -18.216       -48.746
           -25.431       -294.713       -34.388
           -49.017        -41.694      -122.012

Total shielding tensor (ppm): 
            86.637        -21.073       -39.374
           -17.869        -37.923       -39.259
           -41.467        -37.069       127.317


 Diagonalized sT*s matrix:
 
 sDSO           259.437          273.555          248.699  iso=     260.564
 sPSO          -311.367         -200.562          -93.732  iso=    -201.887
        ---------------  ---------------  ---------------
 Total          -51.930           72.993          154.967  iso=      58.677

 Orientation: 
  X          -0.2408525    0.8423193   -0.4821703
  Y          -0.9373700   -0.3306900   -0.1094606
  Z          -0.2516497    0.4256081    0.8692124

 --------------
 Nucleus  51C :
 --------------

Diamagnetic contribution to the shielding tensor (ppm) : 
           270.905         -3.297        13.165
            -7.831        266.053        13.899
             8.704         14.538       246.621

Paramagnetic contribution to the shielding tensor (ppm): 
          -187.600        -20.957       -62.686
            -7.572       -283.490       -56.779
           -44.238        -60.002      -106.028

Total shielding tensor (ppm): 
            83.305        -24.253       -49.521
           -15.403        -17.437       -42.880
           -35.533        -45.464       140.592


 Diagonalized sT*s matrix:
 
 sDSO           271.514          273.753          238.311  iso=     261.193
 sPSO          -305.963         -201.043          -70.112  iso=    -192.373
        ---------------  ---------------  ---------------
 Total          -34.449           72.710          168.199  iso=      68.820

 Orientation: 
  X           0.3873694   -0.8379036   -0.3845291
  Y           0.8670883    0.4728279   -0.1568171
  Z           0.3132137   -0.2726745    0.9096954

 --------------
 Nucleus  54C :
 --------------

Diamagnetic contribution to the shielding tensor (ppm) : 
           253.585          1.924         0.249
             5.308        239.629        -1.735
            -0.094          5.834       244.624

Paramagnetic contribution to the shielding tensor (ppm): 
          -100.357          3.410         3.543
            -1.956        -85.537         1.665
             2.972        -10.500       -86.891

Total shielding tensor (ppm): 
           153.228          5.334         3.792
             3.352        154.093        -0.070
             2.878         -4.666       157.734


 Diagonalized sT*s matrix:
 
 sDSO           245.045          246.468          246.326  iso=     245.946
 sPSO           -97.389          -88.575          -86.820  iso=     -90.928
        ---------------  ---------------  ---------------
 Total          147.656          157.892          159.507  iso=     155.018

 Orientation: 
  X           0.7020033    0.5489188    0.4537395
  Y          -0.6039914    0.7964606   -0.0290657
  Z          -0.3773404   -0.2536506    0.8906602

 --------------
 Nucleus  55C :
 --------------

Diamagnetic contribution to the shielding tensor (ppm) : 
           254.981         -3.770        -2.602
            -3.358        235.888         1.034
           -18.077          1.533       219.592

Paramagnetic contribution to the shielding tensor (ppm): 
           -59.827          6.912        -2.756
             3.797        -76.057         5.809
             9.948         -0.112       -45.153

Total shielding tensor (ppm): 
           195.154          3.142        -5.358
             0.439        159.830         6.842
            -8.130          1.420       174.439


 Diagonalized sT*s matrix:
 
 sDSO           234.223          218.636          257.601  iso=     236.820
 sPSO           -75.822          -44.776          -60.439  iso=     -60.346
        ---------------  ---------------  ---------------
 Total          158.401          173.860          197.163  iso=     176.474

 Orientation: 
  X          -0.1019350   -0.2603084   -0.9601296
  Y           0.9545148   -0.2974445   -0.0206963
  Z          -0.2801978   -0.9185675    0.2787882

 --------------
 Nucleus  56C :
 --------------

Diamagnetic contribution to the shielding tensor (ppm) : 
           241.060         -4.619        -3.546
            -1.132        251.695        -3.970
             9.498         -2.610       251.059

Paramagnetic contribution to the shielding tensor (ppm): 
           -77.588          5.508         4.639
             3.198        -96.960         1.457
            -8.337          6.352       -74.934

Total shielding tensor (ppm): 
           163.473          0.889         1.093
             2.066        154.735        -2.513
             1.162          3.742       176.124


 Diagonalized sT*s matrix:
 
 sDSO           252.543          240.064          251.207  iso=     247.938
 sPSO           -98.058          -76.466          -74.959  iso=     -83.161
        ---------------  ---------------  ---------------
 Total          154.485          163.599          176.248  iso=     164.777

 Orientation: 
  X           0.1584272    0.9831397    0.0913082
  Y          -0.9869435    0.1549600    0.0439321
  Z           0.0290422   -0.0970761    0.9948531

 --------------
 Nucleus  59C :
 --------------

Diamagnetic contribution to the shielding tensor (ppm) : 
           238.469         -3.855         2.832
           -15.527        252.077        -4.465
            16.709         -2.307       238.791

Paramagnetic contribution to the shielding tensor (ppm): 
           -61.239          0.468        -3.784
             7.268        -57.543         5.459
           -15.025         -0.745       -64.538

Total shielding tensor (ppm): 
           177.231         -3.387        -0.952
            -8.260        194.534         0.994
             1.683         -3.051       174.252


 Diagonalized sT*s matrix:
 
 sDSO           237.881          234.572          256.884  iso=     243.112
 sPSO           -63.683          -59.116          -60.521  iso=     -61.107
        ---------------  ---------------  ---------------
 Total          174.198          175.456          196.363  iso=     182.006

 Orientation: 
  X          -0.0369271   -0.9537769    0.2982382
  Y           0.0336608   -0.2994595   -0.9535150
  Z           0.9987509   -0.0251716    0.0431631

 --------------
 Nucleus  60C :
 --------------

Diamagnetic contribution to the shielding tensor (ppm) : 
           248.411         -2.315        -9.383
             1.269        253.472        -0.050
            11.894          2.440       262.344

Paramagnetic contribution to the shielding tensor (ppm): 
           -72.837        -12.872        -3.135
           -12.554        -77.774         0.746
           -22.966          2.273       -89.112

Total shielding tensor (ppm): 
           175.575        -15.187       -12.518
           -11.285        175.697         0.696
           -11.072          4.713       173.232


 Diagonalized sT*s matrix:
 
 sDSO           254.038          256.989          253.199  iso=     254.742
 sPSO           -95.384          -85.340          -58.998  iso=     -79.908
        ---------------  ---------------  ---------------
 Total          158.654          171.649          194.201  iso=     174.835

 Orientation: 
  X           0.7262804    0.0577372   -0.6849695
  Y           0.4808553    0.6694055    0.5662812
  Z           0.4912178   -0.7406502    0.4584129



--------------------------------
CHEMICAL SHIELDING SUMMARY (ppm)
--------------------------------


  Nucleus  Element    Isotropic     Anisotropy
  -------  -------  ------------   ------------
      0       C           59.659        148.176 
      1       C          151.186         30.195 
      2       C          128.873         55.193 
      5       C           51.539        179.189 
      6       C          165.010         22.900 
      7       C          161.650         22.552 
     14       C           74.621        128.269 
     15       C           82.978        121.155 
     18       C           79.481        134.193 
     20       C           52.455        174.801 
     22       C          169.263          8.676 
     23       C          174.526         12.595 
     26       C          158.608         23.586 
     29       C          153.848         17.917 
     32       C          143.429         28.091 
     34       C          174.756         23.166 
     36       C          169.211         32.971 
     39       C          139.980         39.431 
     43       C          160.999         15.513 
     44       C          184.303         14.849 
     49       C          179.483         13.899 
     50       C           58.677        144.436 
     51       C           68.820        149.069 
     54       C          155.018          6.733 
     55       C          176.474         31.033 
     56       C          164.777         17.206 
     59       C          182.006         21.536 
     60       C          174.835         29.050 


NMR shielding tensor and spin rotation calculation done in   1.0 sec 

Maximum memory used throughout the entire PROP-calculation: 52.0 MB

--------------------------------
SUGGESTED CITATIONS FOR THIS RUN
--------------------------------

Below you find a list of papers that are relevant to this ORCA run
We neither can nor want to force you to cite these papers, but we appreciate if you do
You receive ORCA, which is the product of decades of hard work by many enthusiastic individuals, for free
The only thing we kindly ask in return is that you cite our papers,
We deeply appreciate it, if you show your appreciation for ORCA by not just citing the generic ORCA reference.

Please note that relegating all ORCA citations to the supporting information does *not* help us.
SI sections are not indexed - citations you put there will not count into any citation statistics
But we need these citations in order to attract the funding resources that allow us to do what we are doing

Therefore, if you are a happy ORCA user, please consider citing a few of the papers listed below in the main body of your paper

In addition to the list printed below, the program has created the file inpS.bibtex that contains the list in bibtex format
You can import this file easily into all common literature databanks and citation aid programs


List of essential papers. We consider these as the minimum necessary citations

  1. Neese,F.
     Software update: the ORCA program system, version 5.0
     WIRES Comput. Molec. Sci., 2022 12(1)e1606
     doi.org/10.1002/wcms.1606

List of papers to cite with high priority. The work reported in these papers was absolutely
necessary for this run to complete.
Our perspective: the developers of density functionals and basis sets usually get cited in chemistry papers
Good! But without the algorithms to do something with them, the functionals or basis sets would not do anything.
Hence, in our opinion, the algorithm design and method developments papers are equally worthy of getting cited

  1. Neese,F.
     An improvement of the resolution of the identity approximation for the formation of the Coulomb matrix
     J. Comp. Chem., 2003 24(14)1740-1747
     doi.org/10.1002/jcc.10318
  2. Neese,F.; Wennmohs,F.; Hansen,A.; Becker,U.
     Efficient, approximate and parallel Hartree-Fock and hybrid DFT calculations. A 'chain-of-spheres' algorithm for the Hartree-Fock exchange
     Chem. Phys., 2009 356(1-3)98-109
     doi.org/10.1016/j.chemphys.2008.10.036
  3. Stoychev,G.L.; Auer,A.A.; Izsak,R.; Neese,F.
     Self-Consistent Field Calculation of Nuclear Magnetic Resonance Chemical Shielding Constants Using Gauge-Including Atomic Orbitals and Approximate Two-Electron Integrals
     J. Chem. Theory Comput., 2018 14(2)619-637
     doi.org/10.1021/acs.jctc.7b01006
  4. Garcia-Rates,M.; Neese,F.
     Effect of the Solute Cavity on the Solvation Energy and its Derivatives within the Framework of the Gaussian Charge Scheme
     J. Comput. Chem., 2020 41 922-939
     doi.org/10.1002/jcc.26139
  5. Helmich-Paris,B.; de Souza,B.; Neese,F.; Izsák,R.
     An improved chain of spheres for exchange algorithm
     J. Chem. Phys., 2021 155 104109
     doi.org/doi: 10.1063/5.0058766.
  6. Neese,F.
     The SHARK Integral Generation and Digestion System
     J. Comp. Chem., 2022  1-16
     doi.org/10.1002/jcc.26942
  7. Caldeweyher,E.; Bannwarth,C.; Grimme,S.
     Extension of the D3 dispersion coefficient model
     J. Chem. Phys., 2017 147 034112-XXXX
     doi.org/10.1063/1.4993215
  8. Caldeweyher,E.; Ehlert,S.; Hansen,A.; Neugebauer,H.; Spicher,S.; Bannwarth,C.; Grimme,S.
     A generally applicable atomic-charge dependent London dispersion correction
     J. Chem. Phys., 2019 150 154122-XXXX
     doi.org/10.1063/1.5090222
  9. Caldeweyher,E.; Mewes,J.; Ehlert,S.; Grimme,S.
     Extension and evaluation of the D4 London-dispersion model for periodic systems
     Phys. Chem. Chem. Phys., 2020 22(16)8499-8512
     doi.org/10.1039/D0CP00502A

List of suggested additional citations. These are papers that are important in the 'surrounding' of 
of this run, or papers that preceded the highly important papers. If you like your results we are grateful for a citation.

  1. Izsak,R.; Neese,F.
     An overlap fitted chain of spheres exchange method
     J. Chem. Phys., 2011 135 144105
     doi.org/10.1063/1.3646921
  2. Izsak,R.; Hansen,A.; Neese,F.
     The resolution of identity and chain of spheres approximations for the LPNO-CCSD singles Fock term
     Molec. Phys., 2012 110 2413-2417
     doi.org/10.1080/00268976.2012.687466
  3. Neese,F.
     The ORCA program system
     WIRES Comput. Molec. Sci., 2012 2(1)73-78
     doi.org/10.1002/wcms.81
  4. Izsak,R.; Neese,F.; Klopper,W.
     Robust fitting techniques in the chain of spheres approximation to the Fock exchange: The role of the complementary space
     J. Chem. Phys., 2013 139 
     doi.org/10.1063/1.4819264
  5. Neese,F.
     Software update: the ORCA program system, version 4.0
     WIRES Comput. Molec. Sci., 2018 8(1)1-6
     doi.org/10.1002/wcms.1327
  6. Neese,F.; Wennmohs,F.; Becker,U.; Riplinger,C.
     The ORCA quantum chemistry program package
     J. Chem. Phys., 2020 152 Art. No. L224108
     doi.org/10.1063/5.0004608

Timings for individual modules:

Sum of individual times          ...      177.320 sec (=   2.955 min)
Startup calculation              ...        4.715 sec (=   0.079 min)   2.7 %
SCF iterations                   ...       71.841 sec (=   1.197 min)  40.5 %
Property integrals               ...       60.577 sec (=   1.010 min)  34.2 %
SCF Response                     ...       38.870 sec (=   0.648 min)  21.9 %
Property calculations            ...        1.317 sec (=   0.022 min)   0.7 %
                             ****ORCA TERMINATED NORMALLY****
TOTAL RUN TIME: 0 days 0 hours 2 minutes 57 seconds 633 msec
