
                                 *****************
                                 * O   R   C   A *
                                 *****************

                                            #,                                       
                                            ###                                      
                                            ####                                     
                                            #####                                    
                                            ######                                   
                                           ########,                                 
                                     ,,################,,,,,                         
                               ,,#################################,,                 
                          ,,##########################################,,             
                       ,#########################################, ''#####,          
                    ,#############################################,,   '####,        
                  ,##################################################,,,,####,       
                ,###########''''           ''''###############################       
              ,#####''   ,,,,##########,,,,          '''####'''          '####       
            ,##' ,,,,###########################,,,                        '##       
           ' ,,###''''                  '''############,,,                           
         ,,##''                                '''############,,,,        ,,,,,,###''
      ,#''                                            '''#######################'''  
     '                                                          ''''####''''         
             ,#######,   #######,   ,#######,      ##                                
            ,#'     '#,  ##    ##  ,#'     '#,    #''#        ,####,   ,####,        
            ##       ##  ##   ,#'  ##            #'  '#       #'       #'  '#        
            ##       ##  #######   ##           ,######,      #####,   #    #        
            '#,     ,#'  ##    ##  '#,     ,#' ,#      #,     #,   #   #,  ,#        
             '#######'   ##     ##  '#######'  #'      '#     '####' # '####'        



                #########################################################
                #                        -***-                          #
                #          Department of theory and spectroscopy        #
                #                                                       #
                #                      Frank Neese                      #
                #                                                       #
                #     Directorship, Architecture, Infrastructure        #
                #                    SHARK, DRIVERS                     #
                #        Core code/Algorithms in most modules           #
                #                                                       #
                #        Max Planck Institute fuer Kohlenforschung      #
                #                Kaiser Wilhelm Platz 1                 #
                #                 D-45470 Muelheim/Ruhr                 #
                #                      Germany                          #
                #                                                       #
                #                  All rights reserved                  #
                #                        -***-                          #
                #########################################################


                         Program Version 6.0.0  -   RELEASE  -


 With contributions from (in alphabetic order):
   Daniel Aravena         : Magnetic Suceptibility
   Michael Atanasov       : Ab Initio Ligand Field Theory (pilot matlab implementation)
   Alexander A. Auer      : GIAO ZORA, VPT2 properties, NMR spectrum
   Ute Becker             : All parallelization in ORCA, NUMFREQ, NUMCALC
   Giovanni Bistoni       : ED, misc. LED, open-shell LED, HFLD
   Martin Brehm           : Molecular dynamics
   Dmytro Bykov           : pre 5.0 version of the SCF Hessian
   Marcos Casanova-Páez   : Triplet and SCS-CIS(D). UHF-(DLPNO)-IP/EA/STEOM-CCSD. UHF-CVS-IP/STEOM-CCSD
   Vijay G. Chilkuri      : MRCI spin determinant printing, contributions to CSF-ICE
   Pauline Colinet        : FMM embedding
   Dipayan Datta          : RHF DLPNO-CCSD density
   Achintya Kumar Dutta   : EOM-CC, STEOM-CC
   Nicolas Foglia         : Exact transition moments, OPA infrastructure, MCD improvements
   Dmitry Ganyushin       : Spin-Orbit,Spin-Spin,Magnetic field MRCI
   Miquel Garcia          : C-PCM and meta-GGA Hessian, CCSD/C-PCM, Gaussian charge scheme
   Tiago L. C. Gouveia    : GS-ROHF, GS-ROCIS
   Yang Guo               : DLPNO-NEVPT2, F12-NEVPT2, CIM, IAO-localization
   Andreas Hansen         : Spin unrestricted coupled pair/coupled cluster methods
   Ingolf Harden          : AUTO-CI MPn and infrastructure 
   Benjamin Helmich-Paris : MC-RPA, TRAH-(SCF,CASSCF), AVAS, COSX integrals, SCF dyn. polar.
   Lee Huntington         : MR-EOM, pCC
   Robert Izsak           : Overlap fitted RIJCOSX, COSX-SCS-MP3, EOM
   Riya Kayal             : Wick's Theorem for AUTO-CI, AUTO-CI UHF-CCSDT
   Emily Kempfer          : AUTO-CI, RHF CISDT and CCSDT
   Christian Kollmar      : KDIIS, OOCD, Brueckner-CCSD(T), CCSD density, CASPT2, CASPT2-K, improved NEVPT2
   Axel Koslowski         : Symmetry handling
   Simone Kossmann        : Meta GGA functionals, TD-DFT gradient, OOMP2, (MP2 Hessian; deprecated post 5.0)
   Lucas Lang             : DCDCAS
   Marvin Lechner         : AUTO-CI (C++ implementation), FIC-MRCC
   Spencer Leger          : CASSCF response
   Dagmar Lenk            : GEPOL surface, SMD, ORCA-2-JSON
   Dimitrios Liakos       : Extrapolation schemes; Compound Job, initial MDCI parallelization
   Dimitrios Manganas     : Further ROCIS development; embedding schemes. LFT, Crystal Embedding
   Dimitrios Pantazis     : SARC Basis sets
   Anastasios Papadopoulos: AUTO-CI, single reference methods and gradients
   Taras Petrenko         : pre 6.0 DFT Hessian and TD-DFT gradient, (ASA, deprecated), ECA, 1-Electron XAS/XES, NRVS
   Peter Pinski           : DLPNO-MP2, DLPNO-MP2 Gradient
   Christoph Reimann      : Effective Core Potentials
   Marius Retegan         : Local ZFS, SOC
   Christoph Riplinger    : Optimizer, TS searches, QM/MM, DLPNO-CCSD(T), (RO)-DLPNO pert. Triples
   Michael Roemelt        : Original ROCIS implementation
   Masaaki Saitow         : Open-shell DLPNO-CCSD energy and density
   Barbara Sandhoefer     : DKH picture change effects
   Kantharuban Sivalingam : CASSCF convergence/infrastructure, NEVPT2 and variants, FIC-MRCI
   Bernardo de Souza      : ESD, SOC TD-DFT
   Georgi Stoychev        : AutoAux, RI-MP2 NMR, DLPNO-MP2 response, X2C
   Van Anh Tran           : RI-MP2 g-tensors
   Willem Van den Heuvel  : Paramagnetic NMR
   Zikuan Wang            : NOTCH, Electric field optimization 
   Frank Wennmohs         : Technical directorship and infrastructure
   Hang Xu                : AUTO-CI-Response properties 


 We gratefully acknowledge several colleagues who have allowed us to
 interface, adapt or use parts of their codes:
   Stefan Grimme, W. Hujo, H. Kruse, P. Pracht,  : VdW corrections, initial TS optimization,
                  C. Bannwarth, S. Ehlert,         DFT functionals, gCP, sTDA/sTD-DF
                  L. Wittmann, M. Mueller
   Ed Valeev, F. Pavosevic, A. Kumar             : LibInt (2-el integral package), F12 methods
   Garnet Chan, S. Sharma, J. Yang, R. Olivares  : DMRG
   Ulf Ekstrom                                   : XCFun DFT Library
   Mihaly Kallay                                 : mrcc  (arbitrary order and MRCC methods)
   Frank Weinhold                                : gennbo (NPA and NBO analysis)
   Simon Mueller                                 : openCOSMO-RS
   Christopher J. Cramer and Donald G. Truhlar   : smd solvation model
   Lars Goerigk                                  : TD-DFT with DH, B97 family of functionals
   V. Asgeirsson, H. Jonsson                     : NEB implementation
   FAccTs GmbH                                   : IRC, NEB, NEB-TS, DLPNO-Multilevel, CI-OPT
                                                   MM, QMMM, 2- and 3-layer-ONIOM, Crystal-QMMM,
                                                   LR-CPCM, SF, NACMEs, symmetry and pop. for TD-DFT,
                                                   nearIR, NL-DFT gradient (VV10), updates on ESD,
                                                   ML-optimized integration grids, MBIS, APM,
                                                   GOAT, DOCKER, SOLVATOR, interface openCOSMO-RS
   S Lehtola, MJT Oliveira, MAL Marques          : LibXC Library
   Liviu Ungur et al                             : ANISO software


 Your calculation uses the libint2 library for the computation of 2-el integrals
 For citations please refer to: http://libint.valeyev.net

 Your ORCA version has been built with support for libXC version: 6.2.2
 For citations please refer to: https://libxc.gitlab.io

 This ORCA versions uses:
   CBLAS   interface :  Fast vector & matrix operations
   LAPACKE interface :  Fast linear algebra routines
   SCALAPACK package :  Parallel linear algebra routines
   Shared memory     :  Shared parallel matrices
   BLAS/LAPACK       :  OpenBLAS 0.3.27  USE64BITINT DYNAMIC_ARCH NO_AFFINITY Zen SINGLE_THREADED
        Core in use  :  Zen
   Copyright (c) 2011-2014, The OpenBLAS Project


NOTE: MaxCore=8000 MB was set to SCF,MP2,MDCI,CIPSI,MRCI and CIS
      => If you want to overwrite this, your respective input block should be placed after the MaxCore statement
Your calculation utilizes the atom-pairwise dispersion correction
based on EEQ partial charges (D4)


================================================================================

----- Orbital basis set information -----
Your calculation utilizes the basis: pcJ-0
   F. Jensen, Theor. Chem. Acc. 126, 371 (2010).

----- AuxJ basis set information -----
Your calculation utilizes the auxiliary basis: def2/J
   F. Weigend, Phys. Chem. Chem. Phys. 8, 1057 (2006).

================================================================================
                                        WARNINGS
                       Please study these warnings very carefully!
================================================================================

WARNING: Old DensityContainer found on disk!
         Will remove this file - 
         If you want to keep old densities, please start your calculation with a different basename. 


================================================================================
                                       INPUT FILE
================================================================================
NAME = inpJ
|  1> ! pbe0
|  2> ! D4
|  3> ! pcJ-0
|  4> ! def2/J RIJCOSX
|  5> ! DEFGRID2
|  6> ! scfconv7
|  7> ! smallprint printgap noloewdin
|  8> ! NOSOSCF
|  9> %MaxCore 8000
| 10> %output
| 11>        print[P_BondOrder_M] 1
| 12>        print[P_Mayer] 1
| 13>        print[P_basis] 2
| 14> end
| 15> %pal
| 16>     nprocs 4
| 17> end
| 18> ! CPCM(chloroform)
| 19> *xyz 0 1
| 20> C   -4.9238646300   0.2798937200   0.4505105800
| 21> C   -6.3479012400  -0.1321753300   0.1602537200
| 22> C   -6.9531465700   0.6821681900  -0.9897526900
| 23> H   -6.9707601900   0.0506000200   1.0524501000
| 24> H   -6.4017619600  -1.2017413600  -0.0707950500
| 25> C   -4.7355309300   1.7367471800   0.6164089500
| 26> C   -5.3812665900   2.5782308900  -0.4611280200
| 27> C   -6.8428832900   2.1742363100  -0.6973374700
| 28> H   -4.8238654000   2.4290024800  -1.3983560500
| 29> H   -5.3107847900   3.6405640800  -0.2047837800
| 30> H   -7.2650289200   2.7465296300  -1.5317679200
| 31> H   -7.4386063000   2.4024154400   0.1994019000
| 32> O   -8.3071079100   0.2878684700  -1.2483766100
| 33> H   -6.4101418700   0.4512059000  -1.9169201500
| 34> C   -3.9313359600  -0.6399467400   0.5009611000
| 35> C   -4.0897840000   2.2817057000   1.6538502400
| 36> H   -3.6541955600   1.6663312200   2.4361386400
| 37> H   -3.9931042600   3.3607511800   1.7476882100
| 38> C   -2.5219382300  -0.3744588200   0.6732504200
| 39> H   -4.2304956800  -1.6771434900   0.3560680800
| 40> C   -1.5439449500  -1.2957929200   0.8090627500
| 41> H   -2.2332479700   0.6741116700   0.6833352100
| 42> C   -1.7444758600  -2.7889058000   0.8680854800
| 43> C   -0.8500269400  -3.5266643600  -0.1453493600
| 44> H   -2.7895069800  -3.0740614400   0.7191743900
| 45> H   -1.4661276900  -3.1253881400   1.8797575000
| 46> C    0.6227939900  -3.1049447400  -0.0517661200
| 47> H   -1.2253376900  -3.3370580900  -1.1589276900
| 48> H   -0.9333836000  -4.6077419900   0.0205652500
| 49> C    0.7896989900  -1.5833125700  -0.1703489400
| 50> H    1.1916106600  -3.6308559100  -0.8252034900
| 51> H    1.0304057900  -3.4241920300   0.9193453300
| 52> C   -0.0968965600  -0.9301542200   0.9373479200
| 53> H    0.2568021500  -1.3898387500   1.8788981500
| 54> C    0.3458931300   0.5291206400   0.9578599900
| 55> H   -8.8242031600   0.4818609200  -0.4550874100
| 56> C    1.8662583400   0.4508143100   0.6741096800
| 57> H    0.1158804200   1.0171387000   1.9107907900
| 58> H   -0.1614984500   1.0995401700   0.1718964000
| 59> C    2.1769407900  -1.0144703100   0.2405276700
| 60> H    2.4567371300   0.7272726900   1.5535374700
| 61> H    2.1451724200   1.1498945500  -0.1235675900
| 62> H    2.4947091000  -1.5809510700   1.1308416900
| 63> C    3.3463563200  -1.0882780100  -0.7717362900
| 64> C    0.3830823100  -1.0891740000  -1.5647767900
| 65> H   -0.6893559600  -1.2212242500  -1.7378833200
| 66> H    0.9212336100  -1.6417613300  -2.3428049800
| 67> H    0.6065101100  -0.0259228000  -1.6979694300
| 68> H    3.0511018500  -0.4883359800  -1.6484976800
| 69> C    3.6505393700  -2.5091910200  -1.2448522500
| 70> C    4.5480859600  -0.4091980700  -0.1592424500
| 71> C    5.6799833900  -0.9920869600   0.2377292400
| 72> H    4.4470792500   0.6654538100   0.0042199000
| 73> H    5.8186748700  -2.0643447000   0.0914950000
| 74> C    6.8186538800  -0.2710733400   0.9038024900
| 75> C    8.1386674200  -0.5624801400   0.1774461700
| 76> C    6.9115963800  -0.5933680700   2.4212273300
| 77> H    6.6219474900   0.8091571400   0.8318636200
| 78> H    7.8039028200  -0.0627558400   2.7882224400
| 79> C    7.0947266400  -2.0843862500   2.7176114700
| 80> C    5.6962339400  -0.0491972400   3.1738111700
| 81> H    8.0993941900  -0.1952877500  -0.8535353600
| 82> H    8.3428883800  -1.6380258900   0.1367081100
| 83> H    8.9803680100  -0.0760785900   0.6840409900
| 84> H    7.2453152100  -2.2412085900   3.7914089700
| 85> H    7.9589392800  -2.5073073200   2.1954334700
| 86> H    6.2058271000  -2.6546277700   2.4225437400
| 87> H    4.7814764700  -0.5603687500   2.8504269600
| 88> H    5.5622226700   1.0233841100   2.9911469100
| 89> H    5.8058093000  -0.2011131000   4.2534499300
| 90> H    4.5654480000  -2.5272311900  -1.8468419100
| 91> H    2.8393178100  -2.8995950900  -1.8626454000
| 92> H    3.7880168200  -3.1911257000  -0.3974130200
| 93> *
| 94> %eprnmr
| 95>  Nuclei = all C { ssfc }
| 96>  SpinSpinRThresh 8.0
| 97> end
| 98> 
| 99>                          ****END OF INPUT****
================================================================================

                       ****************************
                       * Single Point Calculation *
                       ****************************

---------------------------------
CARTESIAN COORDINATES (ANGSTROEM)
---------------------------------
  C     -4.923865    0.279894    0.450511
  C     -6.347901   -0.132175    0.160254
  C     -6.953147    0.682168   -0.989753
  H     -6.970760    0.050600    1.052450
  H     -6.401762   -1.201741   -0.070795
  C     -4.735531    1.736747    0.616409
  C     -5.381267    2.578231   -0.461128
  C     -6.842883    2.174236   -0.697337
  H     -4.823865    2.429002   -1.398356
  H     -5.310785    3.640564   -0.204784
  H     -7.265029    2.746530   -1.531768
  H     -7.438606    2.402415    0.199402
  O     -8.307108    0.287868   -1.248377
  H     -6.410142    0.451206   -1.916920
  C     -3.931336   -0.639947    0.500961
  C     -4.089784    2.281706    1.653850
  H     -3.654196    1.666331    2.436139
  H     -3.993104    3.360751    1.747688
  C     -2.521938   -0.374459    0.673250
  H     -4.230496   -1.677143    0.356068
  C     -1.543945   -1.295793    0.809063
  H     -2.233248    0.674112    0.683335
  C     -1.744476   -2.788906    0.868085
  C     -0.850027   -3.526664   -0.145349
  H     -2.789507   -3.074061    0.719174
  H     -1.466128   -3.125388    1.879757
  C      0.622794   -3.104945   -0.051766
  H     -1.225338   -3.337058   -1.158928
  H     -0.933384   -4.607742    0.020565
  C      0.789699   -1.583313   -0.170349
  H      1.191611   -3.630856   -0.825203
  H      1.030406   -3.424192    0.919345
  C     -0.096897   -0.930154    0.937348
  H      0.256802   -1.389839    1.878898
  C      0.345893    0.529121    0.957860
  H     -8.824203    0.481861   -0.455087
  C      1.866258    0.450814    0.674110
  H      0.115880    1.017139    1.910791
  H     -0.161498    1.099540    0.171896
  C      2.176941   -1.014470    0.240528
  H      2.456737    0.727273    1.553537
  H      2.145172    1.149895   -0.123568
  H      2.494709   -1.580951    1.130842
  C      3.346356   -1.088278   -0.771736
  C      0.383082   -1.089174   -1.564777
  H     -0.689356   -1.221224   -1.737883
  H      0.921234   -1.641761   -2.342805
  H      0.606510   -0.025923   -1.697969
  H      3.051102   -0.488336   -1.648498
  C      3.650539   -2.509191   -1.244852
  C      4.548086   -0.409198   -0.159242
  C      5.679983   -0.992087    0.237729
  H      4.447079    0.665454    0.004220
  H      5.818675   -2.064345    0.091495
  C      6.818654   -0.271073    0.903802
  C      8.138667   -0.562480    0.177446
  C      6.911596   -0.593368    2.421227
  H      6.621947    0.809157    0.831864
  H      7.803903   -0.062756    2.788222
  C      7.094727   -2.084386    2.717611
  C      5.696234   -0.049197    3.173811
  H      8.099394   -0.195288   -0.853535
  H      8.342888   -1.638026    0.136708
  H      8.980368   -0.076079    0.684041
  H      7.245315   -2.241209    3.791409
  H      7.958939   -2.507307    2.195433
  H      6.205827   -2.654628    2.422544
  H      4.781476   -0.560369    2.850427
  H      5.562223    1.023384    2.991147
  H      5.805809   -0.201113    4.253450
  H      4.565448   -2.527231   -1.846842
  H      2.839318   -2.899595   -1.862645
  H      3.788017   -3.191126   -0.397413

----------------------------
CARTESIAN COORDINATES (A.U.)
----------------------------
  NO LB      ZA    FRAG     MASS         X           Y           Z
   0 C     6.0000    0    12.011   -9.304756    0.528922    0.851342
   1 C     6.0000    0    12.011  -11.995795   -0.249775    0.302836
   2 C     6.0000    0    12.011  -13.139543    1.289111   -1.870362
   3 H     1.0000    0     1.008  -13.172828    0.095620    1.988842
   4 H     1.0000    0     1.008  -12.097577   -2.270962   -0.133783
   5 C     6.0000    0    12.011   -8.948857    3.281977    1.164844
   6 C     6.0000    0    12.011  -10.169120    4.872150   -0.871406
   7 C     6.0000    0    12.011  -12.931175    4.108711   -1.317777
   8 H     1.0000    0     1.008   -9.115785    4.590149   -2.642510
   9 H     1.0000    0     1.008  -10.035929    6.879669   -0.386985
  10 H     1.0000    0     1.008  -13.728915    5.190189   -2.894622
  11 H     1.0000    0     1.008  -14.056929    4.539907    0.376815
  12 O     8.0000    0    15.999  -15.698159    0.543993   -2.359090
  13 H     1.0000    0     1.008  -12.113413    0.852656   -3.622454
  14 C     6.0000    0    12.011   -7.429148   -1.209324    0.946679
  15 C     6.0000    0    12.011   -7.728572    4.311799    3.125324
  16 H     1.0000    0     1.008   -6.905429    3.148910    4.603635
  17 H     1.0000    0     1.008   -7.545873    6.350899    3.302652
  18 C     6.0000    0    12.011   -4.765773   -0.707625    1.272259
  19 H     1.0000    0     1.008   -7.994478   -3.169342    0.672871
  20 C     6.0000    0    12.011   -2.917633   -2.448694    1.528907
  21 H     1.0000    0     1.008   -4.220227    1.273886    1.291316
  22 C     6.0000    0    12.011   -3.296582   -5.270268    1.640444
  23 C     6.0000    0    12.011   -1.606318   -6.664430   -0.274670
  24 H     1.0000    0     1.008   -5.271404   -5.809134    1.359043
  25 H     1.0000    0     1.008   -2.770580   -5.906128    3.552227
  26 C     6.0000    0    12.011    1.176910   -5.867495   -0.097824
  27 H     1.0000    0     1.008   -2.315553   -6.306126   -2.190056
  28 H     1.0000    0     1.008   -1.763839   -8.707370    0.038863
  29 C     6.0000    0    12.011    1.492315   -2.992027   -0.321913
  30 H     1.0000    0     1.008    2.251818   -6.861323   -1.559409
  31 H     1.0000    0     1.008    1.947185   -6.470785    1.737311
  32 C     6.0000    0    12.011   -0.183108   -1.757737    1.771331
  33 H     1.0000    0     1.008    0.485286   -2.626415    3.550603
  34 C     6.0000    0    12.011    0.653643    0.999893    1.810093
  35 H     1.0000    0     1.008  -16.675327    0.910585   -0.859991
  36 C     6.0000    0    12.011    3.526717    0.851916    1.273883
  37 H     1.0000    0     1.008    0.218982    1.922114    3.610871
  38 H     1.0000    0     1.008   -0.305188    2.077830    0.324837
  39 C     6.0000    0    12.011    4.113822   -1.917071    0.454531
  40 H     1.0000    0     1.008    4.642560    1.374346    2.935760
  41 H     1.0000    0     1.008    4.053788    2.172986   -0.233509
  42 H     1.0000    0     1.008    4.714317   -2.987565    2.136981
  43 C     6.0000    0    12.011    6.323697   -2.056547   -1.458370
  44 C     6.0000    0    12.011    0.723921   -2.058241   -2.957000
  45 H     1.0000    0     1.008   -1.302694   -2.307779   -3.284124
  46 H     1.0000    0     1.008    1.740879   -3.102479   -4.427260
  47 H     1.0000    0     1.008    1.146138   -0.048987   -3.208697
  48 H     1.0000    0     1.008    5.765747   -0.922821   -3.115209
  49 C     6.0000    0    12.011    6.898520   -4.741684   -2.352430
  50 C     6.0000    0    12.011    8.594637   -0.773272   -0.300925
  51 C     6.0000    0    12.011   10.733613   -1.874773    0.449243
  52 H     1.0000    0     1.008    8.403762    1.257525    0.007974
  53 H     1.0000    0     1.008   10.995702   -3.901046    0.172900
  54 C     6.0000    0    12.011   12.885388   -0.512254    1.707939
  55 C     6.0000    0    12.011   15.379853   -1.062933    0.335325
  56 C     6.0000    0    12.011   13.061024   -1.121303    4.575457
  57 H     1.0000    0     1.008   12.513667    1.529085    1.571994
  58 H     1.0000    0     1.008   14.747239   -0.118591    5.268977
  59 C     6.0000    0    12.011   13.407090   -3.938919    5.135541
  60 C     6.0000    0    12.011   10.764322   -0.092969    5.997634
  61 H     1.0000    0     1.008   15.305637   -0.369040   -1.612948
  62 H     1.0000    0     1.008   15.765774   -3.095420    0.258341
  63 H     1.0000    0     1.008   16.970436   -0.143768    1.292650
  64 H     1.0000    0     1.008   13.691662   -4.235270    7.164725
  65 H     1.0000    0     1.008   15.040216   -4.738124    4.148768
  66 H     1.0000    0     1.008   11.727314   -5.016519    4.577944
  67 H     1.0000    0     1.008    9.035681   -1.058943    5.386526
  68 H     1.0000    0     1.008   10.511078    1.933916    5.652448
  69 H     1.0000    0     1.008   10.971390   -0.380049    8.037855
  70 H     1.0000    0     1.008    8.627446   -4.775775   -3.490025
  71 H     1.0000    0     1.008    5.365533   -5.479441   -3.519890
  72 H     1.0000    0     1.008    7.158314   -6.030354   -0.751002

--------------------------------
INTERNAL COORDINATES (ANGSTROEM)
--------------------------------
 C      0   0   0     0.000000000000     0.00000000     0.00000000
 C      1   0   0     1.510605909351     0.00000000     0.00000000
 C      2   1   0     1.533620559687   111.79404721     0.00000000
 H      2   1   3     1.103346944822   109.36615864   241.44486699
 H      2   1   3     1.095561957996   110.68188927   122.90996298
 C      1   2   3     1.478314532039   114.23520952    50.26317418
 C      6   1   2     1.512003736274   114.46095224   312.21353803
 C      3   2   1     1.524444792875   110.32436922   305.12588402
 H      7   6   1     1.100618728344   108.36758917   289.97726195
 H      7   6   1     1.095094452588   110.21706606   172.77148980
 H      8   3   2     1.096357949272   109.69830531   179.18189266
 H      8   3   2     1.100496759522   108.66817986   296.64914577
 O      3   2   1     1.433725884332   111.21860129   180.41412356
 H      3   2   1     1.099016461436   109.02797640    65.25785034
 C      1   2   3     1.354165753367   120.85096639   232.29846059
 C      6   1   2     1.338003481431   123.35854840   129.97681615
 H     16   6   1     1.086461311079   121.40547852     0.65912879
 H     16   6   1     1.087424335137   120.92873639   181.35714767
 C     15   1   2     1.444496246718   126.49372861   175.30680247
 H     15   1   2     1.089159135997   116.14126908   357.95320343
 C     19  15   1     1.350471165382   126.38413697   175.44400626
 H     19  15   1     1.087632218035   115.93036335   354.82886114
 C     21  19  15     1.507674500993   125.67999582   357.11466357
 C     23  21  19     1.539927510719   111.80447203   128.03267936
 H     23  21  19     1.093425028759   112.33745622     3.91139760
 H     23  21  19     1.101897610908   107.74378589   246.71357775
 C     24  23  21     1.534863756999   112.68097517    50.87369285
 H     24  23  21     1.097337563257   109.05250653   288.81515621
 H     24  23  21     1.096906938926   109.17719030   172.82358028
 C     27  24  23     1.535344790268   111.83354603   306.06768979
 H     27  24  23     1.094687319792   108.87666488   182.52000603
 H     27  24  23     1.100510636020   109.23902255    66.04689122
 C     21  19  15     1.498031303672   122.79491755   177.86703474
 H     33  21  19     1.105861419975   106.28453964   123.80773656
 C     33  21  19     1.525111986581   121.00723109     1.65138199
 H     13   3   2     0.966606602019   107.57542021    62.74283126
 C     35  33  21     1.548598234379   103.54399753   196.32305120
 H     35  33  21     1.095054602856   112.15654727    74.36918731
 H     35  33  21     1.095702249914   110.73404187   314.72190229
 C     30  27  24     1.554619219318   116.05464471   166.11392937
 H     37  35  33     1.094754618687   111.68953984   249.08539548
 H     37  35  33     1.096720234634   110.53116312   130.54534639
 H     40  30  27     1.102059982260   106.42306143   320.47236575
 C     40  30  27     1.548437465027   118.92690315    80.69750389
 C     30  27  24     1.534255219861   111.13581608   294.23037048
 H     45  30  27     1.094315759831   111.38502186    66.56684263
 H     45  30  27     1.095576306518   110.65899515   306.47641228
 H     45  30  27     1.094606493432   111.67491080   186.56817941
 H     44  40  30     1.102640547237   106.95690570    62.15167629
 C     44  40  30     1.528188411650   113.39304089   302.91180877
 C     44  40  30     1.510116683109   108.32527590   177.07346958
 C     51  44  40     1.333618301010   126.84137151   111.52205475
 H     51  44  40     1.091695451360   115.45288781   294.08583907
 H     52  51  44     1.091034573496   119.83775848     2.62604773
 C     52  51  44     1.503357808171   124.41018856   183.13028933
 C     55  52  51     1.534583713088   110.53201422   232.15915776
 C     55  52  51     1.554056094979   112.23755823   106.60166070
 H     55  52  51     1.100348351571   107.84635519   350.03115823
 H     57  55  52     1.101111044471   105.90039494   176.88191222
 C     57  55  52     1.531181068216   113.45979940    58.68366432
 C     57  55  52     1.529578435065   111.04618155   293.83630637
 H     56  55  52     1.095123533246   110.55359938    62.37434089
 H     56  55  52     1.095520173424   111.36951754   302.91880053
 H     56  55  52     1.096213785126   110.94489011   182.53251096
 H     60  57  55     1.095587164375   110.21479407   174.84513854
 H     60  57  55     1.094712556916   112.22744423    54.83888100
 H     60  57  55     1.096532146648   110.93811888   293.79291601
 H     61  57  55     1.096656230928   110.60133890    65.12236658
 H     61  57  55     1.096246324845   111.29896670   305.37223354
 H     61  57  55     1.095766873077   110.85470341   184.91320460
 H     50  44  40     1.095342320797   110.59269058   187.78527381
 H     50  44  40     1.091862689842   111.08445442    68.27343909
 H     50  44  40     1.096397831806   111.34488819   307.92877997

---------------------------
INTERNAL COORDINATES (A.U.)
---------------------------
 C      0   0   0     0.000000000000     0.00000000     0.00000000
 C      1   0   0     2.854631464956     0.00000000     0.00000000
 C      2   1   0     2.898122851159   111.79404721     0.00000000
 H      2   1   3     2.085023556412   109.36615864   241.44486699
 H      2   1   3     2.070312063354   110.68188927   122.90996298
 C      1   2   3     2.793609605350   114.23520952    50.26317418
 C      6   1   2     2.857272975024   114.46095224   312.21353803
 C      3   2   1     2.880783164816   110.32436922   305.12588402
 H      7   6   1     2.079867974435   108.36758917   289.97726195
 H      7   6   1     2.069428606167   110.21706606   172.77148980
 H      8   3   2     2.071816268872   109.69830531   179.18189266
 H      8   3   2     2.079637486765   108.66817986   296.64914577
 O      3   2   1     2.709349272501   111.21860129   180.41412356
 H      3   2   1     2.076840128785   109.02797640    65.25785034
 C      1   2   3     2.559002413800   120.85096639   232.29846059
 C      6   1   2     2.528460146138   123.35854840   129.97681615
 H     16   6   1     2.053114333040   121.40547852     0.65912879
 H     16   6   1     2.054934184771   120.92873639   181.35714767
 C     15   1   2     2.729702307773   126.49372861   175.30680247
 H     15   1   2     2.058212483293   116.14126908   357.95320343
 C     19  15   1     2.552020654329   126.38413697   175.44400626
 H     19  15   1     2.055327026515   115.93036335   354.82886114
 C     21  19  15     2.849091905973   125.67999582   357.11466357
 C     23  21  19     2.910041261349   111.80447203   128.03267936
 H     23  21  19     2.066273852330   112.33745622     3.91139760
 H     23  21  19     2.082284712239   107.74378589   246.71357775
 C     24  23  21     2.900472153609   112.68097517    50.87369285
 H     24  23  21     2.073667471020   109.05250653   288.81515621
 H     24  23  21     2.072853708968   109.17719030   172.82358028
 C     27  24  23     2.901381174749   111.83354603   306.06768979
 H     27  24  23     2.068659236683   108.87666488   182.52000603
 H     27  24  23     2.079663709545   109.23902255    66.04689122
 C     21  19  15     2.830868903981   122.79491755   177.86703474
 H     33  21  19     2.089775225823   106.28453964   123.80773656
 C     33  21  19     2.882043978199   121.00723109     1.65138199
 H     13   3   2     1.826621757056   107.57542021    62.74283126
 C     35  33  21     2.926426554450   103.54399753   196.32305120
 H     35  33  21     2.069353301088   112.15654727    74.36918731
 H     35  33  21     2.070577176658   110.73404187   314.72190229
 C     30  27  24     2.937804567042   116.05464471   166.11392937
 H     37  35  33     2.068786413164   111.68953984   249.08539548
 H     37  35  33     2.072500888988   110.53116312   130.54534639
 H     40  30  27     2.082591549626   106.42306143   320.47236575
 C     40  30  27     2.926122744404   118.92690315    80.69750389
 C     30  27  24     2.899322185077   111.13581608   294.23037048
 H     45  30  27     2.067957090114   111.38502186    66.56684263
 H     45  30  27     2.070339178131   110.65899515   306.47641228
 H     45  30  27     2.068506496999   111.67491080   186.56817941
 H     44  40  30     2.083688658434   106.95690570    62.15167629
 C     44  40  30     2.887857579051   113.39304089   302.91180877
 C     44  40  30     2.853706961341   108.32527590   177.07346958
 C     51  44  40     2.520173356093   126.84137151   111.52205475
 H     51  44  40     2.063005424718   115.45288781   294.08583907
 H     52  51  44     2.061756546546   119.83775848     2.62604773
 C     52  51  44     2.840934538735   124.41018856   183.13028933
 C     55  52  51     2.899942947311   110.53201422   232.15915776
 C     55  52  51     2.936740416261   112.23755823   106.60166070
 H     55  52  51     2.079357036381   107.84635519   350.03115823
 H     57  55  52     2.080798317085   105.90039494   176.88191222
 C     57  55  52     2.893512880372   113.45979940    58.68366432
 C     57  55  52     2.890484342624   111.04618155   293.83630637
 H     56  55  52     2.069483560648   110.55359938    62.37434089
 H     56  55  52     2.070233101957   111.36951754   302.91880053
 H     56  55  52     2.071543838117   110.94489011   182.53251096
 H     60  57  55     2.070359696509   110.21479407   174.84513854
 H     60  57  55     2.068706927936   112.22744423    54.83888100
 H     60  57  55     2.072145454205   110.93811888   293.79291601
 H     61  57  55     2.072379939513   110.60133890    65.12236658
 H     61  57  55     2.071605329275   111.29896670   305.37223354
 H     61  57  55     2.070699296739   110.85470341   184.91320460
 H     50  44  40     2.069897009200   110.59269058   187.78527381
 H     50  44  40     2.063321459647   111.08445442    68.27343909
 H     50  44  40     2.071891635938   111.34488819   307.92877997

---------------------
BASIS SET INFORMATION
---------------------
There are 3 groups of distinct atoms

 Group   1 Type C   : 7s4p contracted to 4s3p pattern {4111/211}
 Group   2 Type H   : 5s contracted to 3s pattern {311}
 Group   3 Type O   : 7s4p contracted to 4s3p pattern {4111/211}

Atom   0C    basis set group =>   1
Atom   1C    basis set group =>   1
Atom   2C    basis set group =>   1
Atom   3H    basis set group =>   2
Atom   4H    basis set group =>   2
Atom   5C    basis set group =>   1
Atom   6C    basis set group =>   1
Atom   7C    basis set group =>   1
Atom   8H    basis set group =>   2
Atom   9H    basis set group =>   2
Atom  10H    basis set group =>   2
Atom  11H    basis set group =>   2
Atom  12O    basis set group =>   3
Atom  13H    basis set group =>   2
Atom  14C    basis set group =>   1
Atom  15C    basis set group =>   1
Atom  16H    basis set group =>   2
Atom  17H    basis set group =>   2
Atom  18C    basis set group =>   1
Atom  19H    basis set group =>   2
Atom  20C    basis set group =>   1
Atom  21H    basis set group =>   2
Atom  22C    basis set group =>   1
Atom  23C    basis set group =>   1
Atom  24H    basis set group =>   2
Atom  25H    basis set group =>   2
Atom  26C    basis set group =>   1
Atom  27H    basis set group =>   2
Atom  28H    basis set group =>   2
Atom  29C    basis set group =>   1
Atom  30H    basis set group =>   2
Atom  31H    basis set group =>   2
Atom  32C    basis set group =>   1
Atom  33H    basis set group =>   2
Atom  34C    basis set group =>   1
Atom  35H    basis set group =>   2
Atom  36C    basis set group =>   1
Atom  37H    basis set group =>   2
Atom  38H    basis set group =>   2
Atom  39C    basis set group =>   1
Atom  40H    basis set group =>   2
Atom  41H    basis set group =>   2
Atom  42H    basis set group =>   2
Atom  43C    basis set group =>   1
Atom  44C    basis set group =>   1
Atom  45H    basis set group =>   2
Atom  46H    basis set group =>   2
Atom  47H    basis set group =>   2
Atom  48H    basis set group =>   2
Atom  49C    basis set group =>   1
Atom  50C    basis set group =>   1
Atom  51C    basis set group =>   1
Atom  52H    basis set group =>   2
Atom  53H    basis set group =>   2
Atom  54C    basis set group =>   1
Atom  55C    basis set group =>   1
Atom  56C    basis set group =>   1
Atom  57H    basis set group =>   2
Atom  58H    basis set group =>   2
Atom  59C    basis set group =>   1
Atom  60C    basis set group =>   1
Atom  61H    basis set group =>   2
Atom  62H    basis set group =>   2
Atom  63H    basis set group =>   2
Atom  64H    basis set group =>   2
Atom  65H    basis set group =>   2
Atom  66H    basis set group =>   2
Atom  67H    basis set group =>   2
Atom  68H    basis set group =>   2
Atom  69H    basis set group =>   2
Atom  70H    basis set group =>   2
Atom  71H    basis set group =>   2
Atom  72H    basis set group =>   2

-------------------------
BASIS SET IN INPUT FORMAT
-------------------------

 # Basis set for element : H 
 NewGTO H 
 S 3 
   1    1357.7500000000      0.0012928364
   2      54.3100000000      0.0588280685
   3       4.3448000000      0.9761499708
 S 1 
   1       0.6604910000      1.0000000000
 S 1 
   1       0.1366870000      1.0000000000
  end;

 # Basis set for element : C 
 NewGTO C 
 S 4 
   1  139534.0000000000      0.0001655246
   2    5581.3600000000      0.0074486101
   3     446.5090000000      0.1285821065
   4      67.4620000000      0.9218029311
 S 1 
   1      15.0674000000      1.0000000000
 S 1 
   1       3.9387600000      1.0000000000
 S 1 
   1       0.2999150000      1.0000000000
 P 2 
   1      28.3900000000      0.0816325586
   2       4.3676900000      0.9660360576
 P 1 
   1       0.8698170000      1.0000000000
 P 1 
   1       0.1889340000      1.0000000000
  end;

 # Basis set for element : O 
 NewGTO O 
 S 4 
   1  253789.0000000000      0.0001641076
   2   10151.6000000000      0.0074010921
   3     812.1250000000      0.1277711901
   4     122.6930000000      0.9223372164
 S 1 
   1      27.5608000000      1.0000000000
 S 1 
   1       7.3172600000      1.0000000000
 S 1 
   1       0.5792400000      1.0000000000
 P 2 
   1      53.4157000000      0.0793786106
   2       8.2177900000      0.9670506337
 P 1 
   1       1.6754400000      1.0000000000
 P 1 
   1       0.3506720000      1.0000000000
  end;

---------------------------------
AUXILIARY/J BASIS SET INFORMATION
---------------------------------
There are 3 groups of distinct atoms

 Group   1 Type C   : 12s5p4d2f1g contracted to 6s4p3d1f1g pattern {711111/2111/211/2/1}
 Group   2 Type H   : 5s2p1d contracted to 3s1p1d pattern {311/2/1}
 Group   3 Type O   : 12s5p4d2f1g contracted to 6s4p3d1f1g pattern {711111/2111/211/2/1}

Atom   0C    basis set group =>   1
Atom   1C    basis set group =>   1
Atom   2C    basis set group =>   1
Atom   3H    basis set group =>   2
Atom   4H    basis set group =>   2
Atom   5C    basis set group =>   1
Atom   6C    basis set group =>   1
Atom   7C    basis set group =>   1
Atom   8H    basis set group =>   2
Atom   9H    basis set group =>   2
Atom  10H    basis set group =>   2
Atom  11H    basis set group =>   2
Atom  12O    basis set group =>   3
Atom  13H    basis set group =>   2
Atom  14C    basis set group =>   1
Atom  15C    basis set group =>   1
Atom  16H    basis set group =>   2
Atom  17H    basis set group =>   2
Atom  18C    basis set group =>   1
Atom  19H    basis set group =>   2
Atom  20C    basis set group =>   1
Atom  21H    basis set group =>   2
Atom  22C    basis set group =>   1
Atom  23C    basis set group =>   1
Atom  24H    basis set group =>   2
Atom  25H    basis set group =>   2
Atom  26C    basis set group =>   1
Atom  27H    basis set group =>   2
Atom  28H    basis set group =>   2
Atom  29C    basis set group =>   1
Atom  30H    basis set group =>   2
Atom  31H    basis set group =>   2
Atom  32C    basis set group =>   1
Atom  33H    basis set group =>   2
Atom  34C    basis set group =>   1
Atom  35H    basis set group =>   2
Atom  36C    basis set group =>   1
Atom  37H    basis set group =>   2
Atom  38H    basis set group =>   2
Atom  39C    basis set group =>   1
Atom  40H    basis set group =>   2
Atom  41H    basis set group =>   2
Atom  42H    basis set group =>   2
Atom  43C    basis set group =>   1
Atom  44C    basis set group =>   1
Atom  45H    basis set group =>   2
Atom  46H    basis set group =>   2
Atom  47H    basis set group =>   2
Atom  48H    basis set group =>   2
Atom  49C    basis set group =>   1
Atom  50C    basis set group =>   1
Atom  51C    basis set group =>   1
Atom  52H    basis set group =>   2
Atom  53H    basis set group =>   2
Atom  54C    basis set group =>   1
Atom  55C    basis set group =>   1
Atom  56C    basis set group =>   1
Atom  57H    basis set group =>   2
Atom  58H    basis set group =>   2
Atom  59C    basis set group =>   1
Atom  60C    basis set group =>   1
Atom  61H    basis set group =>   2
Atom  62H    basis set group =>   2
Atom  63H    basis set group =>   2
Atom  64H    basis set group =>   2
Atom  65H    basis set group =>   2
Atom  66H    basis set group =>   2
Atom  67H    basis set group =>   2
Atom  68H    basis set group =>   2
Atom  69H    basis set group =>   2
Atom  70H    basis set group =>   2
Atom  71H    basis set group =>   2
Atom  72H    basis set group =>   2

-------------------------------------
AUXILIARY/J BASIS SET IN INPUT FORMAT
-------------------------------------

 # Auxiliary/J basis set for element : H 
 NewAuxJGTO H 
 S 3 
   1      15.6752927000      0.1007184237
   2       3.6063578000      0.3404257499
   3       1.2080016000      0.6491996172
 S 1 
   1       0.4726794000      1.0000000000
 S 1 
   1       0.2018100000      1.0000000000
 P 2 
   1       2.0281365000      0.5596620919
   2       0.5358730000      0.5596620919
 D 1 
   1       2.2165124000      1.0000000000
  end;

 # Auxiliary/J basis set for element : C 
 NewAuxJGTO C 
 S 7 
   1    1861.0916331000      0.0134602335
   2     642.9939764000      0.0299160374
   3     235.1105725000      0.1008649584
   4      90.7028894000      0.2370970548
   5      36.7794552000      0.3924037254
   6      15.6046273000      0.3195862154
   7       6.8907294000      0.0530104441
 S 1 
   1       3.1478850000     -1.0000000000
 S 1 
   1       1.4777287000      1.0000000000
 S 1 
   1       0.7076466000      1.0000000000
 S 1 
   1       0.3430122000      1.0000000000
 S 1 
   1       0.1669453000      1.0000000000
 P 2 
   1      13.5472892000     -0.6769313712
   2       5.4669419000     -0.3779500978
 P 1 
   1       2.1751721000      1.0000000000
 P 1 
   1       0.8582194000      1.0000000000
 P 1 
   1       0.3376720000      1.0000000000
 D 2 
   1       5.9287253000     -0.3533329857
   2       1.9809209000     -0.7456525731
 D 1 
   1       0.8055417000     -1.0000000000
 D 1 
   1       0.3531244000     -1.0000000000
 F 2 
   1       1.6755626000      0.6311076882
   2       0.5997536000      0.4968166032
 G 1 
   1       1.0024600000     -1.0000000000
  end;

 # Auxiliary/J basis set for element : O 
 NewAuxJGTO O 
 S 7 
   1    2876.8216605000      0.0168151159
   2    1004.7443032000      0.0340137548
   3     369.7579954000      0.1194951309
   4     142.9442404000      0.2664627624
   5      57.8366425000      0.4202764046
   6      24.3864983000      0.2765077335
   7      10.6622662000      0.0057008815
 S 1 
   1       4.8070437000     -1.0000000000
 S 1 
   1       2.2210770000      1.0000000000
 S 1 
   1       1.0447795000      1.0000000000
 S 1 
   1       0.4968425000      1.0000000000
 S 1 
   1       0.2371384000      1.0000000000
 P 2 
   1      64.2613382000     -0.2731534179
   2      16.3006076000     -0.8168011598
 P 1 
   1       4.3550542000      1.0000000000
 P 1 
   1       1.2019554000      1.0000000000
 P 1 
   1       0.3354196000      1.0000000000
 D 2 
   1       9.2146611000     -0.4661230638
   2       2.8435251000     -0.6600908911
 D 1 
   1       0.9955759000     -1.0000000000
 D 1 
   1       0.3649441000     -1.0000000000
 F 2 
   1       2.6420115000      0.5931563945
   2       0.7345613000      0.5931563945
 G 1 
   1       1.3931000000     -1.0000000000
  end;


Checking for AutoStart:
The File: inpJ.gbw exists
Trying to determine its content:
     ... Fine, the file contains calculation information
     ... Fine, the calculation information was read
     ... Fine, the file contains a basis set
     ... Fine, the basis set was read
     ... Fine, the file contains a geometry
     ... Fine, the geometry was read
     ... Fine, the file contains a set of orbitals
     ... Fine, the orbitals can be read
     => possible old guess file was deleted
     => GBW file was renamed to GES file
     => GES file is set as startup file
     => Guess is set to MORead
     ... now leaving AutoStart



           ************************************************************
           *        Program running with 4 parallel MPI-processes     *
           *              working on a common directory               *
           ************************************************************
------------------------------------------------------------------------------
                             ORCA STARTUP CALCULATIONS
                           -- RI-GTO INTEGRALS CHOSEN --
------------------------------------------------------------------------------
------------------------------------------------------------------------------
                   ___                                                        
                  /   \      - P O W E R E D   B Y -                         
                 /     \                                                     
                 |  |  |   _    _      __       _____    __    __             
                 |  |  |  | |  | |    /  \     |  _  \  |  |  /  |          
                  \  \/   | |  | |   /    \    | | | |  |  | /  /          
                 / \  \   | |__| |  /  /\  \   | |_| |  |  |/  /          
                |  |  |   |  __  | /  /__\  \  |    /   |      \           
                |  |  |   | |  | | |   __   |  |    \   |  |\   \          
                \     /   | |  | | |  |  |  |  | |\  \  |  | \   \       
                 \___/    |_|  |_| |__|  |__|  |_| \__\ |__|  \__/        
                                                                              
                      - O R C A' S   B I G   F R I E N D -                    
                                      &                                       
                       - I N T E G R A L  F E E D E R -                       
                                                                              
 v1 FN, 2020, v2 2021, v3 2022-2024                                           
------------------------------------------------------------------------------


----------------------
SHARK INTEGRAL PACKAGE
----------------------

Number of atoms                             ...     73
Number of basis functions                   ...    509
Number of shells                            ...    335
Maximum angular momentum                    ...      1
Integral batch strategy                     ... SHARK/LIBINT Hybrid
RI-J (if used) integral strategy            ... SPLIT-RIJ (Revised 2003 algorithm where possible)
Printlevel                                  ...      1
Contraction scheme used                     ... SEGMENTED contraction
Prescreening option                         ... SCHWARTZ
   Thresh                                   ... 3.000e-11
   Tcut                                     ... 1.000e-12
   Tpresel                                  ... 1.000e-12 
Coulomb Range Separation                    ... NOT USED
Exchange Range Separation                   ... NOT USED
Multipole approximations                    ... NOT USED
Finite Nucleus Model                        ... NOT USED
CABS basis                                  ... NOT available
Auxiliary Coulomb fitting basis             ... AVAILABLE
   # of basis functions in Aux-J            ...   1905
   # of shells in Aux-J                     ...    655
   Maximum angular momentum in Aux-J        ...      4
Auxiliary J/K fitting basis                 ... NOT available
Auxiliary Correlation fitting basis         ... NOT available
Auxiliary 'external' fitting basis          ... NOT available

Checking pre-screening integrals            ... done (  0.0 sec) Dimension = 335
Check shell pair data                       ... done (  0.0 sec)
Shell pair information
Shell pair cut-off parameter TPreSel        ...   1.0e-12
Total number of shell pairs                 ...     56280
Shell pairs after pre-screening             ...     21910
Total number of primitive shell pairs       ...    145865
Primitive shell pairs kept                  ...     37673
          la=0 lb=0:  11042 shell pairs
          la=1 lb=0:   9000 shell pairs
          la=1 lb=1:   1868 shell pairs

Calculating one electron integrals          ... done (  0.0 sec)
Calculating RI/J V-Matrix + Cholesky decomp.... done (  0.2 sec)
Calculating Nuclear repulsion               ... done (  0.0 sec) ENN=   2775.120272116210 Eh

Diagonalization of the overlap matrix:
Smallest eigenvalue                        ... 7.559e-03
Time for diagonalization                   ...    0.026 sec
Threshold for overlap eigenvalues          ... 1.000e-07
Number of eigenvalues below threshold      ... 0
Time for construction of square roots      ...    0.012 sec
Total time needed                          ...    0.040 sec

-------------------
DFT GRID GENERATION
-------------------

General Integration Accuracy     IntAcc      ... 4.388
Radial Grid Type                 RadialGrid  ... OptM3 with GC (2021)
Angular Grid (max. ang.)         AngularGrid ... 4 (Lebedev-302)
Angular grid pruning method      GridPruning ... 4 (adaptive)
Weight generation scheme         WeightScheme... mBecke (2022)
Basis function cutoff            BFCut       ... 1.0000e-11
Integration weight cutoff        WCut        ... 1.0000e-14
Partially contracted basis set               ... off
Rotationally invariant grid construction     ... off
Angular grids for H and He will be reduced by one unit

Total number of grid points                  ...   309765
Total number of batches                      ...     4875
Average number of points per batch           ...       63
Average number of grid points per atom       ...     4243

--------------------
COSX GRID GENERATION
--------------------

GRIDX 1
-------
General Integration Accuracy     IntAcc      ... 3.816
Radial Grid Type                 RadialGrid  ... OptM3 with GC (2021)
Angular Grid (max. ang.)         AngularGrid ... 1 (Lebedev-50)
Angular grid pruning method      GridPruning ... 4 (adaptive)
Weight generation scheme         WeightScheme... mBecke (2022)
Basis function cutoff            BFCut       ... 1.0000e-11
Integration weight cutoff        WCut        ... 1.0000e-14
Partially contracted basis set               ... on
Rotationally invariant grid construction     ... off
Angular grids for H and He will be reduced by one unit

Total number of grid points                  ...    39416
Total number of batches                      ...      352
Average number of points per batch           ...      111
Average number of grid points per atom       ...      540
UseSFitting                                  ... on

GRIDX 2
-------
General Integration Accuracy     IntAcc      ... 4.020
Radial Grid Type                 RadialGrid  ... OptM3 with GC (2021)
Angular Grid (max. ang.)         AngularGrid ... 2 (Lebedev-110)
Angular grid pruning method      GridPruning ... 4 (adaptive)
Weight generation scheme         WeightScheme... mBecke (2022)
Basis function cutoff            BFCut       ... 1.0000e-11
Integration weight cutoff        WCut        ... 1.0000e-14
Partially contracted basis set               ... on
Rotationally invariant grid construction     ... off
Angular grids for H and He will be reduced by one unit

Total number of grid points                  ...    81425
Total number of batches                      ...      677
Average number of points per batch           ...      120
Average number of grid points per atom       ...     1115
UseSFitting                                  ... on

GRIDX 3
-------
General Integration Accuracy     IntAcc      ... 4.338
Radial Grid Type                 RadialGrid  ... OptM3 with GC (2021)
Angular Grid (max. ang.)         AngularGrid ... 3 (Lebedev-194)
Angular grid pruning method      GridPruning ... 4 (adaptive)
Weight generation scheme         WeightScheme... mBecke (2022)
Basis function cutoff            BFCut       ... 1.0000e-11
Integration weight cutoff        WCut        ... 1.0000e-14
Partially contracted basis set               ... on
Rotationally invariant grid construction     ... off
Angular grids for H and He will be reduced by one unit

Total number of grid points                  ...   176208
Total number of batches                      ...     1419
Average number of points per batch           ...      124
Average number of grid points per atom       ...     2414
UseSFitting                                  ... on
Initializing property integral containers    ... done (  0.0 sec)

SHARK setup successfully completed in   3.8 seconds

Maximum memory used throughout the entire STARTUP-calculation: 85.4 MB


           ************************************************************
           *        Program running with 4 parallel MPI-processes     *
           *              working on a common directory               *
           ************************************************************
-------------------------------------------------------------------------------
                                 ORCA GUESS
                   Start orbitals & Density for SCF / CASSCF
-------------------------------------------------------------------------------

------------
SCF SETTINGS
------------
Hamiltonian:
 Density Functional     Method          .... DFT(GTOs)
 Exchange Functional    Exchange        .... PBE
   PBE kappa parameter   XKappa         ....  0.804000
   PBE mue parameter    XMuePBE         ....  0.219520
 Correlation Functional Correlation     .... PBE
   PBE beta parameter  CBetaPBE         ....  0.066725
 LDA part of GGA corr.  LDAOpt          .... PW91-LDA
 Gradients option       PostSCFGGA      .... off
 Hybrid DFT is turned on
   Fraction HF Exchange ScalHFX         ....  0.250000
   Scaling of DF-GGA-X  ScalDFX         ....  0.750000
   Scaling of DF-GGA-C  ScalDFC         ....  1.000000
   Scaling of DF-LDA-C  ScalLDAC        ....  1.000000
   Perturbative correction              ....  0.000000
   NL short-range parameter             ....  6.900000
 RI-approximation to the Coulomb term is turned on
   Number of AuxJ basis functions       .... 1905
   RIJ-COSX (HFX calculated with COS-X)).... on


General Settings:
 Integral files         IntName         .... inpJ
 Hartree-Fock type      HFTyp           .... RHF
 Total Charge           Charge          ....    0
 Multiplicity           Mult            ....    1
 Number of Electrons    NEL             ....  220
 Basis Dimension        Dim             ....  509
 Nuclear Repulsion      ENuc            ....   2775.1202721162 Eh

Convergence Acceleration:
 AO-DIIS                CNVDIIS         .... on
   Start iteration      DIISMaxIt       ....    12
   Startup error        DIISStart       ....  0.200000
   # of expansion vecs  DIISMaxEq       ....     5
   Bias factor          DIISBfac        ....   1.050
   Max. coefficient     DIISMaxC        ....  10.000
 MO-DIIS                CNVKDIIS        .... off
 Trust-Rad. Augm. Hess. CNVTRAH         .... auto
   Auto Start mean grad. ratio tolernc. ....  1.125000
   Auto Start start iteration           ....     1
   Auto Start num. interpolation iter.  ....    10
   Max. Number of Micro iterations      ....    24
   Max. Number of Macro iterations      .... Maxiter - #DIIS iter
   Number of Davidson start vectors     ....     2
   Converg. threshold    (grad. norm)   ....   1.000e-04
   Grad. Scal. Fac. for Micro threshold ....   0.100
   Minimum threshold for Micro iter.    ....   1.000e-02
   NR start threshold (gradient norm)   ....   1.000e-04
   Initial trust radius                 ....   0.400
   Minimum AH scaling param. (alpha)    ....   1.000
   Maximum AH scaling param. (alpha)    .... 1000.000
   Quad. conv. algorithm                .... NR
   White noise on init. David. guess    .... on
   Maximum white noise                  ....   0.010
   Pseudo random numbers                .... off
   Inactive MOs                         .... canonical
   Orbital update algorithm             .... Taylor
   Preconditioner                       .... Diag
   Full preconditioner red. dimension   ....   250
 SOSCF                  CNVSOSCF        .... off
 Level Shifting         CNVShift        .... on
   Level shift para.    LevelShift      ....    0.2500
   Turn off err/grad.   ShiftErr        ....    0.0010
 Zerner damping         CNVZerner       .... off
 Static damping         CNVDamp         .... on
   Fraction old density DampFac         ....    0.7000
   Max. Damping (<1)    DampMax         ....    0.9800
   Min. Damping (>=0)   DampMin         ....    0.0000
   Turn off err/grad.   DampErr         ....    0.1000

SCF Procedure:
 Maximum # iterations   MaxIter         ....   125
 SCF integral mode      SCFMode         .... Direct
   Integral package                     .... SHARK and LIBINT hybrid scheme
 Reset frequency        DirectResetFreq ....    20
 Integral Threshold     Thresh          ....  3.000e-11 Eh
 Primitive CutOff       TCut            ....  1.000e-12 Eh

Convergence Tolerance:
 Convergence Check Mode ConvCheckMode   .... Total+1el-Energy
 Convergence forced     ConvForced      .... 0
 Energy Change          TolE            ....  1.000e-07 Eh
 1-El. energy change                    ....  1.000e-04 Eh
 DIIS Error             TolErr          ....  1.000e-07

---------------------
INITIAL GUESS: MOREAD
---------------------
Guess MOs are being read from file: inpJ.ges
Input Geometry matches current geometry (good)
Input basis set matches current basis set (good)
Occupation numbers will be reassigned to an Aufbau configuration
MOs were renormalized
MOs were reorthogonalized (Cholesky)
                      ------------------
                      INITIAL GUESS DONE (   0.1 sec)
                      ------------------
             **** ENERGY FILE WAS UPDATED (inpJ.en.tmp) ****
Finished Guess after   0.2 sec
Maximum memory used throughout the entire GUESS-calculation: 36.8 MB


           ************************************************************
           *        Program running with 4 parallel MPI-processes     *
           *              working on a common directory               *
           ************************************************************

-------------------------------------------------------------------------------------------
                                      ORCA LEAN-SCF
                              memory conserving SCF solver
-------------------------------------------------------------------------------------------

--------------------
CPCM SOLVATION MODEL
--------------------
CPCM parameters:
  Epsilon                                         ...       4.8030
  Refrac                                          ...       1.4459
  Rsolv                                           ...       1.3000
  Surface type                                    ... GAUSSIAN VDW
  Discretization scheme                           ... Constant charge density
    Threshold for H atoms                         ...       5.0000 (charges/Ang^2)
    Threshold for non-H atoms                     ...       5.0000 (charges/Ang^2)
  Epsilon function type                           ...         CPCM
Solvent:                                          ... CHLOROFORM
Radii:
  Scheme                                          ... Element-dependent radii
  Radius for C  used is    3.8550 Bohr (=   2.0400 Ang.)
  Radius for H  used is    2.4944 Bohr (=   1.3200 Ang.)
  Radius for O  used is    3.4469 Bohr (=   1.8240 Ang.)
Calculating surface                               ...        done! (  0.0s)
Cavity surface points                             ...         5394
Cavity Volume                                     ...    3618.2579
Cavity Surface-area                               ...    1808.3837
Calculating surface distance matrix               ...        done! (  0.2s)
Performing Cholesky decomposition & store         ...        done! (  0.9s)
Overall time for CPCM initialization              ...                 1.1s

----------------------------------------D-I-I-S--------------------------------------------
Iteration    Energy (Eh)           Delta-E    RMSDP     MaxDP     DIISErr   Damp  Time(sec)
-------------------------------------------------------------------------------------------
               ***  Starting incremental Fock matrix formation  ***
    1    -1165.5092442093173304     0.00e+00  2.91e-08  3.68e-06  4.22e-06  0.700   6.2

  HOMO= 109 E= -5.927 eV LUMO=  5.974 eV gap=  11.900 eV
    2    -1165.5092441902843348     1.90e-08  2.02e-08  2.11e-06  1.93e-06  0.700   2.0
                 **** Energy Check signals convergence ****

  HOMO= 109 E= -5.927 eV LUMO=  5.974 eV gap=  11.900 eV

               *****************************************************
               *                     SUCCESS                       *
               *           SCF CONVERGED AFTER   2 CYCLES          *
               *****************************************************

Recomputing exchange energy using gridx3       ... done (    8.445 sec)
Old exchange energy                            :    -42.067747337 Eh
New exchange energy                            :    -42.067821257 Eh
Exchange energy change after final integration :     -0.000073920 Eh
Total energy after final integration           :  -1165.509318110 Eh
             **** ENERGY FILE WAS UPDATED (inpJ.en.tmp) ****

----------------
TOTAL SCF ENERGY
----------------

Total Energy       :      -1165.50931811024475 Eh          -31715.12091 eV

Components:
Nuclear Repulsion  :       2775.12027211621034 Eh           75514.86171 eV
Electronic Energy  :      -3940.61418544315666 Eh         -107229.56343 eV
One Electron Energy:      -7092.22118013623822 Eh         -192989.14969 eV
Two Electron Energy:       3151.60699469308156 Eh           85759.58626 eV
CPCM Dielectric    :         -0.01533086333815 Eh              -0.41717 eV

Virial components:
Potential Energy   :      -2322.41378696011816 Eh          -63196.09197 eV
Kinetic Energy     :       1156.90446884987341 Eh           31480.97106 eV
Virial Ratio       :          2.00743782178396

DFT components:
N(Alpha)           :      110.000158500298 electrons
N(Beta)            :      110.000158500298 electrons
N(Total)           :      220.000317000597 electrons
E(X)               :     -125.746331940619 Eh       
E(C)               :       -7.326670071978 Eh       
E(XC)              :     -133.073002012597 Eh       

CPCM Solvation Model Properties:
Surface-charge          :         -0.03304203253726
Corrected charge        :          0.00000000000000
Outlying charge corr.   :          0.00003820035313 Eh               0.00104 eV
Free-energy (cav+disp)  :  This term is not implemented in the current solvation scheme

---------------
SCF CONVERGENCE
---------------

  Last Energy change         ...   -1.9033e-08  Tolerance :   1.0000e-07
  Last MAX-Density change    ...    2.1084e-06  Tolerance :   1.0000e-05
  Last RMS-Density change    ...    2.0232e-08  Tolerance :   1.0000e-06
  Last DIIS Error            ...    1.9264e-06  Tolerance :   1.0000e-07


----------------
ORBITAL ENERGIES
----------------

  NO   OCC          E(Eh)            E(eV) 
   0   2.0000     -19.215168      -522.8713 
   1   2.0000     -10.301470      -280.3172 
   2   2.0000     -10.269676      -279.4521 
   3   2.0000     -10.267017      -279.3797 
   4   2.0000     -10.262190      -279.2484 
   5   2.0000     -10.256836      -279.1027 
   6   2.0000     -10.253632      -279.0155 
   7   2.0000     -10.252179      -278.9760 
   8   2.0000     -10.249347      -278.8989 
   9   2.0000     -10.248687      -278.8810 
  10   2.0000     -10.248139      -278.8660 
  11   2.0000     -10.246964      -278.8341 
  12   2.0000     -10.246225      -278.8140 
  13   2.0000     -10.245904      -278.8052 
  14   2.0000     -10.243980      -278.7529 
  15   2.0000     -10.243822      -278.7486 
  16   2.0000     -10.243492      -278.7396 
  17   2.0000     -10.242130      -278.7025 
  18   2.0000     -10.241279      -278.6794 
  19   2.0000     -10.241059      -278.6734 
  20   2.0000     -10.239310      -278.6258 
  21   2.0000     -10.235516      -278.5226 
  22   2.0000     -10.234959      -278.5074 
  23   2.0000     -10.233777      -278.4752 
  24   2.0000     -10.226144      -278.2675 
  25   2.0000     -10.224388      -278.2197 
  26   2.0000     -10.223624      -278.1990 
  27   2.0000     -10.222209      -278.1604 
  28   2.0000     -10.220912      -278.1252 
  29   2.0000      -1.045860       -28.4593 
  30   2.0000      -0.901421       -24.5289 
  31   2.0000      -0.883849       -24.0508 
  32   2.0000      -0.859766       -23.3954 
  33   2.0000      -0.845832       -23.0163 
  34   2.0000      -0.822220       -22.3738 
  35   2.0000      -0.814366       -22.1600 
  36   2.0000      -0.795174       -21.6378 
  37   2.0000      -0.794915       -21.6307 
  38   2.0000      -0.775264       -21.0960 
  39   2.0000      -0.758272       -20.6336 
  40   2.0000      -0.741676       -20.1820 
  41   2.0000      -0.733916       -19.9709 
  42   2.0000      -0.714517       -19.4430 
  43   2.0000      -0.701729       -19.0950 
  44   2.0000      -0.699511       -19.0346 
  45   2.0000      -0.694256       -18.8917 
  46   2.0000      -0.669395       -18.2152 
  47   2.0000      -0.658752       -17.9255 
  48   2.0000      -0.634390       -17.2626 
  49   2.0000      -0.622265       -16.9327 
  50   2.0000      -0.619628       -16.8609 
  51   2.0000      -0.610211       -16.6047 
  52   2.0000      -0.597889       -16.2694 
  53   2.0000      -0.579970       -15.7818 
  54   2.0000      -0.558668       -15.2021 
  55   2.0000      -0.546302       -14.8656 
  56   2.0000      -0.541282       -14.7290 
  57   2.0000      -0.530019       -14.4226 
  58   2.0000      -0.515171       -14.0185 
  59   2.0000      -0.508895       -13.8477 
  60   2.0000      -0.496662       -13.5149 
  61   2.0000      -0.487883       -13.2760 
  62   2.0000      -0.484039       -13.1714 
  63   2.0000      -0.480312       -13.0700 
  64   2.0000      -0.475997       -12.9525 
  65   2.0000      -0.467799       -12.7295 
  66   2.0000      -0.461361       -12.5543 
  67   2.0000      -0.459368       -12.5000 
  68   2.0000      -0.458678       -12.4813 
  69   2.0000      -0.456816       -12.4306 
  70   2.0000      -0.448704       -12.2099 
  71   2.0000      -0.442049       -12.0288 
  72   2.0000      -0.433842       -11.8055 
  73   2.0000      -0.431476       -11.7411 
  74   2.0000      -0.430678       -11.7193 
  75   2.0000      -0.425774       -11.5859 
  76   2.0000      -0.415723       -11.3124 
  77   2.0000      -0.413943       -11.2639 
  78   2.0000      -0.408996       -11.1293 
  79   2.0000      -0.402923       -10.9641 
  80   2.0000      -0.400526       -10.8989 
  81   2.0000      -0.398604       -10.8466 
  82   2.0000      -0.394625       -10.7383 
  83   2.0000      -0.389709       -10.6045 
  84   2.0000      -0.385626       -10.4934 
  85   2.0000      -0.379457       -10.3255 
  86   2.0000      -0.379155       -10.3173 
  87   2.0000      -0.371465       -10.1081 
  88   2.0000      -0.367646       -10.0041 
  89   2.0000      -0.366795        -9.9810 
  90   2.0000      -0.362492        -9.8639 
  91   2.0000      -0.359097        -9.7715 
  92   2.0000      -0.353210        -9.6113 
  93   2.0000      -0.344365        -9.3707 
  94   2.0000      -0.341189        -9.2842 
  95   2.0000      -0.340019        -9.2524 
  96   2.0000      -0.337208        -9.1759 
  97   2.0000      -0.334022        -9.0892 
  98   2.0000      -0.330010        -8.9800 
  99   2.0000      -0.327306        -8.9064 
 100   2.0000      -0.326903        -8.8955 
 101   2.0000      -0.322922        -8.7872 
 102   2.0000      -0.319968        -8.7068 
 103   2.0000      -0.316275        -8.6063 
 104   2.0000      -0.311916        -8.4877 
 105   2.0000      -0.300555        -8.1785 
 106   2.0000      -0.280239        -7.6257 
 107   2.0000      -0.274965        -7.4822 
 108   2.0000      -0.256050        -6.9675 
 109   2.0000      -0.217800        -5.9266 
 110   0.0000      -0.030467        -0.8291 
 111   0.0000       0.021017         0.5719 
 112   0.0000       0.027852         0.7579 
 113   0.0000       0.080110         2.1799 
 114   0.0000       0.090957         2.4751 
 115   0.0000       0.096364         2.6222 
 116   0.0000       0.101683         2.7669 
 117   0.0000       0.105713         2.8766 
 118   0.0000       0.108250         2.9456 
 119   0.0000       0.115404         3.1403 
 120   0.0000       0.118459         3.2234 
*Only the first 10 virtual orbitals were printed.

                    ********************************
                    * MULLIKEN POPULATION ANALYSIS *
                    ********************************

-----------------------
MULLIKEN ATOMIC CHARGES
-----------------------
   0 C :    0.108352
   1 C :   -0.499820
   2 C :   -0.054883
   3 H :    0.207329
   4 H :    0.222183
   5 C :    0.135668
   6 C :   -0.475859
   7 C :   -0.451773
   8 H :    0.214216
   9 H :    0.224103
  10 H :    0.229119
  11 H :    0.204723
  12 O :   -0.487432
  13 H :    0.233901
  14 C :   -0.283337
  15 C :   -0.516655
  16 H :    0.201309
  17 H :    0.196749
  18 C :   -0.260220
  19 H :    0.217867
  20 C :    0.150901
  21 H :    0.218853
  22 C :   -0.480052
  23 C :   -0.427308
  24 H :    0.211759
  25 H :    0.206743
  26 C :   -0.396827
  27 H :    0.208077
  28 H :    0.216989
  29 C :    0.001053
  30 H :    0.222197
  31 H :    0.194197
  32 C :   -0.228580
  33 H :    0.227470
  34 C :   -0.430802
  35 H :    0.343235
  36 C :   -0.427521
  37 H :    0.208034
  38 H :    0.198870
  39 C :   -0.186226
  40 H :    0.211729
  41 H :    0.205455
  42 H :    0.214408
  43 C :   -0.240898
  44 C :   -0.627116
  45 H :    0.208893
  46 H :    0.201046
  47 H :    0.205662
  48 H :    0.218490
  49 C :   -0.638066
  50 C :   -0.182837
  51 C :   -0.182305
  52 H :    0.215941
  53 H :    0.216686
  54 C :   -0.238990
  55 C :   -0.617835
  56 C :   -0.196629
  57 H :    0.224064
  58 H :    0.217685
  59 C :   -0.618949
  60 C :   -0.608317
  61 H :    0.203966
  62 H :    0.198457
  63 H :    0.201645
  64 H :    0.202598
  65 H :    0.206330
  66 H :    0.196191
  67 H :    0.200254
  68 H :    0.197413
  69 H :    0.201238
  70 H :    0.201030
  71 H :    0.214613
  72 H :    0.191548
Sum of atomic charges:    0.0000000

--------------------------------
MULLIKEN REDUCED ORBITAL CHARGES
--------------------------------
  0 C s       :     3.355867  s :     3.355867
      pz      :     1.010429  p :     2.535780
      px      :     0.791184
      py      :     0.734167

  1 C s       :     3.383658  s :     3.383658
      pz      :     1.042700  p :     3.116162
      px      :     0.934862
      py      :     1.138600

  2 C s       :     3.306273  s :     3.306273
      pz      :     1.081923  p :     2.748610
      px      :     0.778644
      py      :     0.888042

  3 H s       :     0.792671  s :     0.792671

  4 H s       :     0.777817  s :     0.777817

  5 C s       :     3.345407  s :     3.345407
      pz      :     0.830850  p :     2.518925
      px      :     0.930527
      py      :     0.757548

  6 C s       :     3.368356  s :     3.368356
      pz      :     1.053662  p :     3.107503
      px      :     0.935008
      py      :     1.118833

  7 C s       :     3.340457  s :     3.340457
      pz      :     1.187530  p :     3.111316
      px      :     0.984246
      py      :     0.939541

  8 H s       :     0.785784  s :     0.785784

  9 H s       :     0.775897  s :     0.775897

 10 H s       :     0.770881  s :     0.770881

 11 H s       :     0.795277  s :     0.795277

 12 O s       :     3.685470  s :     3.685470
      pz      :     1.624679  p :     4.801962
      px      :     1.298071
      py      :     1.879212

 13 H s       :     0.766099  s :     0.766099

 14 C s       :     3.392361  s :     3.392361
      pz      :     1.012464  p :     2.890977
      px      :     0.805030
      py      :     1.073482

 15 C s       :     3.387003  s :     3.387003
      pz      :     0.991562  p :     3.129652
      px      :     1.009797
      py      :     1.128292

 16 H s       :     0.798691  s :     0.798691

 17 H s       :     0.803251  s :     0.803251

 18 C s       :     3.396797  s :     3.396797
      pz      :     1.035756  p :     2.863423
      px      :     0.753349
      py      :     1.074318

 19 H s       :     0.782133  s :     0.782133

 20 C s       :     3.350402  s :     3.350402
      pz      :     0.960883  p :     2.498696
      px      :     0.749595
      py      :     0.788218

 21 H s       :     0.781147  s :     0.781147

 22 C s       :     3.372477  s :     3.372477
      pz      :     1.086917  p :     3.107574
      px      :     1.132980
      py      :     0.887678

 23 C s       :     3.327091  s :     3.327091
      pz      :     1.077708  p :     3.100217
      px      :     0.904187
      py      :     1.118322

 24 H s       :     0.788241  s :     0.788241

 25 H s       :     0.793257  s :     0.793257

 26 C s       :     3.349847  s :     3.349847
      pz      :     1.181198  p :     3.046980
      px      :     0.953658
      py      :     0.912124

 27 H s       :     0.791923  s :     0.791923

 28 H s       :     0.783011  s :     0.783011

 29 C s       :     3.318193  s :     3.318193
      pz      :     0.867127  p :     2.680754
      px      :     0.906413
      py      :     0.907214

 30 H s       :     0.777803  s :     0.777803

 31 H s       :     0.805803  s :     0.805803

 32 C s       :     3.362440  s :     3.362440
      pz      :     1.059977  p :     2.866140
      px      :     0.875371
      py      :     0.930791

 33 H s       :     0.772530  s :     0.772530

 34 C s       :     3.344537  s :     3.344537
      pz      :     1.186067  p :     3.086265
      px      :     0.932202
      py      :     0.967996

 35 H s       :     0.656765  s :     0.656765

 36 C s       :     3.336123  s :     3.336123
      pz      :     1.156885  p :     3.091398
      px      :     0.958476
      py      :     0.976037

 37 H s       :     0.791966  s :     0.791966

 38 H s       :     0.801130  s :     0.801130

 39 C s       :     3.338713  s :     3.338713
      pz      :     1.046393  p :     2.847513
      px      :     0.867285
      py      :     0.933835

 40 H s       :     0.788271  s :     0.788271

 41 H s       :     0.794545  s :     0.794545

 42 H s       :     0.785592  s :     0.785592

 43 C s       :     3.349664  s :     3.349664
      pz      :     1.038648  p :     2.891234
      px      :     0.880171
      py      :     0.972415

 44 C s       :     3.365987  s :     3.365987
      pz      :     0.968318  p :     3.261129
      px      :     1.153581
      py      :     1.139230

 45 H s       :     0.791107  s :     0.791107

 46 H s       :     0.798954  s :     0.798954

 47 H s       :     0.794338  s :     0.794338

 48 H s       :     0.781510  s :     0.781510

 49 C s       :     3.351766  s :     3.351766
      pz      :     1.142752  p :     3.286301
      px      :     1.167087
      py      :     0.976461

 50 C s       :     3.343118  s :     3.343118
      pz      :     0.964637  p :     2.839719
      px      :     0.796409
      py      :     1.078673

 51 C s       :     3.345792  s :     3.345792
      pz      :     0.965586  p :     2.836513
      px      :     0.806304
      py      :     1.064624

 52 H s       :     0.784059  s :     0.784059

 53 H s       :     0.783314  s :     0.783314

 54 C s       :     3.336391  s :     3.336391
      pz      :     0.884291  p :     2.902599
      px      :     0.872515
      py      :     1.145794

 55 C s       :     3.343459  s :     3.343459
      pz      :     1.120869  p :     3.274376
      px      :     0.999476
      py      :     1.154031

 56 C s       :     3.311249  s :     3.311249
      pz      :     0.906326  p :     2.885380
      px      :     1.045381
      py      :     0.933674

 57 H s       :     0.775936  s :     0.775936

 58 H s       :     0.782315  s :     0.782315

 59 C s       :     3.344486  s :     3.344486
      pz      :     1.155347  p :     3.274463
      px      :     1.160768
      py      :     0.958349

 60 C s       :     3.340701  s :     3.340701
      pz      :     1.107719  p :     3.267616
      px      :     1.025004
      py      :     1.134893

 61 H s       :     0.796034  s :     0.796034

 62 H s       :     0.801543  s :     0.801543

 63 H s       :     0.798355  s :     0.798355

 64 H s       :     0.797402  s :     0.797402

 65 H s       :     0.793670  s :     0.793670

 66 H s       :     0.803809  s :     0.803809

 67 H s       :     0.799746  s :     0.799746

 68 H s       :     0.802587  s :     0.802587

 69 H s       :     0.798762  s :     0.798762

 70 H s       :     0.798970  s :     0.798970

 71 H s       :     0.785387  s :     0.785387

 72 H s       :     0.808452  s :     0.808452


------------------------
MULLIKEN OVERLAP CHARGES
------------------------
B(  0-C ,  1-C ) :   0.4957 B(  0-C ,  2-C ) :  -0.1304 B(  0-C ,  3-H ) :  -0.0877 
B(  0-C ,  4-H ) :  -0.0673 B(  0-C ,  5-C ) :   0.4215 B(  0-C ,  6-C ) :  -0.1562 
B(  0-C , 14-C ) :   0.9462 B(  0-C , 15-C ) :  -0.2028 B(  0-C , 18-C ) :  -0.1835 
B(  0-C , 19-H ) :  -0.0751 B(  1-C ,  2-C ) :   0.5270 B(  1-C ,  3-H ) :   0.7958 
B(  1-C ,  4-H ) :   0.8137 B(  1-C ,  5-C ) :  -0.1482 B(  1-C ,  7-C ) :  -0.1690 
B(  1-C , 12-O ) :  -0.0831 B(  1-C , 13-H ) :  -0.0843 B(  1-C , 14-C ) :  -0.1078 
B(  2-C ,  3-H ) :  -0.0819 B(  2-C ,  4-H ) :  -0.0581 B(  2-C ,  6-C ) :  -0.1289 
B(  2-C ,  7-C ) :   0.5343 B(  2-C , 10-H ) :  -0.0697 B(  2-C , 11-H ) :  -0.0825 
B(  2-C , 12-O ) :   0.6905 B(  2-C , 13-H ) :   0.7985 B(  2-C , 35-H ) :  -0.1131 
B(  5-C ,  6-C ) :   0.5388 B(  5-C ,  7-C ) :  -0.1715 B(  5-C ,  8-H ) :  -0.0881 
B(  5-C ,  9-H ) :  -0.0737 B(  5-C , 14-C ) :  -0.1964 B(  5-C , 15-C ) :   1.0579 
B(  5-C , 16-H ) :  -0.0995 B(  5-C , 17-H ) :  -0.0943 B(  6-C ,  7-C ) :   0.5412 
B(  6-C ,  8-H ) :   0.8037 B(  6-C ,  9-H ) :   0.8190 B(  6-C , 11-H ) :  -0.0739 
B(  6-C , 15-C ) :  -0.1290 B(  7-C ,  8-H ) :  -0.0769 B(  7-C , 10-H ) :   0.8059 
B(  7-C , 11-H ) :   0.7945 B(  7-C , 12-O ) :  -0.0901 B(  7-C , 13-H ) :  -0.0842 
B( 12-O , 35-H ) :   0.6599 B( 14-C , 18-C ) :   0.6129 B( 14-C , 19-H ) :   0.8251 
B( 14-C , 20-C ) :  -0.1951 B( 14-C , 21-H ) :  -0.0734 B( 15-C , 16-H ) :   0.8143 
B( 15-C , 17-H ) :   0.8069 B( 18-C , 19-H ) :  -0.0610 B( 18-C , 20-C ) :   0.9221 
B( 18-C , 21-H ) :   0.8317 B( 18-C , 22-C ) :  -0.1496 B( 18-C , 32-C ) :  -0.1485 
B( 20-C , 21-H ) :  -0.0845 B( 20-C , 22-C ) :   0.5326 B( 20-C , 23-C ) :  -0.1712 
B( 20-C , 24-H ) :  -0.0667 B( 20-C , 25-H ) :  -0.0929 B( 20-C , 29-C ) :  -0.1238 
B( 20-C , 32-C ) :   0.5182 B( 20-C , 33-H ) :  -0.0916 B( 20-C , 34-C ) :  -0.0986 
[...]
        0.0000         2.8647        0.0000
        0.0000         0.0000        2.8647

 Diagonalized JT*J matrix:
 
 J[55,60](FC)             2.865            2.865            2.865  iso=      2.865
                ---------------  ---------------  ---------------  ---------------
 J[55,60](Total)          2.865            2.865            2.865  iso=      2.865



-----------------------------------------------------------
 NUCLEUS A = C   56 NUCLEUS B = C   59 
 ( 13C  gnA =  1.405  13C  gnB =  1.405) r(AB) =     1.5312
-----------------------------------------------------------

Fermi-contact contribution to J (Hz):
       26.2935         0.0000        0.0000
        0.0000        26.2935        0.0000
        0.0000         0.0000       26.2935

Total spin-spin coupling tensor J (Hz):
       26.2935         0.0000        0.0000
        0.0000        26.2935        0.0000
        0.0000         0.0000       26.2935

 Diagonalized JT*J matrix:
 
 J[56,59](FC)            26.294           26.294           26.294  iso=     26.294
                ---------------  ---------------  ---------------  ---------------
 J[56,59](Total)         26.294           26.294           26.294  iso=     26.294



-----------------------------------------------------------
 NUCLEUS A = C   56 NUCLEUS B = C   60 
 ( 13C  gnA =  1.405  13C  gnB =  1.405) r(AB) =     1.5296
-----------------------------------------------------------

Fermi-contact contribution to J (Hz):
       27.5683         0.0000        0.0000
        0.0000        27.5683        0.0000
        0.0000         0.0000       27.5683

Total spin-spin coupling tensor J (Hz):
       27.5683         0.0000        0.0000
        0.0000        27.5683        0.0000
        0.0000         0.0000       27.5683

 Diagonalized JT*J matrix:
 
 J[56,60](FC)            27.568           27.568           27.568  iso=     27.568
                ---------------  ---------------  ---------------  ---------------
 J[56,60](Total)         27.568           27.568           27.568  iso=     27.568



-----------------------------------------------------------
 NUCLEUS A = C   59 NUCLEUS B = C   60 
 ( 13C  gnA =  1.405  13C  gnB =  1.405) r(AB) =     2.5112
-----------------------------------------------------------

Fermi-contact contribution to J (Hz):
       -0.9311         0.0000        0.0000
        0.0000        -0.9311        0.0000
        0.0000         0.0000       -0.9311

Total spin-spin coupling tensor J (Hz):
       -0.9311         0.0000        0.0000
        0.0000        -0.9311        0.0000
        0.0000         0.0000       -0.9311

 Diagonalized JT*J matrix:
 
 J[59,60](FC)            -0.931           -0.931           -0.931  iso=     -0.931
                ---------------  ---------------  ---------------  ---------------
 J[59,60](Total)         -0.931           -0.931           -0.931  iso=     -0.931



-----------------------------------------------------------------------------
                SUMMARY OF ISOTROPIC COUPLING CONSTANTS J (Hz)                
-----------------------------------------------------------------------------
                  0 C        1 C        2 C        5 C        6 C        7 C  
      0 C        0.000     32.427     -2.374     42.207     -0.169      0.894
      1 C       32.427      0.000     25.336     -1.181      0.379     -0.380
      2 C       -2.374     25.336      0.000      2.013     -1.351     25.803
      5 C       42.207     -1.181      2.013      0.000     30.967     -2.902
      6 C       -0.169      0.379     -1.351     30.967      0.000     23.064
      7 C        0.894     -0.380     25.803     -2.902     23.064      0.000
     14 C       70.186     -0.374      3.574     -3.192      2.745     -0.707
     15 C       -3.289      2.729     -0.834     64.278     -0.890      2.830
     18 C       -2.648      4.234     -1.063      3.288     -1.014      0.209
     20 C        6.964     -1.156      1.249     -1.513      0.784     -0.149
     22 C       -0.938      0.333     -0.378      0.447     -0.237      0.046
     23 C        0.792     -0.269      0.288     -0.332      0.188      0.000
     26 C       -0.076      0.030      0.000      0.041      0.000      0.000
     29 C        1.121     -0.359      0.000     -0.486      0.257      0.000
     32 C       -1.154      0.557     -0.412      0.516     -0.278      0.058
     34 C        0.022     -0.015      0.016     -0.018      0.009     -0.002
     36 C       -0.013      0.000      0.000      0.015     -0.009      0.000
     39 C       -0.080      0.000      0.000      0.034      0.000      0.000
     43 C        0.000      0.000      0.000      0.000      0.000      0.000
     44 C        0.006     -0.002      0.003     -0.005      0.003     -0.001
     49 C        0.000      0.000      0.000      0.000      0.000      0.000
     50 C        0.000      0.000      0.000      0.000      0.000      0.000
     51 C        0.000      0.000      0.000      0.000      0.000      0.000
     54 C        0.000      0.000      0.000      0.000      0.000      0.000
     55 C        0.000      0.000      0.000      0.000      0.000      0.000
     56 C        0.000      0.000      0.000      0.000      0.000      0.000
     59 C        0.000      0.000      0.000      0.000      0.000      0.000
     60 C        0.000      0.000      0.000      0.000      0.000      0.000
                 14 C       15 C       18 C       20 C       22 C       23 C  
      0 C       70.186     -3.289     -2.648      6.964     -0.938      0.792
      1 C       -0.374      2.729      4.234     -1.156      0.333     -0.269
      2 C        3.574     -0.834     -1.063      1.249     -0.378      0.288
      5 C       -3.192     64.278      3.288     -1.513      0.447     -0.332
      6 C        2.745     -0.890     -1.014      0.784     -0.237      0.188
      7 C       -0.707      2.830      0.209     -0.149      0.046      0.000
     14 C        0.000      3.071     54.500     -2.777      3.893     -0.887
     15 C        3.071      0.000     -1.135      1.075     -0.276      0.236
     18 C       54.500     -1.135      0.000     70.011     -2.158      2.471
     20 C       -2.777      1.075     70.011      0.000     32.264     -2.856
     22 C        3.893     -0.276     -2.158     32.264      0.000     24.483
     23 C       -0.887      0.236      2.471     -2.856     24.483      0.000
     26 C        0.115     -0.020     -0.364      1.030     -1.921     25.453
     29 C       -1.150      0.341      2.392     -2.348      1.089     -2.188
     32 C        4.419     -0.339     -1.331     37.095     -0.206      1.534
     34 C        0.062      0.005      2.462     -1.313      1.619     -0.253
     36 C        0.011     -0.014     -0.155      3.479      0.072      0.171
     39 C        0.270     -0.024     -0.053      2.958     -0.338      2.538
     43 C        0.014      0.000      0.298      0.226     -0.005     -0.108
     44 C        0.005      0.002     -0.079      0.696     -0.133      0.624
     49 C        0.000      0.000     -0.010     -0.031      0.142      0.054
     50 C        0.000      0.000      0.004      0.212     -0.008      0.114
     51 C        0.000      0.000      0.000      0.071     -0.004      0.002
     54 C        0.000      0.000      0.000      0.000      0.000      0.000
     55 C        0.000      0.000      0.000      0.000      0.000      0.000
     56 C        0.000      0.000      0.000      0.000      0.000      0.000
     59 C        0.000      0.000      0.000      0.000      0.000      0.000
     60 C        0.000      0.000      0.000     -0.002      0.000      0.000
                 26 C       29 C       32 C       34 C       36 C       39 C  
      0 C       -0.076      1.121     -1.154      0.022     -0.013     -0.080
      1 C        0.030     -0.359      0.557     -0.015      0.000      0.000
      2 C        0.000      0.000     -0.412      0.016      0.000      0.000
      5 C        0.041     -0.486      0.516     -0.018      0.015      0.034
      6 C        0.000      0.257     -0.278      0.009     -0.009      0.000
      7 C        0.000      0.000      0.058     -0.002      0.000      0.000
     14 C        0.115     -1.150      4.419      0.062      0.011      0.270
     15 C       -0.020      0.341     -0.339      0.005     -0.014     -0.024
     18 C       -0.364      2.392     -1.331      2.462     -0.155     -0.053
     20 C        1.030     -2.348     37.095     -1.313      3.479      2.958
     22 C       -1.921      1.089     -0.206      1.619      0.072     -0.338
     23 C       25.453     -2.188      1.534     -0.253      0.171      2.538
     26 C        0.000     27.844     -0.930      2.310      3.027     -0.556
     29 C       27.844      0.000     23.339      0.865      0.716     27.971
     32 C       -0.930     23.339      0.000     28.001      1.236      3.442
     34 C        2.310      0.865     28.001      0.000     26.081      0.033
     36 C        3.027      0.716      1.236     26.081      0.000     26.423
     39 C       -0.556     27.971      3.442      0.033     26.423      0.000
     43 C       -0.022     -0.656      2.845      1.556     -0.004     27.698
     44 C       -0.577     27.214     -0.997      0.802      0.302     -1.251
     49 C        0.431      0.113     -0.011      0.062      3.271     -1.024
     50 C       -0.074      2.993      0.005      0.097      1.379     -2.853
     51 C       -0.018      0.183      0.156     -0.037      0.075      2.924
     54 C       -0.002      0.097     -0.034      0.017      0.005     -0.827
     55 C       -0.002      0.021      0.000     -0.004      0.002      0.742
     56 C       -0.008      0.116      0.060     -0.009      0.033      1.207
     59 C        0.000     -0.004      0.000     -0.000     -0.001     -0.005
     60 C        0.001     -0.007     -0.002      0.003      0.015     -0.062
                 43 C       44 C       49 C       50 C       51 C       54 C  
      0 C        0.000      0.006      0.000      0.000      0.000      0.000
      1 C        0.000     -0.002      0.000      0.000      0.000      0.000
      2 C        0.000      0.003      0.000      0.000      0.000      0.000
      5 C        0.000     -0.005      0.000      0.000      0.000      0.000
      6 C        0.000      0.003      0.000      0.000      0.000      0.000
      7 C        0.000     -0.001      0.000      0.000      0.000      0.000
     14 C        0.014      0.005      0.000      0.000      0.000      0.000
     15 C        0.000      0.002      0.000      0.000      0.000      0.000
     18 C        0.298     -0.079     -0.010      0.004      0.000      0.000
     20 C        0.226      0.696     -0.031      0.212      0.071      0.000
     22 C       -0.005     -0.133      0.142     -0.008     -0.004      0.000
     23 C       -0.108      0.624      0.054      0.114      0.002      0.000
     26 C       -0.022     -0.577      0.431     -0.074     -0.018     -0.002
     29 C       -0.656     27.214      0.113      2.993      0.183      0.097
     32 C        2.845     -0.997     -0.011      0.005      0.156     -0.034
     34 C        1.556      0.802      0.062      0.097     -0.037      0.017
     36 C       -0.004      0.302      3.271      1.379      0.075      0.005
     39 C       27.698     -1.251     -1.024     -2.853      2.924     -0.827
     43 C        0.000      1.411     27.155     35.544     -1.462      3.705
     44 C        1.411      0.000     -0.035     -0.102      0.077      0.008
     49 C       27.155     -0.035      0.000     -1.963      3.261     -0.074
     50 C       35.544     -0.102     -1.963      0.000     68.920     -0.290
     51 C       -1.462      0.077      3.261     68.920      0.000     36.075
     54 C        3.705      0.008     -0.074     -0.290     36.075      0.000
     55 C       -0.514      0.003      0.037      3.610     -1.874     27.150
     56 C       -0.612     -0.007      0.049      2.987     -2.915     25.153
     59 C       -0.006      0.000      0.017     -0.039      1.654     -1.525
     60 C       -0.009      0.003      0.001     -0.121      0.563     -0.383
                 55 C       56 C       59 C       60 C  
      0 C        0.000      0.000      0.000      0.000
      1 C        0.000      0.000      0.000      0.000
      2 C        0.000      0.000      0.000      0.000
      5 C        0.000      0.000      0.000      0.000
      6 C        0.000      0.000      0.000      0.000
      7 C        0.000      0.000      0.000      0.000
     14 C        0.000      0.000      0.000      0.000
     15 C        0.000      0.000      0.000      0.000
     18 C        0.000      0.000      0.000      0.000
     20 C        0.000      0.000      0.000     -0.002
     22 C        0.000      0.000      0.000      0.000
     23 C        0.000      0.000      0.000      0.000
     26 C       -0.002     -0.008      0.000      0.001
     29 C        0.021      0.116     -0.004     -0.007
     32 C        0.000      0.060      0.000     -0.002
     34 C       -0.004     -0.009     -0.000      0.003
     36 C        0.002      0.033     -0.001      0.015
     39 C        0.742      1.207     -0.005     -0.062
     43 C       -0.514     -0.612     -0.006     -0.009
     44 C        0.003     -0.007      0.000      0.003
     49 C        0.037      0.049      0.017      0.001
     50 C        3.610      2.987     -0.039     -0.121
     51 C       -1.874     -2.915      1.654      0.563
     54 C       27.150     25.153     -1.525     -0.383
     55 C        0.000     -0.807      0.893      2.865
     56 C       -0.807      0.000     26.294     27.568
     59 C        0.893     26.294      0.000     -0.931
     60 C        2.865     27.568     -0.931      0.000

NMR spin-spin coupling calculation done in   0.3 sec 

Maximum memory used throughout the entire PROP-calculation: 34.2 MB

--------------------------------
SUGGESTED CITATIONS FOR THIS RUN
--------------------------------

Below you find a list of papers that are relevant to this ORCA run
We neither can nor want to force you to cite these papers, but we appreciate if you do
You receive ORCA, which is the product of decades of hard work by many enthusiastic individuals, for free
The only thing we kindly ask in return is that you cite our papers,
We deeply appreciate it, if you show your appreciation for ORCA by not just citing the generic ORCA reference.

Please note that relegating all ORCA citations to the supporting information does *not* help us.
SI sections are not indexed - citations you put there will not count into any citation statistics
But we need these citations in order to attract the funding resources that allow us to do what we are doing

Therefore, if you are a happy ORCA user, please consider citing a few of the papers listed below in the main body of your paper

In addition to the list printed below, the program has created the file inpJ.bibtex that contains the list in bibtex format
You can import this file easily into all common literature databanks and citation aid programs


List of essential papers. We consider these as the minimum necessary citations

  1. Neese,F.
     Software update: the ORCA program system, version 5.0
     WIRES Comput. Molec. Sci., 2022 12(1)e1606
     doi.org/10.1002/wcms.1606

List of papers to cite with high priority. The work reported in these papers was absolutely
necessary for this run to complete.
Our perspective: the developers of density functionals and basis sets usually get cited in chemistry papers
Good! But without the algorithms to do something with them, the functionals or basis sets would not do anything.
Hence, in our opinion, the algorithm design and method developments papers are equally worthy of getting cited

  1. Neese,F.
     An improvement of the resolution of the identity approximation for the formation of the Coulomb matrix
     J. Comp. Chem., 2003 24(14)1740-1747
     doi.org/10.1002/jcc.10318
  2. Neese,F.; Wennmohs,F.; Hansen,A.; Becker,U.
     Efficient, approximate and parallel Hartree-Fock and hybrid DFT calculations. A 'chain-of-spheres' algorithm for the Hartree-Fock exchange
     Chem. Phys., 2009 356(1-3)98-109
     doi.org/10.1016/j.chemphys.2008.10.036
  3. Stoychev,G.L.; Auer,A.A.; Izsak,R.; Neese,F.
     Self-Consistent Field Calculation of Nuclear Magnetic Resonance Chemical Shielding Constants Using Gauge-Including Atomic Orbitals and Approximate Two-Electron Integrals
     J. Chem. Theory Comput., 2018 14(2)619-637
     doi.org/10.1021/acs.jctc.7b01006
  4. Garcia-Rates,M.; Neese,F.
     Effect of the Solute Cavity on the Solvation Energy and its Derivatives within the Framework of the Gaussian Charge Scheme
     J. Comput. Chem., 2020 41 922-939
     doi.org/10.1002/jcc.26139
  5. Helmich-Paris,B.; de Souza,B.; Neese,F.; Izsák,R.
     An improved chain of spheres for exchange algorithm
     J. Chem. Phys., 2021 155 104109
     doi.org/doi: 10.1063/5.0058766.
  6. Neese,F.
     The SHARK Integral Generation and Digestion System
     J. Comp. Chem., 2022  1-16
     doi.org/10.1002/jcc.26942
  7. Grimme,S.; Bannwarth,C.; Dohm,S.; Hansen,A.; Pisarek,J.; Pracht,P.; Seibert,J.; Neese,F.
     Fully Automated Quantum-Chemistry-Based Computation of Spin-Spin-Coupled Nuclear Magnetic Resonance Spectra
     Angew. Chem., Int. Ed., 2017 56 14763-14769
     doi.org/10.1002/anie.201708266
  8. Caldeweyher,E.; Bannwarth,C.; Grimme,S.
     Extension of the D3 dispersion coefficient model
     J. Chem. Phys., 2017 147 034112-XXXX
     doi.org/10.1063/1.4993215
  9. Caldeweyher,E.; Ehlert,S.; Hansen,A.; Neugebauer,H.; Spicher,S.; Bannwarth,C.; Grimme,S.
     A generally applicable atomic-charge dependent London dispersion correction
     J. Chem. Phys., 2019 150 154122-XXXX
     doi.org/10.1063/1.5090222
 10. Caldeweyher,E.; Mewes,J.; Ehlert,S.; Grimme,S.
     Extension and evaluation of the D4 London-dispersion model for periodic systems
     Phys. Chem. Chem. Phys., 2020 22(16)8499-8512
     doi.org/10.1039/D0CP00502A

List of suggested additional citations. These are papers that are important in the 'surrounding' of 
of this run, or papers that preceded the highly important papers. If you like your results we are grateful for a citation.

  1. Izsak,R.; Neese,F.
     An overlap fitted chain of spheres exchange method
     J. Chem. Phys., 2011 135 144105
     doi.org/10.1063/1.3646921
  2. Izsak,R.; Hansen,A.; Neese,F.
     The resolution of identity and chain of spheres approximations for the LPNO-CCSD singles Fock term
     Molec. Phys., 2012 110 2413-2417
     doi.org/10.1080/00268976.2012.687466
  3. Neese,F.
     The ORCA program system
     WIRES Comput. Molec. Sci., 2012 2(1)73-78
     doi.org/10.1002/wcms.81
  4. Izsak,R.; Neese,F.; Klopper,W.
     Robust fitting techniques in the chain of spheres approximation to the Fock exchange: The role of the complementary space
     J. Chem. Phys., 2013 139 
     doi.org/10.1063/1.4819264
  5. Neese,F.
     Software update: the ORCA program system, version 4.0
     WIRES Comput. Molec. Sci., 2018 8(1)1-6
     doi.org/10.1002/wcms.1327
  6. Neese,F.; Wennmohs,F.; Becker,U.; Riplinger,C.
     The ORCA quantum chemistry program package
     J. Chem. Phys., 2020 152 Art. No. L224108
     doi.org/10.1063/5.0004608

Timings for individual modules:

Sum of individual times          ...      133.910 sec (=   2.232 min)
Startup calculation              ...        3.945 sec (=   0.066 min)   2.9 %
SCF iterations                   ...       18.958 sec (=   0.316 min)  14.2 %
Property integrals               ...        0.684 sec (=   0.011 min)   0.5 %
SCF Response                     ...      109.796 sec (=   1.830 min)  82.0 %
Property calculations            ...        0.527 sec (=   0.009 min)   0.4 %
                             ****ORCA TERMINATED NORMALLY****
TOTAL RUN TIME: 0 days 0 hours 2 minutes 14 seconds 180 msec
