
                                 *****************
                                 * O   R   C   A *
                                 *****************

                                            #,                                       
                                            ###                                      
                                            ####                                     
                                            #####                                    
                                            ######                                   
                                           ########,                                 
                                     ,,################,,,,,                         
                               ,,#################################,,                 
                          ,,##########################################,,             
                       ,#########################################, ''#####,          
                    ,#############################################,,   '####,        
                  ,##################################################,,,,####,       
                ,###########''''           ''''###############################       
              ,#####''   ,,,,##########,,,,          '''####'''          '####       
            ,##' ,,,,###########################,,,                        '##       
           ' ,,###''''                  '''############,,,                           
         ,,##''                                '''############,,,,        ,,,,,,###''
      ,#''                                            '''#######################'''  
     '                                                          ''''####''''         
             ,#######,   #######,   ,#######,      ##                                
            ,#'     '#,  ##    ##  ,#'     '#,    #''#        ,####,   ,####,        
            ##       ##  ##   ,#'  ##            #'  '#       #'       #'  '#        
            ##       ##  #######   ##           ,######,      #####,   #    #        
            '#,     ,#'  ##    ##  '#,     ,#' ,#      #,     #,   #   #,  ,#        
             '#######'   ##     ##  '#######'  #'      '#     '####' # '####'        



                #########################################################
                #                        -***-                          #
                #          Department of theory and spectroscopy        #
                #                                                       #
                #                      Frank Neese                      #
                #                                                       #
                #     Directorship, Architecture, Infrastructure        #
                #                    SHARK, DRIVERS                     #
                #        Core code/Algorithms in most modules           #
                #                                                       #
                #        Max Planck Institute fuer Kohlenforschung      #
                #                Kaiser Wilhelm Platz 1                 #
                #                 D-45470 Muelheim/Ruhr                 #
                #                      Germany                          #
                #                                                       #
                #                  All rights reserved                  #
                #                        -***-                          #
                #########################################################


                         Program Version 6.0.0  -   RELEASE  -


 With contributions from (in alphabetic order):
   Daniel Aravena         : Magnetic Suceptibility
   Michael Atanasov       : Ab Initio Ligand Field Theory (pilot matlab implementation)
   Alexander A. Auer      : GIAO ZORA, VPT2 properties, NMR spectrum
   Ute Becker             : All parallelization in ORCA, NUMFREQ, NUMCALC
   Giovanni Bistoni       : ED, misc. LED, open-shell LED, HFLD
   Martin Brehm           : Molecular dynamics
   Dmytro Bykov           : pre 5.0 version of the SCF Hessian
   Marcos Casanova-Páez   : Triplet and SCS-CIS(D). UHF-(DLPNO)-IP/EA/STEOM-CCSD. UHF-CVS-IP/STEOM-CCSD
   Vijay G. Chilkuri      : MRCI spin determinant printing, contributions to CSF-ICE
   Pauline Colinet        : FMM embedding
   Dipayan Datta          : RHF DLPNO-CCSD density
   Achintya Kumar Dutta   : EOM-CC, STEOM-CC
   Nicolas Foglia         : Exact transition moments, OPA infrastructure, MCD improvements
   Dmitry Ganyushin       : Spin-Orbit,Spin-Spin,Magnetic field MRCI
   Miquel Garcia          : C-PCM and meta-GGA Hessian, CCSD/C-PCM, Gaussian charge scheme
   Tiago L. C. Gouveia    : GS-ROHF, GS-ROCIS
   Yang Guo               : DLPNO-NEVPT2, F12-NEVPT2, CIM, IAO-localization
   Andreas Hansen         : Spin unrestricted coupled pair/coupled cluster methods
   Ingolf Harden          : AUTO-CI MPn and infrastructure 
   Benjamin Helmich-Paris : MC-RPA, TRAH-(SCF,CASSCF), AVAS, COSX integrals, SCF dyn. polar.
   Lee Huntington         : MR-EOM, pCC
   Robert Izsak           : Overlap fitted RIJCOSX, COSX-SCS-MP3, EOM
   Riya Kayal             : Wick's Theorem for AUTO-CI, AUTO-CI UHF-CCSDT
   Emily Kempfer          : AUTO-CI, RHF CISDT and CCSDT
   Christian Kollmar      : KDIIS, OOCD, Brueckner-CCSD(T), CCSD density, CASPT2, CASPT2-K, improved NEVPT2
   Axel Koslowski         : Symmetry handling
   Simone Kossmann        : Meta GGA functionals, TD-DFT gradient, OOMP2, (MP2 Hessian; deprecated post 5.0)
   Lucas Lang             : DCDCAS
   Marvin Lechner         : AUTO-CI (C++ implementation), FIC-MRCC
   Spencer Leger          : CASSCF response
   Dagmar Lenk            : GEPOL surface, SMD, ORCA-2-JSON
   Dimitrios Liakos       : Extrapolation schemes; Compound Job, initial MDCI parallelization
   Dimitrios Manganas     : Further ROCIS development; embedding schemes. LFT, Crystal Embedding
   Dimitrios Pantazis     : SARC Basis sets
   Anastasios Papadopoulos: AUTO-CI, single reference methods and gradients
   Taras Petrenko         : pre 6.0 DFT Hessian and TD-DFT gradient, (ASA, deprecated), ECA, 1-Electron XAS/XES, NRVS
   Peter Pinski           : DLPNO-MP2, DLPNO-MP2 Gradient
   Christoph Reimann      : Effective Core Potentials
   Marius Retegan         : Local ZFS, SOC
   Christoph Riplinger    : Optimizer, TS searches, QM/MM, DLPNO-CCSD(T), (RO)-DLPNO pert. Triples
   Michael Roemelt        : Original ROCIS implementation
   Masaaki Saitow         : Open-shell DLPNO-CCSD energy and density
   Barbara Sandhoefer     : DKH picture change effects
   Kantharuban Sivalingam : CASSCF convergence/infrastructure, NEVPT2 and variants, FIC-MRCI
   Bernardo de Souza      : ESD, SOC TD-DFT
   Georgi Stoychev        : AutoAux, RI-MP2 NMR, DLPNO-MP2 response, X2C
   Van Anh Tran           : RI-MP2 g-tensors
   Willem Van den Heuvel  : Paramagnetic NMR
   Zikuan Wang            : NOTCH, Electric field optimization 
   Frank Wennmohs         : Technical directorship and infrastructure
   Hang Xu                : AUTO-CI-Response properties 


 We gratefully acknowledge several colleagues who have allowed us to
 interface, adapt or use parts of their codes:
   Stefan Grimme, W. Hujo, H. Kruse, P. Pracht,  : VdW corrections, initial TS optimization,
                  C. Bannwarth, S. Ehlert,         DFT functionals, gCP, sTDA/sTD-DF
                  L. Wittmann, M. Mueller
   Ed Valeev, F. Pavosevic, A. Kumar             : LibInt (2-el integral package), F12 methods
   Garnet Chan, S. Sharma, J. Yang, R. Olivares  : DMRG
   Ulf Ekstrom                                   : XCFun DFT Library
   Mihaly Kallay                                 : mrcc  (arbitrary order and MRCC methods)
   Frank Weinhold                                : gennbo (NPA and NBO analysis)
   Simon Mueller                                 : openCOSMO-RS
   Christopher J. Cramer and Donald G. Truhlar   : smd solvation model
   Lars Goerigk                                  : TD-DFT with DH, B97 family of functionals
   V. Asgeirsson, H. Jonsson                     : NEB implementation
   FAccTs GmbH                                   : IRC, NEB, NEB-TS, DLPNO-Multilevel, CI-OPT
                                                   MM, QMMM, 2- and 3-layer-ONIOM, Crystal-QMMM,
                                                   LR-CPCM, SF, NACMEs, symmetry and pop. for TD-DFT,
                                                   nearIR, NL-DFT gradient (VV10), updates on ESD,
                                                   ML-optimized integration grids, MBIS, APM,
                                                   GOAT, DOCKER, SOLVATOR, interface openCOSMO-RS
   S Lehtola, MJT Oliveira, MAL Marques          : LibXC Library
   Liviu Ungur et al                             : ANISO software


 Your calculation uses the libint2 library for the computation of 2-el integrals
 For citations please refer to: http://libint.valeyev.net

 Your ORCA version has been built with support for libXC version: 6.2.2
 For citations please refer to: https://libxc.gitlab.io

 This ORCA versions uses:
   CBLAS   interface :  Fast vector & matrix operations
   LAPACKE interface :  Fast linear algebra routines
   SCALAPACK package :  Parallel linear algebra routines
   Shared memory     :  Shared parallel matrices
   BLAS/LAPACK       :  OpenBLAS 0.3.27  USE64BITINT DYNAMIC_ARCH NO_AFFINITY Zen SINGLE_THREADED
        Core in use  :  Zen
   Copyright (c) 2011-2014, The OpenBLAS Project


NOTE: MaxCore=8000 MB was set to SCF,MP2,MDCI,CIPSI,MRCI and CIS
      => If you want to overwrite this, your respective input block should be placed after the MaxCore statement
Your calculation utilizes the atom-pairwise dispersion correction
based on EEQ partial charges (D4)


================================================================================

----- Orbital basis set information -----
Your calculation utilizes the basis: def2-SVP
   F. Weigend and R. Ahlrichs, Phys. Chem. Chem. Phys. 7, 3297 (2005).

----- AuxJ basis set information -----
Your calculation utilizes the auxiliary basis: def2/J
   F. Weigend, Phys. Chem. Chem. Phys. 8, 1057 (2006).

================================================================================
                                        WARNINGS
                       Please study these warnings very carefully!
================================================================================

WARNING: Old DensityContainer found on disk!
         Will remove this file - 
         If you want to keep old densities, please start your calculation with a different basename. 


================================================================================
                                       INPUT FILE
================================================================================
NAME = inpS
|  1> ! wb97x-d4
|  2> ! def2-svp
|  3> ! def2/J RIJCOSX
|  4> ! DEFGRID2
|  5> ! scfconv7
|  6> ! smallprint printgap noloewdin
|  7> ! NOSOSCF
|  8> %MaxCore 8000
|  9> %output
| 10>        print[P_BondOrder_M] 1
| 11>        print[P_Mayer] 1
| 12>        print[P_basis] 2
| 13> end
| 14> %pal
| 15>     nprocs 4
| 16> end
| 17> ! CPCM(chloroform)
| 18> *xyz 0 1
| 19> C   -4.9720859800   0.3360831800   0.3632985000
| 20> C   -6.3875711800  -0.1012868400   0.0684932200
| 21> C   -6.9704811900   0.6400410500  -1.1407378700
| 22> H   -7.0309752900   0.1303752600   0.9343757100
| 23> H   -6.4312311000  -1.1829161200  -0.0999298500
| 24> C   -4.7952029700   1.8013301500   0.4488006100
| 25> C   -5.4241289400   2.5762155000  -0.6870339300
| 26> C   -6.8771631800   2.1472464500  -0.9326810200
| 27> H   -4.8450373000   2.3814831500  -1.6025797900
| 28> H   -5.3674312500   3.6516022700  -0.4880998700
| 29> H   -7.2838038500   2.6674110300  -1.8079096200
| 30> H   -7.4948630400   2.4218659300  -0.0642513500
| 31> O   -8.3150507200   0.2203675300  -1.4075744500
| 32> H   -6.4035112300   0.3603618900  -2.0397687600
| 33> C   -3.9756215400  -0.5726401000   0.4853512500
| 34> C   -4.1723306700   2.4081692000   1.4656775200
| 35> H   -3.7485191400   1.8402972400   2.2891920300
| 36> H   -4.0830119800   3.4913667900   1.5005756000
| 37> C   -2.5708999900  -0.2878787700   0.6645448400
| 38> H   -4.2662840500  -1.6184588600   0.3958372800
| 39> C   -1.5893802800  -1.1929007300   0.8674906800
| 40> H   -2.2889048000   0.7615136600   0.6176472900
| 41> C   -1.7820590600  -2.6810620100   1.0133389400
| 42> C   -0.8725614600  -3.4739685300   0.0563737500
| 43> H   -2.8239081900  -2.9809866700   0.8710210300
| 44> H   -1.5133827400  -2.9546159300   2.0464124700
| 45> C    0.5962852000  -3.0360722200   0.1361315100
| 46> H   -1.2396016200  -3.3528507200  -0.9705744700
| 47> H   -0.9495655000  -4.5429995900   0.2899260000
| 48> C    0.7535878900  -1.5229688900  -0.0724741200
| 49> H    1.1749575400  -3.6035551300  -0.5997493800
| 50> H    0.9981604400  -3.2934587900   1.1277207800
| 51> C   -0.1459544600  -0.8111363300   0.9886664400
| 52> H    0.2014451100  -1.2139881500   1.9581709500
| 53> C    0.2880266300   0.6494509200   0.9270640700
| 54> H   -8.8515398200   0.4546416400  -0.6384589400
| 55> C    1.8104793900   0.5655685900   0.6557843900
| 56> H    0.0497870900   1.1907387400   1.8487095600
| 57> H   -0.2182556900   1.1702735300   0.1067459900
| 58> C    2.1340478700  -0.9203955300   0.3119233100
| 59> H    2.3951317700   0.8986587500   1.5191335400
| 60> H    2.0877811800   1.2174048700  -0.1814976500
| 61> H    2.4503582400  -1.4319269300   1.2352495300
| 62> C    3.3094068800  -1.0442941700  -0.6879027100
| 63> C    0.3510727200  -1.1167332800  -1.4961463700
| 64> H   -0.7188394800  -1.2708080000  -1.6663874300
| 65> H    0.8995071100  -1.7080374200  -2.2375707200
| 66> H    0.5633611300  -0.0606230900  -1.6904787700
| 67> H    3.0122382500  -0.4995586400  -1.5995764900
| 68> C    3.6252908700  -2.4873121700  -1.0781803900
| 69> C    4.5045222200  -0.3132423600  -0.1199732100
| 70> C    5.6450427300  -0.8680202800   0.2940461400
| 71> H    4.3810068400   0.7650998700  -0.0296582000
| 72> H    5.7617515200  -1.9475734500   0.2130742600
| 73> C    6.8343162000  -0.1397178600   0.8712647700
| 74> C    6.5163927400   1.3000162700   1.2791086300
| 75> C    8.0504922100  -0.2107341700  -0.0958750400
| 76> H    7.1354120500  -0.6926198300   1.7784441500
| 77> H    7.7701196600   0.3510305800  -1.0011883400
| 78> C    8.3773597800  -1.6504272000  -0.5062623100
| 79> C    9.2963363200   0.4400319800   0.5142648400
| 80> H    5.6092222800   1.3398089100   1.8911012200
| 81> H    6.3589622000   1.9350758200   0.3987956300
| 82> H    7.3310219600   1.7342481600   1.8638323800
| 83> H    9.2835726700  -1.6751207200  -1.1211057300
| 84> H    7.5709275700  -2.1101119600  -1.0847981300
| 85> H    8.5575498300  -2.2725014400   0.3803011000
| 86> H    9.5440647700  -0.0338724600   1.4731655500
| 87> H    9.1661865900   1.5116178500   0.6882086600
| 88> H    10.1568490300   0.3151971100  -0.1521174300
| 89> H    4.5421830900  -2.5329895500  -1.6759772400
| 90> H    2.8190009500  -2.9177660400  -1.6754413200
| 91> H    3.7646251000  -3.1205209200  -0.1940372300
| 92> *
| 93> %eprnmr
| 94>  Nuclei = all C { shift }
| 95>  origin giao
| 96>  giao_2el giao_2el_same_as_scf
| 97>  giao_1el giao_1el_analytic
| 98> end
| 99> 
|100>                          ****END OF INPUT****
================================================================================

                       ****************************
                       * Single Point Calculation *
                       ****************************

---------------------------------
CARTESIAN COORDINATES (ANGSTROEM)
---------------------------------
  C     -4.972086    0.336083    0.363299
  C     -6.387571   -0.101287    0.068493
  C     -6.970481    0.640041   -1.140738
  H     -7.030975    0.130375    0.934376
  H     -6.431231   -1.182916   -0.099930
  C     -4.795203    1.801330    0.448801
  C     -5.424129    2.576215   -0.687034
  C     -6.877163    2.147246   -0.932681
  H     -4.845037    2.381483   -1.602580
  H     -5.367431    3.651602   -0.488100
  H     -7.283804    2.667411   -1.807910
  H     -7.494863    2.421866   -0.064251
  O     -8.315051    0.220368   -1.407574
  H     -6.403511    0.360362   -2.039769
  C     -3.975622   -0.572640    0.485351
  C     -4.172331    2.408169    1.465678
  H     -3.748519    1.840297    2.289192
  H     -4.083012    3.491367    1.500576
  C     -2.570900   -0.287879    0.664545
  H     -4.266284   -1.618459    0.395837
  C     -1.589380   -1.192901    0.867491
  H     -2.288905    0.761514    0.617647
  C     -1.782059   -2.681062    1.013339
  C     -0.872561   -3.473969    0.056374
  H     -2.823908   -2.980987    0.871021
  H     -1.513383   -2.954616    2.046412
  C      0.596285   -3.036072    0.136132
  H     -1.239602   -3.352851   -0.970574
  H     -0.949565   -4.543000    0.289926
  C      0.753588   -1.522969   -0.072474
  H      1.174958   -3.603555   -0.599749
  H      0.998160   -3.293459    1.127721
  C     -0.145954   -0.811136    0.988666
  H      0.201445   -1.213988    1.958171
  C      0.288027    0.649451    0.927064
  H     -8.851540    0.454642   -0.638459
  C      1.810479    0.565569    0.655784
  H      0.049787    1.190739    1.848710
  H     -0.218256    1.170274    0.106746
  C      2.134048   -0.920396    0.311923
  H      2.395132    0.898659    1.519134
  H      2.087781    1.217405   -0.181498
  H      2.450358   -1.431927    1.235250
  C      3.309407   -1.044294   -0.687903
  C      0.351073   -1.116733   -1.496146
  H     -0.718839   -1.270808   -1.666387
  H      0.899507   -1.708037   -2.237571
  H      0.563361   -0.060623   -1.690479
  H      3.012238   -0.499559   -1.599576
  C      3.625291   -2.487312   -1.078180
  C      4.504522   -0.313242   -0.119973
  C      5.645043   -0.868020    0.294046
  H      4.381007    0.765100   -0.029658
  H      5.761752   -1.947573    0.213074
  C      6.834316   -0.139718    0.871265
  C      6.516393    1.300016    1.279109
  C      8.050492   -0.210734   -0.095875
  H      7.135412   -0.692620    1.778444
  H      7.770120    0.351031   -1.001188
  C      8.377360   -1.650427   -0.506262
  C      9.296336    0.440032    0.514265
  H      5.609222    1.339809    1.891101
  H      6.358962    1.935076    0.398796
  H      7.331022    1.734248    1.863832
  H      9.283573   -1.675121   -1.121106
  H      7.570928   -2.110112   -1.084798
  H      8.557550   -2.272501    0.380301
  H      9.544065   -0.033872    1.473166
  H      9.166187    1.511618    0.688209
  H     10.156849    0.315197   -0.152117
  H      4.542183   -2.532990   -1.675977
  H      2.819001   -2.917766   -1.675441
  H      3.764625   -3.120521   -0.194037

----------------------------
CARTESIAN COORDINATES (A.U.)
----------------------------
  NO LB      ZA    FRAG     MASS         X           Y           Z
   0 C     6.0000    0    12.011   -9.395881    0.635105    0.686535
   1 C     6.0000    0    12.011  -12.070760   -0.191404    0.129433
   2 C     6.0000    0    12.011  -13.172300    1.209502   -2.155682
   3 H     1.0000    0     1.008  -13.286618    0.246374    1.765714
   4 H     1.0000    0     1.008  -12.153265   -2.235388   -0.188840
   5 C     6.0000    0    12.011   -9.061620    3.404021    0.848110
   6 C     6.0000    0    12.011  -10.250118    4.868342   -1.298306
   7 C     6.0000    0    12.011  -12.995955    4.057708   -1.762512
   8 H     1.0000    0     1.008   -9.155794    4.500351   -3.028437
   9 H     1.0000    0     1.008  -10.142975    6.900528   -0.922375
  10 H     1.0000    0     1.008  -13.764394    5.040676   -3.416454
  11 H     1.0000    0     1.008  -14.163239    4.576663   -0.121417
  12 O     8.0000    0    15.999  -15.713169    0.416434   -2.659930
  13 H     1.0000    0     1.008  -12.100883    0.680985   -3.854604
  14 C     6.0000    0    12.011   -7.512836   -1.082133    0.917181
  15 C     6.0000    0    12.011   -7.884562    4.550780    2.769729
  16 H     1.0000    0     1.008   -7.083675    3.477658    4.325946
  17 H     1.0000    0     1.008   -7.715774    6.597727    2.835677
  18 C     6.0000    0    12.011   -4.858297   -0.544012    1.255808
  19 H     1.0000    0     1.008   -8.062108   -3.058444    0.748024
  20 C     6.0000    0    12.011   -3.003493   -2.254256    1.639320
  21 H     1.0000    0     1.008   -4.325403    1.439052    1.167184
  22 C     6.0000    0    12.011   -3.367604   -5.066473    1.914933
  23 C     6.0000    0    12.011   -1.648902   -6.564849    0.106531
  24 H     1.0000    0     1.008   -5.336413   -5.633248    1.645991
  25 H     1.0000    0     1.008   -2.859879   -5.583415    3.867159
  26 C     6.0000    0    12.011    1.126816   -5.737345    0.257251
  27 H     1.0000    0     1.008   -2.342508   -6.335970   -1.834120
  28 H     1.0000    0     1.008   -1.794419   -8.585025    0.547881
  29 C     6.0000    0    12.011    1.424075   -2.877994   -0.136956
  30 H     1.0000    0     1.008    2.220348   -6.809732   -1.133362
  31 H     1.0000    0     1.008    1.886250   -6.223735    2.131083
  32 C     6.0000    0    12.011   -0.275814   -1.532826    1.868309
  33 H     1.0000    0     1.008    0.380676   -2.294105    3.700407
  34 C     6.0000    0    12.011    0.544291    1.227284    1.751897
  35 H     1.0000    0     1.008  -16.726986    0.859148   -1.206513
  36 C     6.0000    0    12.011    3.421310    1.068770    1.239253
  37 H     1.0000    0     1.008    0.094084    2.250170    3.493555
  38 H     1.0000    0     1.008   -0.412443    2.211496    0.201721
  39 C     6.0000    0    12.011    4.032766   -1.739295    0.589450
  40 H     1.0000    0     1.008    4.526143    1.698219    2.870746
  41 H     1.0000    0     1.008    3.945335    2.300562   -0.342981
  42 H     1.0000    0     1.008    4.630506   -2.705950    2.334283
  43 C     6.0000    0    12.011    6.253873   -1.973430   -1.299948
  44 C     6.0000    0    12.011    0.663431   -2.110320   -2.827307
  45 H     1.0000    0     1.008   -1.358410   -2.401479   -3.149016
  46 H     1.0000    0     1.008    1.699822   -3.227723   -4.228396
  47 H     1.0000    0     1.008    1.064598   -0.114561   -3.194542
  48 H     1.0000    0     1.008    5.692305   -0.944029   -3.022761
  49 C     6.0000    0    12.011    6.850807   -4.700339   -2.037466
  50 C     6.0000    0    12.011    8.512313   -0.591942   -0.226717
  51 C     6.0000    0    12.011   10.667585   -1.640321    0.555667
  52 H     1.0000    0     1.008    8.278903    1.445829   -0.056046
  53 H     1.0000    0     1.008   10.888132   -3.680380    0.402652
  54 C     6.0000    0    12.011   12.914986   -0.264028    1.646452
  55 C     6.0000    0    12.011   12.314198    2.456675    2.417165
  56 C     6.0000    0    12.011   15.213226   -0.398230   -0.181178
  57 H     1.0000    0     1.008   13.483975   -1.308862    3.360772
  58 H     1.0000    0     1.008   14.683398    0.663352   -1.891972
  59 C     6.0000    0    12.011   15.830916   -3.118855   -0.956697
  60 C     6.0000    0    12.011   17.567530    0.831540    0.971820
  61 H     1.0000    0     1.008   10.599894    2.531872    3.573663
  62 H     1.0000    0     1.008   12.016697    3.656763    0.753615
  63 H     1.0000    0     1.008   13.853624    3.277254    3.522133
  64 H     1.0000    0     1.008   17.543410   -3.165519   -2.118583
  65 H     1.0000    0     1.008   14.306980   -3.987534   -2.049971
  66 H     1.0000    0     1.008   16.171426   -4.294405    0.718665
  67 H     1.0000    0     1.008   18.035669   -0.064010    2.783879
  68 H     1.0000    0     1.008   17.321582    2.856544    1.300526
  69 H     1.0000    0     1.008   19.193663    0.595636   -0.287460
  70 H     1.0000    0     1.008    8.583482   -4.786657   -3.167138
  71 H     1.0000    0     1.008    5.327140   -5.513779   -3.166125
  72 H     1.0000    0     1.008    7.114110   -5.896930   -0.366677

--------------------------------
INTERNAL COORDINATES (ANGSTROEM)
--------------------------------
 C      0   0   0     0.000000000000     0.00000000     0.00000000
 C      1   0   0     1.510563152910     0.00000000     0.00000000
 C      2   1   0     1.533489794316   111.72289464     0.00000000
 H      2   1   3     1.103353372148   109.41939973   241.45002926
 H      2   1   3     1.095533850904   110.68401921   122.86607887
 C      1   2   3     1.478359527698   114.22855408    50.40515544
 C      6   1   2     1.511990503820   114.50243147   312.27532197
 C      3   2   1     1.524356920676   110.30932326   304.92222782
 H      7   6   1     1.100677989885   108.38185351   289.71464724
 H      7   6   1     1.095100951223   110.19808279   172.55954309
 H      8   3   2     1.096336137798   109.72165079   179.23937878
 H      8   3   2     1.100517636195   108.66732466   296.71014641
 O      3   2   1     1.433595077007   111.20888274   180.21363932
 H      3   2   1     1.099059556737   109.02150964    65.03329165
 C      1   2   3     1.354110871968   120.85368625   232.50832514
 C      6   1   2     1.338006795500   123.31013212   130.06168039
 H     16   6   1     1.086402744886   121.37411768     0.67948040
 H     16   6   1     1.087434008735   120.95730460   181.36793916
 C     15   1   2     1.444452142092   126.47865764   175.01642281
 H     15   1   2     1.089143849229   116.14187581   357.80446059
 C     19  15   1     1.350419454530   126.39564603   175.66776098
 H     19  15   1     1.087632814658   115.91285667   354.91559737
 C     21  19  15     1.507654079190   125.67332794   356.83845697
 C     23  21  19     1.540022405271   111.87737617   127.95128974
 H     23  21  19     1.093461841522   112.32872407     3.77779568
 H     23  21  19     1.101934494633   107.73240409   246.63488586
 C     24  23  21     1.534804544294   112.70619778    50.65464951
 H     24  23  21     1.097274190671   109.09838049   288.52857326
 H     24  23  21     1.096951996626   109.14760374   172.57507972
 C     27  24  23     1.535494100414   111.84718179   306.23162858
 H     27  24  23     1.094723350665   108.84768712   182.67399096
 H     27  24  23     1.100454831113   109.24387344    66.22989714
 C     21  19  15     1.497967195823   122.80084066   177.45184958
 H     33  21  19     1.105854893295   106.30711463   124.08482089
 C     33  21  19     1.524942475417   121.00135857     1.78860587
 H     13   3   2     0.966562766072   107.54874791    62.64895454
 C     35  33  21     1.548706336430   103.58945181   196.64150720
 H     35  33  21     1.095071226787   112.18024835    74.65645831
 H     35  33  21     1.095673186222   110.73387744   315.01708499
 C     30  27  24     1.554517865691   116.06269790   166.22474299
 H     37  35  33     1.094595457205   111.74216332   248.93106015
 H     37  35  33     1.096735170024   110.49295755   130.37439654
 H     40  30  27     1.101929186425   106.38956766   320.58901500
 C     40  30  27     1.548054180464   118.91466333    80.79596596
 C     30  27  24     1.534238739027   111.10677987   294.40388905
 H     45  30  27     1.094272888069   111.32121027    66.34370176
 H     45  30  27     1.095504875794   110.71730371   306.25607097
 H     45  30  27     1.094623306956   111.67386665   186.28895020
 H     44  40  30     1.102812347337   106.84573530    62.07368742
 C     44  40  30     1.527874442148   113.42449093   303.03610338
 C     44  40  30     1.511714702508   108.59609426   176.64104698
 C     51  44  40     1.334158010291   126.25082664   112.56836762
 H     51  44  40     1.089144074551   114.85306833   294.22855034
 H     52  51  44     1.088858316711   118.73922052     1.04035505
 C     52  51  44     1.509296905265   126.27255885   180.51917877
 C     55  52  51     1.529786359478   113.10029964    14.36157250
 C     55  52  51     1.555469966175   110.87104985   247.88055362
 H     55  52  51     1.104234452829   106.70452932   132.95581489
 H     57  55  52     1.101717101752   106.77825782    65.45797193
 C     57  55  52     1.532310719249   112.09884091   307.06061845
 C     57  55  52     1.532284177812   111.63785594   183.91053966
 H     56  55  52     1.095023574134   110.81612992    49.27556096
 H     56  55  52     1.096829970843   111.14734301   289.20512401
 H     56  55  52     1.092739659839   111.20558937   169.04264025
 H     60  57  55     1.095383039420   110.36430775   184.49250069
 H     60  57  55     1.093776340448   112.28749849    64.35197799
 H     60  57  55     1.097925085851   110.55397293   303.58946869
 H     61  57  55     1.097927763940   110.35923094    56.95572694
 H     61  57  55     1.093385422218   112.50727419   296.10696167
 H     61  57  55     1.095504997072   110.36789275   175.94270170
 H     50  44  40     1.095508484682   110.59777942   187.60514289
 H     50  44  40     1.091840001006   111.06361521    68.14854645
 H     50  44  40     1.096392482691   111.45365820   307.80750619

---------------------------
INTERNAL COORDINATES (A.U.)
---------------------------
 C      0   0   0     0.000000000000     0.00000000     0.00000000
 C      1   0   0     2.854550666993     0.00000000     0.00000000
 C      2   1   0     2.897875740421   111.72289464     0.00000000
 H      2   1   3     2.085035702298   109.41939973   241.45002926
 H      2   1   3     2.070258948648   110.68401921   122.86607887
 C      1   2   3     2.793694634822   114.22855408    50.40515544
 C      6   1   2     2.857247969310   114.50243147   312.27532197
 C      3   2   1     2.880617110424   110.30932326   304.92222782
 H      7   6   1     2.079979962518   108.38185351   289.71464724
 H      7   6   1     2.069440886809   110.19808279   172.55954309
 H      8   3   2     2.071775051160   109.72165079   179.23937878
 H      8   3   2     2.079676937959   108.66732466   296.71014641
 O      3   2   1     2.709102082482   111.20888274   180.21363932
 H      3   2   1     2.076921567102   109.02150964    65.03329165
 C      1   2   3     2.558898702984   120.85368625   232.50832514
 C      6   1   2     2.528466408820   123.31013212   130.06168039
 H     16   6   1     2.053003658975   121.37411768     0.67948040
 H     16   6   1     2.054952465221   120.95730460   181.36793916
 C     15   1   2     2.729618962110   126.47865764   175.01642281
 H     15   1   2     2.058183595487   116.14187581   357.80446059
 C     19  15   1     2.551922934982   126.39564603   175.66776098
 H     19  15   1     2.055328153969   115.91285667   354.91559737
 C     21  19  15     2.849053314359   125.67332794   356.83845697
 C     23  21  19     2.910220586064   111.87737617   127.95128974
 H     23  21  19     2.066343418370   112.32872407     3.77779568
 H     23  21  19     2.082354412378   107.73240409   246.63488586
 C     24  23  21     2.900360257813   112.70619778    50.65464951
 H     24  23  21     2.073547714189   109.09838049   288.52857326
 H     24  23  21     2.072938855681   109.14760374   172.57507972
 C     27  24  23     2.901663330034   111.84718179   306.23162858
 H     27  24  23     2.068727325165   108.84768712   182.67399096
 H     27  24  23     2.079558253555   109.24387344    66.22989714
 C     21  19  15     2.830747757703   122.80084066   177.45184958
 H     33  21  19     2.089762892184   106.30711463   124.08482089
 C     33  21  19     2.881723648521   121.00135857     1.78860587
 H     13   3   2     1.826538919122   107.54874791    62.64895454
 C     35  33  21     2.926630837721   103.58945181   196.64150720
 H     35  33  21     2.069384715765   112.18024835    74.65645831
 H     35  33  21     2.070522254241   110.73387744   315.01708499
 C     30  27  24     2.937613036445   116.06269790   166.22474299
 H     37  35  33     2.068485641552   111.74216332   248.93106015
 H     37  35  33     2.072529112785   110.49295755   130.37439654
 H     40  30  27     2.082344381318   106.38956766   320.58901500
 C     40  30  27     2.925398441548   118.91466333    80.79596596
 C     30  27  24     2.899291040814   111.10677987   294.40388905
 H     45  30  27     2.067876074225   111.32121027    66.34370176
 H     45  30  27     2.070204193626   110.71730371   306.25607097
 H     45  30  27     2.068538269955   111.67386665   186.28895020
 H     44  40  30     2.084013313575   106.84573530    62.07368742
 C     44  40  30     2.887264262677   113.42449093   303.03610338
 C     44  40  30     2.856726780362   108.59609426   176.64104698
 C     51  44  40     2.521193258828   126.25082664   112.56836762
 H     51  44  40     2.058184021284   114.85306833   294.22855034
 H     52  51  44     2.057644017227   118.73922052     1.04035505
 C     52  51  44     2.852157805726   126.27255885   180.51917877
 C     55  52  51     2.890877262822   113.10029964    14.36157250
 C     55  52  51     2.939412245610   110.87104985   247.88055362
 H     55  52  51     2.086700703487   106.70452932   132.95581489
 H     57  55  52     2.081943599369   106.77825782    65.45797193
 C     57  55  52     2.895647611453   112.09884091   307.06061845
 C     57  55  52     2.895597455406   111.63785594   183.91053966
 H     56  55  52     2.069294665301   110.81612992    49.27556096
 H     56  55  52     2.072708260370   111.14734301   289.20512401
 H     56  55  52     2.064978692770   111.20558937   169.04264025
 H     60  57  55     2.069973956246   110.36430775   184.49250069
 H     60  57  55     2.066937735210   112.28749849    64.35197799
 H     60  57  55     2.074777727821   110.55397293   303.58946869
 H     61  57  55     2.074782788675   110.35923094    56.95572694
 H     61  57  55     2.066199006814   112.50727419   296.10696167
 H     61  57  55     2.070204422808   110.36789275   175.94270170
 H     50  44  40     2.070211013436   110.59777942   187.60514289
 H     50  44  40     2.063278583961   111.06361521    68.14854645
 H     50  44  40     2.071881527576   111.45365820   307.80750619

---------------------
BASIS SET INFORMATION
---------------------
There are 3 groups of distinct atoms

 Group   1 Type C   : 7s4p1d contracted to 3s2p1d pattern {511/31/1}
 Group   2 Type H   : 4s1p contracted to 2s1p pattern {31/1}
 Group   3 Type O   : 7s4p1d contracted to 3s2p1d pattern {511/31/1}

Atom   0C    basis set group =>   1
Atom   1C    basis set group =>   1
Atom   2C    basis set group =>   1
Atom   3H    basis set group =>   2
Atom   4H    basis set group =>   2
Atom   5C    basis set group =>   1
Atom   6C    basis set group =>   1
Atom   7C    basis set group =>   1
Atom   8H    basis set group =>   2
Atom   9H    basis set group =>   2
Atom  10H    basis set group =>   2
Atom  11H    basis set group =>   2
Atom  12O    basis set group =>   3
Atom  13H    basis set group =>   2
Atom  14C    basis set group =>   1
Atom  15C    basis set group =>   1
Atom  16H    basis set group =>   2
Atom  17H    basis set group =>   2
Atom  18C    basis set group =>   1
Atom  19H    basis set group =>   2
Atom  20C    basis set group =>   1
Atom  21H    basis set group =>   2
Atom  22C    basis set group =>   1
Atom  23C    basis set group =>   1
Atom  24H    basis set group =>   2
Atom  25H    basis set group =>   2
Atom  26C    basis set group =>   1
Atom  27H    basis set group =>   2
Atom  28H    basis set group =>   2
Atom  29C    basis set group =>   1
Atom  30H    basis set group =>   2
Atom  31H    basis set group =>   2
Atom  32C    basis set group =>   1
Atom  33H    basis set group =>   2
Atom  34C    basis set group =>   1
Atom  35H    basis set group =>   2
Atom  36C    basis set group =>   1
Atom  37H    basis set group =>   2
Atom  38H    basis set group =>   2
Atom  39C    basis set group =>   1
Atom  40H    basis set group =>   2
Atom  41H    basis set group =>   2
Atom  42H    basis set group =>   2
Atom  43C    basis set group =>   1
Atom  44C    basis set group =>   1
Atom  45H    basis set group =>   2
Atom  46H    basis set group =>   2
Atom  47H    basis set group =>   2
Atom  48H    basis set group =>   2
Atom  49C    basis set group =>   1
Atom  50C    basis set group =>   1
Atom  51C    basis set group =>   1
Atom  52H    basis set group =>   2
Atom  53H    basis set group =>   2
Atom  54C    basis set group =>   1
Atom  55C    basis set group =>   1
Atom  56C    basis set group =>   1
Atom  57H    basis set group =>   2
Atom  58H    basis set group =>   2
Atom  59C    basis set group =>   1
Atom  60C    basis set group =>   1
Atom  61H    basis set group =>   2
Atom  62H    basis set group =>   2
Atom  63H    basis set group =>   2
Atom  64H    basis set group =>   2
Atom  65H    basis set group =>   2
Atom  66H    basis set group =>   2
Atom  67H    basis set group =>   2
Atom  68H    basis set group =>   2
Atom  69H    basis set group =>   2
Atom  70H    basis set group =>   2
Atom  71H    basis set group =>   2
Atom  72H    basis set group =>   2

-------------------------
BASIS SET IN INPUT FORMAT
-------------------------

 # Basis set for element : H 
 NewGTO H 
 S 3 
   1      13.0107010000      0.0334854848
   2       1.9622572000      0.2347218709
   3       0.4445379600      0.8137702853
 S 1 
   1       0.1219496200      1.0000000000
 P 1 
   1       0.8000000000      1.0000000000
  end;

 # Basis set for element : C 
 NewGTO C 
 S 5 
   1    1238.4016938000      0.0055173650
   2     186.2900499200      0.0410888285
   3      42.2511763460      0.1822538213
   4      11.6765579320      0.4682845944
   5       3.5930506482      0.4457581734
 S 1 
   1       0.4024514736      1.0000000000
 S 1 
   1       0.1309018267      1.0000000000
 P 3 
   1       9.4680970621      0.0568883320
   2       2.0103545142      0.3129405934
   3       0.5477100471      0.7606501651
 P 1 
   1       0.1526861379      1.0000000000
 D 1 
   1       0.8000000000      1.0000000000
  end;

 # Basis set for element : O 
 NewGTO O 
 S 5 
   1    2266.1767785000     -0.0053893504
   2     340.8701019100     -0.0402347214
   3      77.3631351670     -0.1800818421
   4      21.4796449400     -0.4682885766
   5       6.6589433124     -0.4469261716
 S 1 
   1       0.8097597567      1.0000000000
 S 1 
   1       0.2553077223      1.0000000000
 P 3 
   1      17.7215043170      0.0626302488
   2       3.8635505440      0.3333113849
   3       1.0480920883      0.7414863830
 P 1 
   1       0.2764154441      1.0000000000
 D 1 
   1       1.2000000000      1.0000000000
  end;

---------------------------------
AUXILIARY/J BASIS SET INFORMATION
---------------------------------
There are 3 groups of distinct atoms

 Group   1 Type C   : 12s5p4d2f1g contracted to 6s4p3d1f1g pattern {711111/2111/211/2/1}
 Group   2 Type H   : 5s2p1d contracted to 3s1p1d pattern {311/2/1}
 Group   3 Type O   : 12s5p4d2f1g contracted to 6s4p3d1f1g pattern {711111/2111/211/2/1}

Atom   0C    basis set group =>   1
Atom   1C    basis set group =>   1
Atom   2C    basis set group =>   1
Atom   3H    basis set group =>   2
Atom   4H    basis set group =>   2
Atom   5C    basis set group =>   1
Atom   6C    basis set group =>   1
Atom   7C    basis set group =>   1
Atom   8H    basis set group =>   2
Atom   9H    basis set group =>   2
Atom  10H    basis set group =>   2
Atom  11H    basis set group =>   2
Atom  12O    basis set group =>   3
Atom  13H    basis set group =>   2
Atom  14C    basis set group =>   1
Atom  15C    basis set group =>   1
Atom  16H    basis set group =>   2
Atom  17H    basis set group =>   2
Atom  18C    basis set group =>   1
Atom  19H    basis set group =>   2
Atom  20C    basis set group =>   1
Atom  21H    basis set group =>   2
Atom  22C    basis set group =>   1
Atom  23C    basis set group =>   1
Atom  24H    basis set group =>   2
Atom  25H    basis set group =>   2
Atom  26C    basis set group =>   1
Atom  27H    basis set group =>   2
Atom  28H    basis set group =>   2
Atom  29C    basis set group =>   1
Atom  30H    basis set group =>   2
Atom  31H    basis set group =>   2
Atom  32C    basis set group =>   1
Atom  33H    basis set group =>   2
Atom  34C    basis set group =>   1
Atom  35H    basis set group =>   2
Atom  36C    basis set group =>   1
Atom  37H    basis set group =>   2
Atom  38H    basis set group =>   2
Atom  39C    basis set group =>   1
Atom  40H    basis set group =>   2
Atom  41H    basis set group =>   2
Atom  42H    basis set group =>   2
Atom  43C    basis set group =>   1
Atom  44C    basis set group =>   1
Atom  45H    basis set group =>   2
Atom  46H    basis set group =>   2
Atom  47H    basis set group =>   2
Atom  48H    basis set group =>   2
Atom  49C    basis set group =>   1
Atom  50C    basis set group =>   1
Atom  51C    basis set group =>   1
Atom  52H    basis set group =>   2
Atom  53H    basis set group =>   2
Atom  54C    basis set group =>   1
Atom  55C    basis set group =>   1
Atom  56C    basis set group =>   1
Atom  57H    basis set group =>   2
Atom  58H    basis set group =>   2
Atom  59C    basis set group =>   1
Atom  60C    basis set group =>   1
Atom  61H    basis set group =>   2
Atom  62H    basis set group =>   2
Atom  63H    basis set group =>   2
Atom  64H    basis set group =>   2
Atom  65H    basis set group =>   2
Atom  66H    basis set group =>   2
Atom  67H    basis set group =>   2
Atom  68H    basis set group =>   2
Atom  69H    basis set group =>   2
Atom  70H    basis set group =>   2
Atom  71H    basis set group =>   2
Atom  72H    basis set group =>   2

-------------------------------------
AUXILIARY/J BASIS SET IN INPUT FORMAT
-------------------------------------

 # Auxiliary/J basis set for element : H 
 NewAuxJGTO H 
 S 3 
   1      15.6752927000      0.1007184237
   2       3.6063578000      0.3404257499
   3       1.2080016000      0.6491996172
 S 1 
   1       0.4726794000      1.0000000000
 S 1 
   1       0.2018100000      1.0000000000
 P 2 
   1       2.0281365000      0.5596620919
   2       0.5358730000      0.5596620919
 D 1 
   1       2.2165124000      1.0000000000
  end;

 # Auxiliary/J basis set for element : C 
 NewAuxJGTO C 
 S 7 
   1    1861.0916331000      0.0134602335
   2     642.9939764000      0.0299160374
   3     235.1105725000      0.1008649584
   4      90.7028894000      0.2370970548
   5      36.7794552000      0.3924037254
   6      15.6046273000      0.3195862154
   7       6.8907294000      0.0530104441
 S 1 
   1       3.1478850000     -1.0000000000
 S 1 
   1       1.4777287000      1.0000000000
 S 1 
   1       0.7076466000      1.0000000000
 S 1 
   1       0.3430122000      1.0000000000
 S 1 
   1       0.1669453000      1.0000000000
 P 2 
   1      13.5472892000     -0.6769313712
   2       5.4669419000     -0.3779500978
 P 1 
   1       2.1751721000      1.0000000000
 P 1 
   1       0.8582194000      1.0000000000
 P 1 
   1       0.3376720000      1.0000000000
 D 2 
   1       5.9287253000     -0.3533329857
   2       1.9809209000     -0.7456525731
 D 1 
   1       0.8055417000     -1.0000000000
 D 1 
   1       0.3531244000     -1.0000000000
 F 2 
   1       1.6755626000      0.6311076882
   2       0.5997536000      0.4968166032
 G 1 
   1       1.0024600000     -1.0000000000
  end;

 # Auxiliary/J basis set for element : O 
 NewAuxJGTO O 
 S 7 
   1    2876.8216605000      0.0168151159
   2    1004.7443032000      0.0340137548
   3     369.7579954000      0.1194951309
   4     142.9442404000      0.2664627624
   5      57.8366425000      0.4202764046
   6      24.3864983000      0.2765077335
   7      10.6622662000      0.0057008815
 S 1 
   1       4.8070437000     -1.0000000000
 S 1 
   1       2.2210770000      1.0000000000
 S 1 
   1       1.0447795000      1.0000000000
 S 1 
   1       0.4968425000      1.0000000000
 S 1 
   1       0.2371384000      1.0000000000
 P 2 
   1      64.2613382000     -0.2731534179
   2      16.3006076000     -0.8168011598
 P 1 
   1       4.3550542000      1.0000000000
 P 1 
   1       1.2019554000      1.0000000000
 P 1 
   1       0.3354196000      1.0000000000
 D 2 
   1       9.2146611000     -0.4661230638
   2       2.8435251000     -0.6600908911
 D 1 
   1       0.9955759000     -1.0000000000
 D 1 
   1       0.3649441000     -1.0000000000
 F 2 
   1       2.6420115000      0.5931563945
   2       0.7345613000      0.5931563945
 G 1 
   1       1.3931000000     -1.0000000000
  end;


Checking for AutoStart:
The File: inpS.gbw exists
Trying to determine its content:
     ... Fine, the file contains calculation information
     ... Fine, the calculation information was read
     ... Fine, the file contains a basis set
     ... Fine, the basis set was read
     ... Fine, the file contains a geometry
     ... Fine, the geometry was read
     ... Fine, the file contains a set of orbitals
     ... Fine, the orbitals can be read
     => possible old guess file was deleted
     => GBW file was renamed to GES file
     => GES file is set as startup file
     => Guess is set to MORead
     ... now leaving AutoStart



           ************************************************************
           *        Program running with 4 parallel MPI-processes     *
           *              working on a common directory               *
           ************************************************************
------------------------------------------------------------------------------
                             ORCA STARTUP CALCULATIONS
                           -- RI-GTO INTEGRALS CHOSEN --
------------------------------------------------------------------------------
------------------------------------------------------------------------------
                   ___                                                        
                  /   \      - P O W E R E D   B Y -                         
                 /     \                                                     
                 |  |  |   _    _      __       _____    __    __             
                 |  |  |  | |  | |    /  \     |  _  \  |  |  /  |          
                  \  \/   | |  | |   /    \    | | | |  |  | /  /          
                 / \  \   | |__| |  /  /\  \   | |_| |  |  |/  /          
                |  |  |   |  __  | /  /__\  \  |    /   |      \           
                |  |  |   | |  | | |   __   |  |    \   |  |\   \          
                \     /   | |  | | |  |  |  |  | |\  \  |  | \   \       
                 \___/    |_|  |_| |__|  |__|  |_| \__\ |__|  \__/        
                                                                              
                      - O R C A' S   B I G   F R I E N D -                    
                                      &                                       
                       - I N T E G R A L  F E E D E R -                       
                                                                              
 v1 FN, 2020, v2 2021, v3 2022-2024                                           
------------------------------------------------------------------------------


----------------------
SHARK INTEGRAL PACKAGE
----------------------

Number of atoms                             ...     73
Number of basis functions                   ...    626
Number of shells                            ...    306
Maximum angular momentum                    ...      2
Integral batch strategy                     ... SHARK/LIBINT Hybrid
RI-J (if used) integral strategy            ... SPLIT-RIJ (Revised 2003 algorithm where possible)
Printlevel                                  ...      1
Contraction scheme used                     ... SEGMENTED contraction
Prescreening option                         ... SCHWARTZ
   Thresh                                   ... 3.000e-11
   Tcut                                     ... 1.000e-12
   Tpresel                                  ... 1.000e-12 
Coulomb Range Separation                    ... NOT USED
Exchange Range Separation                   ... Long Range
   Mu parameter                             ... 3.000e-01
   Scaling (regular/separated)              ... 1.670e-01 8.330e-01
Multipole approximations                    ... NOT USED
Finite Nucleus Model                        ... NOT USED
CABS basis                                  ... NOT available
Auxiliary Coulomb fitting basis             ... AVAILABLE
   # of basis functions in Aux-J            ...   1905
   # of shells in Aux-J                     ...    655
   Maximum angular momentum in Aux-J        ...      4
Auxiliary J/K fitting basis                 ... NOT available
Auxiliary Correlation fitting basis         ... NOT available
Auxiliary 'external' fitting basis          ... NOT available

Checking pre-screening integrals            ... done (  0.0 sec) Dimension = 306
Check shell pair data                       ... done (  0.0 sec)
Shell pair information
Shell pair cut-off parameter TPreSel        ...   1.0e-12
Total number of shell pairs                 ...     46971
Shell pairs after pre-screening             ...     26906
Total number of primitive shell pairs       ...    162105
Primitive shell pairs kept                  ...     59609
          la=0 lb=0:   9408 shell pairs
          la=1 lb=0:  10327 shell pairs
          la=1 lb=1:   2849 shell pairs
          la=2 lb=0:   2679 shell pairs
          la=2 lb=1:   1449 shell pairs
          la=2 lb=2:    194 shell pairs

Calculating one electron integrals          ... done (  0.1 sec)
Calculating RI/J V-Matrix + Cholesky decomp.... done (  0.2 sec)
Calculating Nuclear repulsion               ... done (  0.0 sec) ENN=   2745.542728537786 Eh

Diagonalization of the overlap matrix:
Smallest eigenvalue                        ... 4.412e-04
Time for diagonalization                   ...    0.051 sec
Threshold for overlap eigenvalues          ... 1.000e-07
Number of eigenvalues below threshold      ... 0
Time for construction of square roots      ...    0.030 sec
Total time needed                          ...    0.084 sec

-------------------
DFT GRID GENERATION
-------------------

General Integration Accuracy     IntAcc      ... 4.388
Radial Grid Type                 RadialGrid  ... OptM3 with GC (2021)
Angular Grid (max. ang.)         AngularGrid ... 4 (Lebedev-302)
Angular grid pruning method      GridPruning ... 4 (adaptive)
Weight generation scheme         WeightScheme... mBecke (2022)
Basis function cutoff            BFCut       ... 1.0000e-11
Integration weight cutoff        WCut        ... 1.0000e-14
Partially contracted basis set               ... off
Rotationally invariant grid construction     ... off
Angular grids for H and He will be reduced by one unit

Total number of grid points                  ...   309922
Total number of batches                      ...     4881
Average number of points per batch           ...       63
Average number of grid points per atom       ...     4246

--------------------
COSX GRID GENERATION
--------------------

GRIDX 1
-------
General Integration Accuracy     IntAcc      ... 3.816
Radial Grid Type                 RadialGrid  ... OptM3 with GC (2021)
Angular Grid (max. ang.)         AngularGrid ... 1 (Lebedev-50)
Angular grid pruning method      GridPruning ... 4 (adaptive)
Weight generation scheme         WeightScheme... mBecke (2022)
Basis function cutoff            BFCut       ... 1.0000e-11
Integration weight cutoff        WCut        ... 1.0000e-14
Partially contracted basis set               ... on
Rotationally invariant grid construction     ... off
Angular grids for H and He will be reduced by one unit

Total number of grid points                  ...    39438
Total number of batches                      ...      355
Average number of points per batch           ...      111
Average number of grid points per atom       ...      540
UseSFitting                                  ... on

GRIDX 2
-------
General Integration Accuracy     IntAcc      ... 4.020
Radial Grid Type                 RadialGrid  ... OptM3 with GC (2021)
Angular Grid (max. ang.)         AngularGrid ... 2 (Lebedev-110)
Angular grid pruning method      GridPruning ... 4 (adaptive)
Weight generation scheme         WeightScheme... mBecke (2022)
Basis function cutoff            BFCut       ... 1.0000e-11
Integration weight cutoff        WCut        ... 1.0000e-14
Partially contracted basis set               ... on
Rotationally invariant grid construction     ... off
Angular grids for H and He will be reduced by one unit

Total number of grid points                  ...    81514
Total number of batches                      ...      680
Average number of points per batch           ...      119
Average number of grid points per atom       ...     1117
UseSFitting                                  ... on

GRIDX 3
-------
General Integration Accuracy     IntAcc      ... 4.338
Radial Grid Type                 RadialGrid  ... OptM3 with GC (2021)
Angular Grid (max. ang.)         AngularGrid ... 3 (Lebedev-194)
Angular grid pruning method      GridPruning ... 4 (adaptive)
Weight generation scheme         WeightScheme... mBecke (2022)
Basis function cutoff            BFCut       ... 1.0000e-11
Integration weight cutoff        WCut        ... 1.0000e-14
Partially contracted basis set               ... on
Rotationally invariant grid construction     ... off
Angular grids for H and He will be reduced by one unit

Total number of grid points                  ...   176560
Total number of batches                      ...     1420
Average number of points per batch           ...      124
Average number of grid points per atom       ...     2419
UseSFitting                                  ... on
Initializing property integral containers    ... done (  0.0 sec)

SHARK setup successfully completed in   4.5 seconds

Maximum memory used throughout the entire STARTUP-calculation: 94.8 MB


           ************************************************************
           *        Program running with 4 parallel MPI-processes     *
           *              working on a common directory               *
           ************************************************************
-------------------------------------------------------------------------------
                                 ORCA GUESS
                   Start orbitals & Density for SCF / CASSCF
-------------------------------------------------------------------------------

------------
SCF SETTINGS
------------
Hamiltonian:
 Density Functional     Method          .... DFT(GTOs)
 Exchange Functional    Exchange        .... WB97X-V
 Correlation Functional Correlation     .... WB97X-V
 Gradients option       PostSCFGGA      .... off
 Hybrid DFT is turned on
   Fraction HF Exchange ScalHFX         ....  0.167000
   Scaling of DF-GGA-X  ScalDFX         ....  0.000000
   Scaling of DF-GGA-C  ScalDFC         ....  1.000000
   Scaling of DF-LDA-C  ScalLDAC        ....  1.000000
   Perturbative correction              ....  0.000000
 Long-range corrected/Screened/Range-Separated Hybrid DFT is turned on
   Amount of maximum screened exact exchange              ....  0.833000
   Range separation parameter mu (erf(mu*r12)/r12)        ....  0.300000
 RI-approximation to the Coulomb term is turned on
   Number of AuxJ basis functions       .... 1905
   RIJ-COSX (HFX calculated with COS-X)).... on


General Settings:
 Integral files         IntName         .... inpS
 Hartree-Fock type      HFTyp           .... RHF
 Total Charge           Charge          ....    0
 Multiplicity           Mult            ....    1
 Number of Electrons    NEL             ....  220
 Basis Dimension        Dim             ....  626
 Nuclear Repulsion      ENuc            ....   2745.5427285378 Eh

Convergence Acceleration:
 AO-DIIS                CNVDIIS         .... on
   Start iteration      DIISMaxIt       ....    12
   Startup error        DIISStart       ....  0.200000
   # of expansion vecs  DIISMaxEq       ....     5
   Bias factor          DIISBfac        ....   1.050
   Max. coefficient     DIISMaxC        ....  10.000
 MO-DIIS                CNVKDIIS        .... off
 Trust-Rad. Augm. Hess. CNVTRAH         .... auto
   Auto Start mean grad. ratio tolernc. ....  1.125000
   Auto Start start iteration           ....     1
   Auto Start num. interpolation iter.  ....    10
   Max. Number of Micro iterations      ....    24
   Max. Number of Macro iterations      .... Maxiter - #DIIS iter
   Number of Davidson start vectors     ....     2
   Converg. threshold    (grad. norm)   ....   1.000e-04
   Grad. Scal. Fac. for Micro threshold ....   0.100
   Minimum threshold for Micro iter.    ....   1.000e-02
   NR start threshold (gradient norm)   ....   1.000e-04
   Initial trust radius                 ....   0.400
   Minimum AH scaling param. (alpha)    ....   1.000
   Maximum AH scaling param. (alpha)    .... 1000.000
   Quad. conv. algorithm                .... NR
   White noise on init. David. guess    .... on
   Maximum white noise                  ....   0.010
   Pseudo random numbers                .... off
   Inactive MOs                         .... canonical
   Orbital update algorithm             .... Taylor
   Preconditioner                       .... Diag
   Full preconditioner red. dimension   ....   250
 SOSCF                  CNVSOSCF        .... off
 Level Shifting         CNVShift        .... on
   Level shift para.    LevelShift      ....    0.2500
   Turn off err/grad.   ShiftErr        ....    0.0010
 Zerner damping         CNVZerner       .... off
 Static damping         CNVDamp         .... on
   Fraction old density DampFac         ....    0.7000
   Max. Damping (<1)    DampMax         ....    0.9800
   Min. Damping (>=0)   DampMin         ....    0.0000
   Turn off err/grad.   DampErr         ....    0.1000

SCF Procedure:
 Maximum # iterations   MaxIter         ....   125
 SCF integral mode      SCFMode         .... Direct
   Integral package                     .... SHARK and LIBINT hybrid scheme
 Reset frequency        DirectResetFreq ....    20
 Integral Threshold     Thresh          ....  3.000e-11 Eh
 Primitive CutOff       TCut            ....  1.000e-12 Eh

Convergence Tolerance:
 Convergence Check Mode ConvCheckMode   .... Total+1el-Energy
 Convergence forced     ConvForced      .... 0
 Energy Change          TolE            ....  1.000e-07 Eh
 1-El. energy change                    ....  1.000e-04 Eh
 DIIS Error             TolErr          ....  1.000e-07

---------------------
INITIAL GUESS: MOREAD
---------------------
Guess MOs are being read from file: inpS.ges
Input Geometry matches current geometry (good)
Input basis set matches current basis set (good)
Occupation numbers will be reassigned to an Aufbau configuration
MOs were renormalized
MOs were reorthogonalized (Cholesky)
                      ------------------
                      INITIAL GUESS DONE (   0.2 sec)
                      ------------------
             **** ENERGY FILE WAS UPDATED (inpS.en.tmp) ****
Finished Guess after   0.3 sec
Maximum memory used throughout the entire GUESS-calculation: 51.8 MB


           ************************************************************
           *        Program running with 4 parallel MPI-processes     *
           *              working on a common directory               *
           ************************************************************

-------------------------------------------------------------------------------------------
                                      ORCA LEAN-SCF
                              memory conserving SCF solver
-------------------------------------------------------------------------------------------

--------------------
CPCM SOLVATION MODEL
--------------------
CPCM parameters:
  Epsilon                                         ...       4.8030
  Refrac                                          ...       1.4459
  Rsolv                                           ...       1.3000
  Surface type                                    ... GAUSSIAN VDW
  Discretization scheme                           ... Constant charge density
    Threshold for H atoms                         ...       5.0000 (charges/Ang^2)
    Threshold for non-H atoms                     ...       5.0000 (charges/Ang^2)
  Epsilon function type                           ...         CPCM
Solvent:                                          ... CHLOROFORM
Radii:
  Scheme                                          ... Element-dependent radii
  Radius for C  used is    3.8550 Bohr (=   2.0400 Ang.)
  Radius for H  used is    2.4944 Bohr (=   1.3200 Ang.)
  Radius for O  used is    3.4469 Bohr (=   1.8240 Ang.)
Calculating surface                               ...        done! (  0.0s)
Cavity surface points                             ...         5415
Cavity Volume                                     ...    3606.8585
Cavity Surface-area                               ...    1799.6171
Calculating surface distance matrix               ...        done! (  0.2s)
Performing Cholesky decomposition & store         ...        done! (  0.9s)
Overall time for CPCM initialization              ...                 1.2s

----------------------------------------D-I-I-S--------------------------------------------
Iteration    Energy (Eh)           Delta-E    RMSDP     MaxDP     DIISErr   Damp  Time(sec)
-------------------------------------------------------------------------------------------
               ***  Starting incremental Fock matrix formation  ***
    1    -1168.3604602793516278     0.00e+00  3.21e-08  1.81e-06  6.41e-06  0.700  23.0

  HOMO= 109 E= -7.882 eV LUMO=  8.091 eV gap=  15.973 eV
    2    -1168.3604602689720195     1.04e-08  2.73e-08  1.34e-06  3.23e-06  0.700   4.7
                 **** Energy Check signals convergence ****

  HOMO= 109 E= -7.882 eV LUMO=  8.091 eV gap=  15.973 eV

               *****************************************************
               *                     SUCCESS                       *
               *           SCF CONVERGED AFTER   2 CYCLES          *
               *****************************************************

Recomputing exchange energy using gridx3       ... done (   40.206 sec)
Old exchange energy                            :    -56.782788937 Eh
New exchange energy                            :    -56.782755970 Eh
Exchange energy change after final integration :      0.000032967 Eh
Total energy after final integration           :  -1168.360427302 Eh
             **** ENERGY FILE WAS UPDATED (inpS.en.tmp) ****

----------------
TOTAL SCF ENERGY
----------------

Total Energy       :      -1168.36042730172221 Eh          -31792.70354 eV

Components:
Nuclear Repulsion  :       2745.54272853778593 Eh           74710.01583 eV
Electronic Energy  :      -3913.89249647338465 Eh         -106502.42931 eV
One Electron Energy:      -7036.36954240379600 Eh         -191469.34936 eV
Two Electron Energy:       3122.47704593041135 Eh           84966.92005 eV
CPCM Dielectric    :         -0.01069233337317 Eh              -0.29095 eV

Virial components:
Potential Energy   :      -2321.68959216630628 Eh          -63176.38563 eV
Kinetic Energy     :       1153.32916486458384 Eh           31383.68209 eV
Virial Ratio       :          2.01303293361085

DFT components:
N(Alpha)           :      110.000228991863 electrons
N(Beta)            :      110.000228991863 electrons
N(Total)           :      220.000457983725 electrons
E(X)               :     -111.770959137557 Eh       
E(C)               :       -8.951516876599 Eh       
E(XC)              :     -120.722476014156 Eh       

CPCM Solvation Model Properties:
Surface-charge          :         -0.04200477373080
Corrected charge        :         -0.00000000000000
Outlying charge corr.   :          0.00006109762296 Eh               0.00166 eV
Free-energy (cav+disp)  :  This term is not implemented in the current solvation scheme

---------------
SCF CONVERGENCE
---------------

  Last Energy change         ...   -1.0380e-08  Tolerance :   1.0000e-07
  Last MAX-Density change    ...    1.3378e-06  Tolerance :   1.0000e-05
  Last RMS-Density change    ...    2.7312e-08  Tolerance :   1.0000e-06
  Last DIIS Error            ...    3.2330e-06  Tolerance :   1.0000e-07


----------------
ORBITAL ENERGIES
----------------

  NO   OCC          E(Eh)            E(eV) 
   0   2.0000     -19.213720      -522.8319 
   1   2.0000     -10.329774      -281.0874 
   2   2.0000     -10.293485      -280.1000 
   3   2.0000     -10.290229      -280.0114 
   4   2.0000     -10.286126      -279.8997 
   5   2.0000     -10.286094      -279.8988 
   6   2.0000     -10.285150      -279.8732 
   7   2.0000     -10.282933      -279.8128 
   8   2.0000     -10.282554      -279.8025 
   9   2.0000     -10.282285      -279.7952 
  10   2.0000     -10.281976      -279.7868 
  11   2.0000     -10.280808      -279.7550 
  12   2.0000     -10.279448      -279.7180 
  13   2.0000     -10.278472      -279.6914 
  14   2.0000     -10.278416      -279.6899 
  15   2.0000     -10.277100      -279.6541 
  16   2.0000     -10.276785      -279.6455 
  17   2.0000     -10.276451      -279.6364 
  18   2.0000     -10.272330      -279.5243 
  19   2.0000     -10.271985      -279.5149 
  20   2.0000     -10.271616      -279.5049 
  21   2.0000     -10.271572      -279.5037 
  22   2.0000     -10.271276      -279.4956 
  23   2.0000     -10.270930      -279.4862 
  24   2.0000     -10.268288      -279.4143 
  25   2.0000     -10.268188      -279.4116 
  26   2.0000     -10.268150      -279.4106 
  27   2.0000     -10.268024      -279.4072 
  28   2.0000     -10.267081      -279.3815 
  29   2.0000      -1.131696       -30.7950 
  30   2.0000      -0.998228       -27.1632 
  31   2.0000      -0.979176       -26.6447 
  32   2.0000      -0.957323       -26.0501 
  33   2.0000      -0.942681       -25.6517 
  34   2.0000      -0.917617       -24.9696 
  35   2.0000      -0.910905       -24.7870 
  36   2.0000      -0.889692       -24.2097 
  37   2.0000      -0.887224       -24.1426 
  38   2.0000      -0.872930       -23.7536 
  39   2.0000      -0.853148       -23.2153 
  40   2.0000      -0.834238       -22.7008 
  41   2.0000      -0.825550       -22.4644 
  42   2.0000      -0.809157       -22.0183 
  43   2.0000      -0.799097       -21.7445 
  44   2.0000      -0.795205       -21.6386 
  45   2.0000      -0.787073       -21.4173 
  46   2.0000      -0.761464       -20.7205 
  47   2.0000      -0.757682       -20.6176 
  48   2.0000      -0.727042       -19.7838 
  49   2.0000      -0.713202       -19.4072 
  50   2.0000      -0.712267       -19.3818 
  51   2.0000      -0.701002       -19.0752 
  52   2.0000      -0.689947       -18.7744 
  53   2.0000      -0.676396       -18.4057 
  54   2.0000      -0.649719       -17.6798 
  55   2.0000      -0.632620       -17.2145 
  56   2.0000      -0.624265       -16.9871 
  57   2.0000      -0.620461       -16.8836 
  58   2.0000      -0.605276       -16.4704 
  59   2.0000      -0.604366       -16.4456 
  60   2.0000      -0.594969       -16.1899 
  61   2.0000      -0.584647       -15.9091 
  62   2.0000      -0.568321       -15.4648 
  63   2.0000      -0.565372       -15.3846 
  64   2.0000      -0.563457       -15.3324 
  65   2.0000      -0.560995       -15.2654 
  66   2.0000      -0.553592       -15.0640 
  67   2.0000      -0.548712       -14.9312 
  68   2.0000      -0.546478       -14.8704 
  69   2.0000      -0.545506       -14.8440 
  70   2.0000      -0.535790       -14.5796 
  71   2.0000      -0.534329       -14.5398 
  72   2.0000      -0.526510       -14.3271 
  73   2.0000      -0.521370       -14.1872 
  74   2.0000      -0.517868       -14.0919 
  75   2.0000      -0.512276       -13.9397 
  76   2.0000      -0.505258       -13.7488 
  77   2.0000      -0.501367       -13.6429 
  78   2.0000      -0.497484       -13.5372 
  79   2.0000      -0.492291       -13.3959 
  80   2.0000      -0.489683       -13.3249 
  81   2.0000      -0.487069       -13.2538 
  82   2.0000      -0.484660       -13.1883 
  83   2.0000      -0.477048       -12.9811 
  84   2.0000      -0.473779       -12.8922 
  85   2.0000      -0.466872       -12.7042 
  86   2.0000      -0.463932       -12.6242 
  87   2.0000      -0.462510       -12.5855 
  88   2.0000      -0.454709       -12.3733 
  89   2.0000      -0.454488       -12.3673 
  90   2.0000      -0.447722       -12.1831 
  91   2.0000      -0.447135       -12.1672 
  92   2.0000      -0.437246       -11.8981 
  93   2.0000      -0.431318       -11.7368 
  94   2.0000      -0.426363       -11.6019 
  95   2.0000      -0.426053       -11.5935 
  96   2.0000      -0.421830       -11.4786 
  97   2.0000      -0.419113       -11.4046 
  98   2.0000      -0.416567       -11.3354 
  99   2.0000      -0.414590       -11.2816 
 100   2.0000      -0.410537       -11.1713 
 101   2.0000      -0.409709       -11.1487 
 102   2.0000      -0.404909       -11.0181 
 103   2.0000      -0.400521       -10.8987 
 104   2.0000      -0.394605       -10.7378 
 105   2.0000      -0.382079       -10.3969 
 106   2.0000      -0.372311       -10.1311 
 107   2.0000      -0.357162        -9.7189 
 108   2.0000      -0.335507        -9.1296 
 109   2.0000      -0.289660        -7.8821 
 110   0.0000       0.047344         1.2883 
 111   0.0000       0.100468         2.7339 
 112   0.0000       0.111622         3.0374 
 113   0.0000       0.134350         3.6559 
 114   0.0000       0.145913         3.9705 
 115   0.0000       0.147280         4.0077 
 116   0.0000       0.152366         4.1461 
 117   0.0000       0.156374         4.2552 
 118   0.0000       0.158812         4.3215 
 119   0.0000       0.159724         4.3463 
 120   0.0000       0.167770         4.5652 
*Only the first 10 virtual orbitals were printed.

                    ********************************
                    * MULLIKEN POPULATION ANALYSIS *
                    ********************************

-----------------------
MULLIKEN ATOMIC CHARGES
-----------------------
   0 C :   -0.126957
   1 C :    0.144117
   2 C :    0.081384
   3 H :    0.016728
   4 H :    0.013181
   5 C :   -0.184323
   6 C :    0.111056
   7 C :    0.006925
   8 H :    0.029822
   9 H :    0.012219
  10 H :    0.023472
  11 H :    0.011361
  12 O :   -0.355103
  13 H :    0.014194
  14 C :   -0.024890
  15 C :   -0.044746
  16 H :    0.036406
  17 H :    0.029235
  18 C :   -0.060645
  19 H :   -0.006650
  20 C :   -0.116354
  21 H :    0.001243
  22 C :    0.115032
  23 C :   -0.001035
  24 H :    0.012476
  25 H :    0.017842
  26 C :    0.105937
  27 H :    0.012575
  28 H :    0.014846
  29 C :   -0.406212
  30 H :    0.008515
  31 H :   -0.002382
  32 C :   -0.044816
  33 H :    0.011950
  34 C :    0.122104
  35 H :    0.181701
  36 C :    0.046345
  37 H :    0.007539
  38 H :    0.015575
  39 C :   -0.049974
  40 H :    0.014117
  41 H :    0.010783
  42 H :   -0.011071
  43 C :   -0.004070
  44 C :    0.092707
  45 H :    0.023658
  46 H :    0.018947
  47 H :    0.019148
  48 H :    0.001684
  49 C :    0.059648
  50 C :   -0.084224
  51 C :   -0.090598
  52 H :    0.013359
  53 H :    0.015249
  54 C :   -0.039300
  55 C :    0.041597
  56 C :   -0.179753
  57 H :    0.004902
  58 H :    0.006859
  59 C :    0.027664
  60 C :    0.033009
  61 H :    0.020956
  62 H :    0.021322
  63 H :    0.023930
  64 H :    0.018020
  65 H :    0.025284
  66 H :    0.013401
  67 H :    0.012838
  68 H :    0.024455
  69 H :    0.018375
  70 H :    0.019611
  71 H :    0.028584
  72 H :    0.019215
Sum of atomic charges:   -0.0000000

--------------------------------
MULLIKEN REDUCED ORBITAL CHARGES
--------------------------------
  0 C s       :     3.077830  s :     3.077830
      pz      :     1.004096  p :     3.006289
      px      :     0.998273
      py      :     1.003920
      dz2     :     0.003144  d :     0.042838
      dxz     :     0.007014
      dyz     :     0.005976
      dx2y2   :     0.014770
      dxy     :     0.011934

  1 C s       :     2.932387  s :     2.932387
      pz      :     0.983262  p :     2.889056
      px      :     0.938187
      py      :     0.967606
      dz2     :     0.007176  d :     0.034441
      dxz     :     0.009153
      dyz     :     0.004562
      dx2y2   :     0.008995
      dxy     :     0.004555

  2 C s       :     3.075267  s :     3.075267
      pz      :     1.044118  p :     2.772169
      px      :     0.755138
      py      :     0.972913
      dz2     :     0.011916  d :     0.071180
      dxz     :     0.015756
      dyz     :     0.008959
      dx2y2   :     0.019540
      dxy     :     0.015009

  3 H s       :     0.960082  s :     0.960082
      pz      :     0.010968  p :     0.023191
      px      :     0.007443
      py      :     0.004780

  4 H s       :     0.964025  s :     0.964025
      pz      :     0.004221  p :     0.022794
      px      :     0.003792
      py      :     0.014781

  5 C s       :     3.111814  s :     3.111814
      pz      :     1.004517  p :     3.027721
      px      :     0.976057
      py      :     1.047147
      dz2     :     0.011167  d :     0.044788
      dxz     :     0.006510
      dyz     :     0.011661
      dx2y2   :     0.008630
      dxy     :     0.006820

  6 C s       :     2.949025  s :     2.949025
      pz      :     0.976715  p :     2.904448
      px      :     0.963596
      py      :     0.964137
      dz2     :     0.007154  d :     0.035471
      dxz     :     0.009315
      dyz     :     0.004791
      dx2y2   :     0.009246
      dxy     :     0.004964

  7 C s       :     3.012893  s :     3.012893
      pz      :     0.990501  p :     2.945161
      px      :     0.988909
      py      :     0.965750
      dz2     :     0.005457  d :     0.035021
      dxz     :     0.008208
      dyz     :     0.006493
      dx2y2   :     0.009643
      dxy     :     0.005220

  8 H s       :     0.946886  s :     0.946886
      pz      :     0.011607  p :     0.023292
      px      :     0.006967
      py      :     0.004718

  9 H s       :     0.964959  s :     0.964959
      pz      :     0.004454  p :     0.022823
      px      :     0.003716
      py      :     0.014653

 10 H s       :     0.953833  s :     0.953833
      pz      :     0.011249  p :     0.022695
      px      :     0.005299
      py      :     0.006147

 11 H s       :     0.965945  s :     0.965945
      pz      :     0.011087  p :     0.022693
      px      :     0.007007
      py      :     0.004599

 12 O s       :     3.726261  s :     3.726261
      pz      :     1.532786  p :     4.616635
      px      :     1.256309
      py      :     1.827541
      dz2     :     0.002654  d :     0.012207
      dxz     :     0.003896
      dyz     :     0.001644
      dx2y2   :     0.001854
      dxy     :     0.002158

 13 H s       :     0.965585  s :     0.965585
      pz      :     0.011251  p :     0.020221
      px      :     0.004763
      py      :     0.004207

 14 C s       :     3.196993  s :     3.196993
      pz      :     0.990695  p :     2.791658
      px      :     0.886511
      py      :     0.914452
      dz2     :     0.002699  d :     0.036239
      dxz     :     0.007673
      dyz     :     0.003136
      dx2y2   :     0.012249
      dxy     :     0.010483

 15 C s       :     3.123059  s :     3.123059
      pz      :     0.977571  p :     2.895439
      px      :     0.999249
      py      :     0.918619
      dz2     :     0.007028  d :     0.026248
      dxz     :     0.004164
      dyz     :     0.006833
      dx2y2   :     0.005070
      dxy     :     0.003154

 16 H s       :     0.939045  s :     0.939045
      pz      :     0.010831  p :     0.024549
      px      :     0.006334
      py      :     0.007384

 17 H s       :     0.946142  s :     0.946142
      pz      :     0.004062  p :     0.024624
      px      :     0.004640
      py      :     0.015921

 18 C s       :     3.200921  s :     3.200921
      pz      :     1.030834  p :     2.824410
      px      :     0.876697
      py      :     0.916879
      dz2     :     0.002798  d :     0.035314
      dxz     :     0.007058
      dyz     :     0.003031
      dx2y2   :     0.012443
      dxy     :     0.009984

 19 H s       :     0.982330  s :     0.982330
      pz      :     0.004605  p :     0.024320
      px      :     0.004369
      py      :     0.015346

 20 C s       :     3.099920  s :     3.099920
      pz      :     0.955607  p :     2.972421
      px      :     0.992552
      py      :     1.024262
      dz2     :     0.003528  d :     0.044013
      dxz     :     0.007257
      dyz     :     0.006806
      dx2y2   :     0.014660
      dxy     :     0.011762

 21 H s       :     0.974241  s :     0.974241
      pz      :     0.004662  p :     0.024516
      px      :     0.004255
      py      :     0.015599

 22 C s       :     2.924198  s :     2.924198
      pz      :     1.004270  p :     2.925201
      px      :     0.975312
      py      :     0.945619
      dz2     :     0.009553  d :     0.035568
      dxz     :     0.004128
      dyz     :     0.005976
      dx2y2   :     0.009878
      dxy     :     0.006034

 23 C s       :     3.001324  s :     3.001324
      pz      :     1.006844  p :     2.963263
      px      :     0.969486
      py      :     0.986933
      dz2     :     0.009358  d :     0.036448
      dxz     :     0.007935
      dyz     :     0.003421
      dx2y2   :     0.010128
      dxy     :     0.005606

 24 H s       :     0.964274  s :     0.964274
      pz      :     0.004587  p :     0.023250
      px      :     0.014021
      py      :     0.004643

 25 H s       :     0.958843  s :     0.958843
      pz      :     0.013498  p :     0.023315
      px      :     0.005126
      py      :     0.004690

 26 C s       :     2.970861  s :     2.970861
      pz      :     0.968633  p :     2.887879
      px      :     0.974877
      py      :     0.944369
      dz2     :     0.006659  d :     0.035323
      dxz     :     0.006804
      dyz     :     0.005847
      dx2y2   :     0.008722
      dxy     :     0.007292

 27 H s       :     0.964539  s :     0.964539
      pz      :     0.013353  p :     0.022886
      px      :     0.004835
      py      :     0.004698

 28 H s       :     0.962508  s :     0.962508
      pz      :     0.004798  p :     0.022646
      px      :     0.003824
      py      :     0.014024

 29 C s       :     3.254474  s :     3.254474
      pz      :     1.043190  p :     3.100803
      px      :     1.003473
      py      :     1.054140
      dz2     :     0.011856  d :     0.050934
      dxz     :     0.010031
      dyz     :     0.009479
      dx2y2   :     0.010876
      dxy     :     0.008692

 30 H s       :     0.968420  s :     0.968420
      pz      :     0.009360  p :     0.023065
      px      :     0.007120
      py      :     0.006585

 31 H s       :     0.979838  s :     0.979838
      pz      :     0.012876  p :     0.022544
      px      :     0.005301
      py      :     0.004366

 32 C s       :     3.032976  s :     3.032976
      pz      :     0.985108  p :     2.968028
      px      :     0.953313
      py      :     1.029608
      dz2     :     0.008541  d :     0.043812
      dxz     :     0.007564
      dyz     :     0.007743
      dx2y2   :     0.011054
      dxy     :     0.008911

 33 H s       :     0.966765  s :     0.966765
      pz      :     0.012181  p :     0.021285
      px      :     0.004565
      py      :     0.004539

 34 C s       :     2.894785  s :     2.894785
      pz      :     0.988356  p :     2.948274
      px      :     0.977059
      py      :     0.982860
      dz2     :     0.005366  d :     0.034838
      dxz     :     0.006003
      dyz     :     0.008268
      dx2y2   :     0.008839
      dxy     :     0.006362

 35 H s       :     0.750169  s :     0.750169
[...]
 Total          141.713          174.392          191.293  iso=     169.133

 Orientation: 
  X           0.3263641   -0.5756258    0.7497609
  Y          -0.1043300   -0.8102829   -0.5766775
  Z           0.9394688    0.1099843   -0.3245023

 --------------
 Nucleus  39C :
 --------------

Diamagnetic contribution to the shielding tensor (ppm) : 
           263.328          4.404        -7.397
             5.138        260.414         4.132
            -6.583          3.202       265.365

Paramagnetic contribution to the shielding tensor (ppm): 
           -97.633         -1.639         5.849
             2.032       -130.574        -0.443
             9.210         -2.820      -139.508

Total shielding tensor (ppm): 
           165.695          2.766        -1.548
             7.170        129.840         3.689
             2.627          0.381       125.858


 Diagonalized sT*s matrix:
 
 sDSO           260.953          263.845          264.310  iso=     263.036
 sPSO          -136.006         -133.782          -97.926  iso=    -122.571
        ---------------  ---------------  ---------------
 Total          124.947          130.063          166.384  iso=     140.464

 Orientation: 
  X           0.0419639   -0.1217485   -0.9916735
  Y          -0.4245586    0.8963060   -0.1280058
  Z           0.9044275    0.4263951   -0.0140769

 --------------
 Nucleus  43C :
 --------------

Diamagnetic contribution to the shielding tensor (ppm) : 
           256.817         -0.644        -5.906
            -1.501        248.384         9.829
            -7.507          2.418       253.242

Paramagnetic contribution to the shielding tensor (ppm): 
           -93.746         -2.408        -2.072
             3.730        -91.268        -7.643
            -0.165          2.818       -90.544

Total shielding tensor (ppm): 
           163.071         -3.052        -7.978
             2.230        157.116         2.186
            -7.672          5.235       162.697


 Diagonalized sT*s matrix:
 
 sDSO           244.185          251.053          263.205  iso=     252.814
 sPSO           -90.834          -92.832          -91.893  iso=     -91.853
        ---------------  ---------------  ---------------
 Total          153.351          158.221          171.312  iso=     160.961

 Orientation: 
  X          -0.4914502    0.5469179   -0.6777592
  Y           0.5810445    0.7856069    0.2126242
  Z          -0.6487403    0.2893140    0.7038703

 --------------
 Nucleus  44C :
 --------------

Diamagnetic contribution to the shielding tensor (ppm) : 
           250.476          1.308         2.789
            -0.551        255.720        -2.634
             0.819          0.592       273.015

Paramagnetic contribution to the shielding tensor (ppm): 
           -71.181         -5.833        -2.329
            -2.260        -75.505         0.192
            -0.091         -3.083       -79.521

Total shielding tensor (ppm): 
           179.295         -4.525         0.460
            -2.811        180.215        -2.441
             0.728         -2.492       193.494


 Diagonalized sT*s matrix:
 
 sDSO           253.433          252.923          272.855  iso=     259.737
 sPSO           -77.458          -69.941          -78.807  iso=     -75.402
        ---------------  ---------------  ---------------
 Total          175.975          182.983          194.047  iso=     184.335

 Orientation: 
  X           0.7354640   -0.6717806    0.0883379
  Y           0.6739375    0.7118133   -0.1978133
  Z           0.0700070    0.2050188    0.9762511

 --------------
 Nucleus  49C :
 --------------

Diamagnetic contribution to the shielding tensor (ppm) : 
           243.218         -4.544        -1.488
           -14.836        256.941        10.348
            -8.609          5.996       252.317

Paramagnetic contribution to the shielding tensor (ppm): 
           -63.908          2.470        -4.369
            12.001        -73.902        -5.124
             0.815         -2.120       -76.447

Total shielding tensor (ppm): 
           179.310         -2.074        -5.858
            -2.835        183.039         5.224
            -7.794          3.876       175.870


 Diagonalized sT*s matrix:
 
 sDSO           244.662          240.878          266.936  iso=     250.825
 sPSO           -74.494          -61.562          -78.202  iso=     -71.419
        ---------------  ---------------  ---------------
 Total          170.168          179.316          188.734  iso=     179.406

 Orientation: 
  X           0.5548831   -0.6238827    0.5503409
  Y          -0.1815248   -0.7363812   -0.6517603
  Z           0.8118827    0.2617503   -0.5218556

 --------------
 Nucleus  50C :
 --------------

Diamagnetic contribution to the shielding tensor (ppm) : 
           274.293         -1.239        10.081
             6.239        266.859        -5.309
            12.761         -4.173       252.977

Paramagnetic contribution to the shielding tensor (ppm): 
          -196.971        -23.703       -58.163
           -21.995       -301.146       -24.252
           -49.411        -24.488      -105.640

Total shielding tensor (ppm): 
            77.322        -24.942       -48.083
           -15.756        -34.287       -29.561
           -36.650        -28.661       147.337


 Diagonalized sT*s matrix:
 
 sDSO           269.374          275.937          248.818  iso=     264.709
 sPSO          -309.926         -213.678          -80.153  iso=    -201.252
        ---------------  ---------------  ---------------
 Total          -40.552           62.258          168.665  iso=      63.457

 Orientation: 
  X          -0.4079283    0.8306940   -0.3788694
  Y          -0.8832876   -0.4640899   -0.0665103
  Z          -0.2310792    0.3075192    0.9230571

 --------------
 Nucleus  51C :
 --------------

Diamagnetic contribution to the shielding tensor (ppm) : 
           270.971         -0.580        12.425
           -10.428        276.850        11.442
            14.990          7.982       246.668

Paramagnetic contribution to the shielding tensor (ppm): 
          -193.966        -24.923       -58.052
            -5.787       -308.503       -41.107
           -54.293        -37.355       -96.096

Total shielding tensor (ppm): 
            77.005        -25.502       -45.627
           -16.215        -31.653       -29.665
           -39.302        -29.373       150.573


 Diagonalized sT*s matrix:
 
 sDSO           276.992          278.411          239.087  iso=     264.830
 sPSO          -316.413         -214.631          -67.521  iso=    -199.522
        ---------------  ---------------  ---------------
 Total          -39.421           63.780          171.567  iso=      65.308

 Orientation: 
  X          -0.3963008    0.8364789   -0.3784822
  Y          -0.8875588   -0.4545186   -0.0751817
  Z          -0.2349151    0.3061306    0.9225502

 --------------
 Nucleus  54C :
 --------------

Diamagnetic contribution to the shielding tensor (ppm) : 
           254.274          2.579        -3.665
             6.971        262.988         7.966
             3.174          8.497       243.730

Paramagnetic contribution to the shielding tensor (ppm): 
           -89.593         -2.053        -0.665
            -5.875       -117.199        -9.989
           -11.272         -7.402       -81.419

Total shielding tensor (ppm): 
           164.681          0.526        -4.331
             1.096        145.789        -2.022
            -8.098          1.096       162.311


 Diagonalized sT*s matrix:
 
 sDSO           262.763          248.027          250.202  iso=     253.664
 sPSO          -117.011          -90.855          -80.345  iso=     -96.070
        ---------------  ---------------  ---------------
 Total          145.752          157.172          169.857  iso=     157.594

 Orientation: 
  X           0.0370181    0.6324359   -0.7737277
  Y          -0.9992776    0.0167661   -0.0341048
  Z          -0.0085968    0.7744312    0.6325997

 --------------
 Nucleus  55C :
 --------------

Diamagnetic contribution to the shielding tensor (ppm) : 
           244.555         -0.425        -1.668
            20.501        262.851         2.665
            12.185          5.153       247.527

Paramagnetic contribution to the shielding tensor (ppm): 
           -66.428         -2.692        -3.221
           -25.173        -76.614         2.848
           -19.795         -2.317       -71.351

Total shielding tensor (ppm): 
           178.127         -3.117        -4.889
            -4.672        186.237         5.514
            -7.610          2.837       176.175


 Diagonalized sT*s matrix:
 
 sDSO           250.561          254.645          249.726  iso=     251.644
 sPSO           -79.766          -75.609          -59.018  iso=     -71.464
        ---------------  ---------------  ---------------
 Total          170.795          179.037          190.708  iso=     180.180

 Orientation: 
  X           0.6296258   -0.6294208    0.4554127
  Y          -0.0514169   -0.6186680   -0.7839682
  Z           0.7751952    0.4701908   -0.4218922

 --------------
 Nucleus  56C :
 --------------

Diamagnetic contribution to the shielding tensor (ppm) : 
           252.837          1.047        -4.675
            -1.404        234.701         6.594
            -1.744          9.654       227.977

Paramagnetic contribution to the shielding tensor (ppm): 
           -82.686         -5.336        -3.338
            -2.286        -81.613        -9.422
            -7.485        -11.296       -66.066

Total shielding tensor (ppm): 
           170.151         -4.290        -8.013
            -3.690        153.087        -2.828
            -9.228         -1.643       161.912


 Diagonalized sT*s matrix:
 
 sDSO           240.408          225.286          249.822  iso=     238.505
 sPSO           -90.118          -66.228          -74.018  iso=     -76.788
        ---------------  ---------------  ---------------
 Total          150.289          159.057          175.803  iso=     161.717

 Orientation: 
  X          -0.3507636    0.3855749   -0.8534031
  Y          -0.8369304   -0.5379173    0.1009574
  Z          -0.4201337    0.7496512    0.5113812

 --------------
 Nucleus  59C :
 --------------

Diamagnetic contribution to the shielding tensor (ppm) : 
           243.752         -4.533        -2.441
           -30.192        245.881         1.273
            -6.924          5.311       227.127

Paramagnetic contribution to the shielding tensor (ppm): 
           -73.498         -1.792        -1.098
            28.487        -56.122         9.034
             3.015          0.630       -60.259

Total shielding tensor (ppm): 
           170.254         -6.325        -3.539
            -1.706        189.759        10.307
            -3.909          5.941       166.867


 Diagonalized sT*s matrix:
 
 sDSO           228.719          235.018          253.023  iso=     238.920
 sPSO           -65.339          -64.934          -59.606  iso=     -63.293
        ---------------  ---------------  ---------------
 Total          163.380          170.085          193.417  iso=     175.627

 Orientation: 
  X           0.3561480   -0.9117270    0.2047252
  Y          -0.2323913   -0.2986290   -0.9256430
  Z           0.9050706    0.2820896   -0.3182336

 --------------
 Nucleus  60C :
 --------------

Diamagnetic contribution to the shielding tensor (ppm) : 
           252.176          4.207         4.028
            17.268        219.441         3.260
            13.337         -3.000       218.247

Paramagnetic contribution to the shielding tensor (ppm): 
           -65.446          8.327         2.625
            -9.667        -50.720         2.432
            -5.955         12.793       -48.483

Total shielding tensor (ppm): 
           186.730         12.534         6.653
             7.602        168.720         5.692
             7.382          9.793       169.764


 Diagonalized sT*s matrix:
 
 sDSO           218.657          216.653          254.553  iso=     229.955
 sPSO           -57.568          -47.477          -59.605  iso=     -54.883
        ---------------  ---------------  ---------------
 Total          161.089          169.177          194.949  iso=     175.071

 Orientation: 
  X           0.1570949    0.5399241    0.8269239
  Y          -0.7903794   -0.4333030    0.4330692
  Z           0.5921331   -0.7216166    0.3586752



--------------------------------
CHEMICAL SHIELDING SUMMARY (ppm)
--------------------------------


  Nucleus  Element    Isotropic     Anisotropy
  -------  -------  ------------   ------------
      0       C           59.647        148.103 
      1       C          151.169         30.029 
      2       C          128.875         55.172 
      5       C           51.565        179.208 
      6       C          165.050         22.881 
      7       C          161.679         22.599 
     14       C           74.613        128.309 
     15       C           82.936        121.191 
     18       C           79.496        134.161 
     20       C           52.446        174.916 
     22       C          169.303          8.710 
     23       C          174.551         12.707 
     26       C          158.669         23.920 
     29       C          153.872         17.973 
     32       C          143.403         28.084 
     34       C          174.824         23.293 
     36       C          169.133         33.241 
     39       C          140.464         38.879 
     43       C          160.961         15.526 
     44       C          184.335         14.569 
     49       C          179.406         13.992 
     50       C           63.457        157.812 
     51       C           65.308        159.387 
     54       C          157.594         18.395 
     55       C          180.180         15.792 
     56       C          161.717         21.130 
     59       C          175.627         26.684 
     60       C          175.071         29.816 


NMR shielding tensor and spin rotation calculation done in   1.0 sec 

Maximum memory used throughout the entire PROP-calculation: 51.2 MB

--------------------------------
SUGGESTED CITATIONS FOR THIS RUN
--------------------------------

Below you find a list of papers that are relevant to this ORCA run
We neither can nor want to force you to cite these papers, but we appreciate if you do
You receive ORCA, which is the product of decades of hard work by many enthusiastic individuals, for free
The only thing we kindly ask in return is that you cite our papers,
We deeply appreciate it, if you show your appreciation for ORCA by not just citing the generic ORCA reference.

Please note that relegating all ORCA citations to the supporting information does *not* help us.
SI sections are not indexed - citations you put there will not count into any citation statistics
But we need these citations in order to attract the funding resources that allow us to do what we are doing

Therefore, if you are a happy ORCA user, please consider citing a few of the papers listed below in the main body of your paper

In addition to the list printed below, the program has created the file inpS.bibtex that contains the list in bibtex format
You can import this file easily into all common literature databanks and citation aid programs


List of essential papers. We consider these as the minimum necessary citations

  1. Neese,F.
     Software update: the ORCA program system, version 5.0
     WIRES Comput. Molec. Sci., 2022 12(1)e1606
     doi.org/10.1002/wcms.1606

List of papers to cite with high priority. The work reported in these papers was absolutely
necessary for this run to complete.
Our perspective: the developers of density functionals and basis sets usually get cited in chemistry papers
Good! But without the algorithms to do something with them, the functionals or basis sets would not do anything.
Hence, in our opinion, the algorithm design and method developments papers are equally worthy of getting cited

  1. Neese,F.
     An improvement of the resolution of the identity approximation for the formation of the Coulomb matrix
     J. Comp. Chem., 2003 24(14)1740-1747
     doi.org/10.1002/jcc.10318
  2. Neese,F.; Wennmohs,F.; Hansen,A.; Becker,U.
     Efficient, approximate and parallel Hartree-Fock and hybrid DFT calculations. A 'chain-of-spheres' algorithm for the Hartree-Fock exchange
     Chem. Phys., 2009 356(1-3)98-109
     doi.org/10.1016/j.chemphys.2008.10.036
  3. Stoychev,G.L.; Auer,A.A.; Izsak,R.; Neese,F.
     Self-Consistent Field Calculation of Nuclear Magnetic Resonance Chemical Shielding Constants Using Gauge-Including Atomic Orbitals and Approximate Two-Electron Integrals
     J. Chem. Theory Comput., 2018 14(2)619-637
     doi.org/10.1021/acs.jctc.7b01006
  4. Garcia-Rates,M.; Neese,F.
     Effect of the Solute Cavity on the Solvation Energy and its Derivatives within the Framework of the Gaussian Charge Scheme
     J. Comput. Chem., 2020 41 922-939
     doi.org/10.1002/jcc.26139
  5. Helmich-Paris,B.; de Souza,B.; Neese,F.; Izsák,R.
     An improved chain of spheres for exchange algorithm
     J. Chem. Phys., 2021 155 104109
     doi.org/doi: 10.1063/5.0058766.
  6. Neese,F.
     The SHARK Integral Generation and Digestion System
     J. Comp. Chem., 2022  1-16
     doi.org/10.1002/jcc.26942
  7. Caldeweyher,E.; Bannwarth,C.; Grimme,S.
     Extension of the D3 dispersion coefficient model
     J. Chem. Phys., 2017 147 034112-XXXX
     doi.org/10.1063/1.4993215
  8. Caldeweyher,E.; Ehlert,S.; Hansen,A.; Neugebauer,H.; Spicher,S.; Bannwarth,C.; Grimme,S.
     A generally applicable atomic-charge dependent London dispersion correction
     J. Chem. Phys., 2019 150 154122-XXXX
     doi.org/10.1063/1.5090222
  9. Caldeweyher,E.; Mewes,J.; Ehlert,S.; Grimme,S.
     Extension and evaluation of the D4 London-dispersion model for periodic systems
     Phys. Chem. Chem. Phys., 2020 22(16)8499-8512
     doi.org/10.1039/D0CP00502A

List of suggested additional citations. These are papers that are important in the 'surrounding' of 
of this run, or papers that preceded the highly important papers. If you like your results we are grateful for a citation.

  1. Izsak,R.; Neese,F.
     An overlap fitted chain of spheres exchange method
     J. Chem. Phys., 2011 135 144105
     doi.org/10.1063/1.3646921
  2. Izsak,R.; Hansen,A.; Neese,F.
     The resolution of identity and chain of spheres approximations for the LPNO-CCSD singles Fock term
     Molec. Phys., 2012 110 2413-2417
     doi.org/10.1080/00268976.2012.687466
  3. Neese,F.
     The ORCA program system
     WIRES Comput. Molec. Sci., 2012 2(1)73-78
     doi.org/10.1002/wcms.81
  4. Izsak,R.; Neese,F.; Klopper,W.
     Robust fitting techniques in the chain of spheres approximation to the Fock exchange: The role of the complementary space
     J. Chem. Phys., 2013 139 
     doi.org/10.1063/1.4819264
  5. Neese,F.
     Software update: the ORCA program system, version 4.0
     WIRES Comput. Molec. Sci., 2018 8(1)1-6
     doi.org/10.1002/wcms.1327
  6. Neese,F.; Wennmohs,F.; Becker,U.; Riplinger,C.
     The ORCA quantum chemistry program package
     J. Chem. Phys., 2020 152 Art. No. L224108
     doi.org/10.1063/5.0004608

Timings for individual modules:

Sum of individual times          ...      177.662 sec (=   2.961 min)
Startup calculation              ...        4.648 sec (=   0.077 min)   2.6 %
SCF iterations                   ...       70.524 sec (=   1.175 min)  39.7 %
Property integrals               ...       63.849 sec (=   1.064 min)  35.9 %
SCF Response                     ...       37.365 sec (=   0.623 min)  21.0 %
Property calculations            ...        1.276 sec (=   0.021 min)   0.7 %
                             ****ORCA TERMINATED NORMALLY****
TOTAL RUN TIME: 0 days 0 hours 2 minutes 57 seconds 982 msec
