
                                 *****************
                                 * O   R   C   A *
                                 *****************

                                            #,                                       
                                            ###                                      
                                            ####                                     
                                            #####                                    
                                            ######                                   
                                           ########,                                 
                                     ,,################,,,,,                         
                               ,,#################################,,                 
                          ,,##########################################,,             
                       ,#########################################, ''#####,          
                    ,#############################################,,   '####,        
                  ,##################################################,,,,####,       
                ,###########''''           ''''###############################       
              ,#####''   ,,,,##########,,,,          '''####'''          '####       
            ,##' ,,,,###########################,,,                        '##       
           ' ,,###''''                  '''############,,,                           
         ,,##''                                '''############,,,,        ,,,,,,###''
      ,#''                                            '''#######################'''  
     '                                                          ''''####''''         
             ,#######,   #######,   ,#######,      ##                                
            ,#'     '#,  ##    ##  ,#'     '#,    #''#        ,####,   ,####,        
            ##       ##  ##   ,#'  ##            #'  '#       #'       #'  '#        
            ##       ##  #######   ##           ,######,      #####,   #    #        
            '#,     ,#'  ##    ##  '#,     ,#' ,#      #,     #,   #   #,  ,#        
             '#######'   ##     ##  '#######'  #'      '#     '####' # '####'        



                #########################################################
                #                        -***-                          #
                #          Department of theory and spectroscopy        #
                #                                                       #
                #                      Frank Neese                      #
                #                                                       #
                #     Directorship, Architecture, Infrastructure        #
                #                    SHARK, DRIVERS                     #
                #        Core code/Algorithms in most modules           #
                #                                                       #
                #        Max Planck Institute fuer Kohlenforschung      #
                #                Kaiser Wilhelm Platz 1                 #
                #                 D-45470 Muelheim/Ruhr                 #
                #                      Germany                          #
                #                                                       #
                #                  All rights reserved                  #
                #                        -***-                          #
                #########################################################


                         Program Version 6.0.0  -   RELEASE  -


 With contributions from (in alphabetic order):
   Daniel Aravena         : Magnetic Suceptibility
   Michael Atanasov       : Ab Initio Ligand Field Theory (pilot matlab implementation)
   Alexander A. Auer      : GIAO ZORA, VPT2 properties, NMR spectrum
   Ute Becker             : All parallelization in ORCA, NUMFREQ, NUMCALC
   Giovanni Bistoni       : ED, misc. LED, open-shell LED, HFLD
   Martin Brehm           : Molecular dynamics
   Dmytro Bykov           : pre 5.0 version of the SCF Hessian
   Marcos Casanova-Páez   : Triplet and SCS-CIS(D). UHF-(DLPNO)-IP/EA/STEOM-CCSD. UHF-CVS-IP/STEOM-CCSD
   Vijay G. Chilkuri      : MRCI spin determinant printing, contributions to CSF-ICE
   Pauline Colinet        : FMM embedding
   Dipayan Datta          : RHF DLPNO-CCSD density
   Achintya Kumar Dutta   : EOM-CC, STEOM-CC
   Nicolas Foglia         : Exact transition moments, OPA infrastructure, MCD improvements
   Dmitry Ganyushin       : Spin-Orbit,Spin-Spin,Magnetic field MRCI
   Miquel Garcia          : C-PCM and meta-GGA Hessian, CCSD/C-PCM, Gaussian charge scheme
   Tiago L. C. Gouveia    : GS-ROHF, GS-ROCIS
   Yang Guo               : DLPNO-NEVPT2, F12-NEVPT2, CIM, IAO-localization
   Andreas Hansen         : Spin unrestricted coupled pair/coupled cluster methods
   Ingolf Harden          : AUTO-CI MPn and infrastructure 
   Benjamin Helmich-Paris : MC-RPA, TRAH-(SCF,CASSCF), AVAS, COSX integrals, SCF dyn. polar.
   Lee Huntington         : MR-EOM, pCC
   Robert Izsak           : Overlap fitted RIJCOSX, COSX-SCS-MP3, EOM
   Riya Kayal             : Wick's Theorem for AUTO-CI, AUTO-CI UHF-CCSDT
   Emily Kempfer          : AUTO-CI, RHF CISDT and CCSDT
   Christian Kollmar      : KDIIS, OOCD, Brueckner-CCSD(T), CCSD density, CASPT2, CASPT2-K, improved NEVPT2
   Axel Koslowski         : Symmetry handling
   Simone Kossmann        : Meta GGA functionals, TD-DFT gradient, OOMP2, (MP2 Hessian; deprecated post 5.0)
   Lucas Lang             : DCDCAS
   Marvin Lechner         : AUTO-CI (C++ implementation), FIC-MRCC
   Spencer Leger          : CASSCF response
   Dagmar Lenk            : GEPOL surface, SMD, ORCA-2-JSON
   Dimitrios Liakos       : Extrapolation schemes; Compound Job, initial MDCI parallelization
   Dimitrios Manganas     : Further ROCIS development; embedding schemes. LFT, Crystal Embedding
   Dimitrios Pantazis     : SARC Basis sets
   Anastasios Papadopoulos: AUTO-CI, single reference methods and gradients
   Taras Petrenko         : pre 6.0 DFT Hessian and TD-DFT gradient, (ASA, deprecated), ECA, 1-Electron XAS/XES, NRVS
   Peter Pinski           : DLPNO-MP2, DLPNO-MP2 Gradient
   Christoph Reimann      : Effective Core Potentials
   Marius Retegan         : Local ZFS, SOC
   Christoph Riplinger    : Optimizer, TS searches, QM/MM, DLPNO-CCSD(T), (RO)-DLPNO pert. Triples
   Michael Roemelt        : Original ROCIS implementation
   Masaaki Saitow         : Open-shell DLPNO-CCSD energy and density
   Barbara Sandhoefer     : DKH picture change effects
   Kantharuban Sivalingam : CASSCF convergence/infrastructure, NEVPT2 and variants, FIC-MRCI
   Bernardo de Souza      : ESD, SOC TD-DFT
   Georgi Stoychev        : AutoAux, RI-MP2 NMR, DLPNO-MP2 response, X2C
   Van Anh Tran           : RI-MP2 g-tensors
   Willem Van den Heuvel  : Paramagnetic NMR
   Zikuan Wang            : NOTCH, Electric field optimization 
   Frank Wennmohs         : Technical directorship and infrastructure
   Hang Xu                : AUTO-CI-Response properties 


 We gratefully acknowledge several colleagues who have allowed us to
 interface, adapt or use parts of their codes:
   Stefan Grimme, W. Hujo, H. Kruse, P. Pracht,  : VdW corrections, initial TS optimization,
                  C. Bannwarth, S. Ehlert,         DFT functionals, gCP, sTDA/sTD-DF
                  L. Wittmann, M. Mueller
   Ed Valeev, F. Pavosevic, A. Kumar             : LibInt (2-el integral package), F12 methods
   Garnet Chan, S. Sharma, J. Yang, R. Olivares  : DMRG
   Ulf Ekstrom                                   : XCFun DFT Library
   Mihaly Kallay                                 : mrcc  (arbitrary order and MRCC methods)
   Frank Weinhold                                : gennbo (NPA and NBO analysis)
   Simon Mueller                                 : openCOSMO-RS
   Christopher J. Cramer and Donald G. Truhlar   : smd solvation model
   Lars Goerigk                                  : TD-DFT with DH, B97 family of functionals
   V. Asgeirsson, H. Jonsson                     : NEB implementation
   FAccTs GmbH                                   : IRC, NEB, NEB-TS, DLPNO-Multilevel, CI-OPT
                                                   MM, QMMM, 2- and 3-layer-ONIOM, Crystal-QMMM,
                                                   LR-CPCM, SF, NACMEs, symmetry and pop. for TD-DFT,
                                                   nearIR, NL-DFT gradient (VV10), updates on ESD,
                                                   ML-optimized integration grids, MBIS, APM,
                                                   GOAT, DOCKER, SOLVATOR, interface openCOSMO-RS
   S Lehtola, MJT Oliveira, MAL Marques          : LibXC Library
   Liviu Ungur et al                             : ANISO software


 Your calculation uses the libint2 library for the computation of 2-el integrals
 For citations please refer to: http://libint.valeyev.net

 Your ORCA version has been built with support for libXC version: 6.2.2
 For citations please refer to: https://libxc.gitlab.io

 This ORCA versions uses:
   CBLAS   interface :  Fast vector & matrix operations
   LAPACKE interface :  Fast linear algebra routines
   SCALAPACK package :  Parallel linear algebra routines
   Shared memory     :  Shared parallel matrices
   BLAS/LAPACK       :  OpenBLAS 0.3.27  USE64BITINT DYNAMIC_ARCH NO_AFFINITY Zen SINGLE_THREADED
        Core in use  :  Zen
   Copyright (c) 2011-2014, The OpenBLAS Project


NOTE: MaxCore=8000 MB was set to SCF,MP2,MDCI,CIPSI,MRCI and CIS
      => If you want to overwrite this, your respective input block should be placed after the MaxCore statement
Your calculation utilizes the atom-pairwise dispersion correction
based on EEQ partial charges (D4)


================================================================================

----- Orbital basis set information -----
Your calculation utilizes the basis: pcJ-0
   F. Jensen, Theor. Chem. Acc. 126, 371 (2010).

----- AuxJ basis set information -----
Your calculation utilizes the auxiliary basis: def2/J
   F. Weigend, Phys. Chem. Chem. Phys. 8, 1057 (2006).

================================================================================
                                        WARNINGS
                       Please study these warnings very carefully!
================================================================================


================================================================================
                                       INPUT FILE
================================================================================
NAME = inpJ
|  1> ! pbe0
|  2> ! D4
|  3> ! pcJ-0
|  4> ! def2/J RIJCOSX
|  5> ! DEFGRID2
|  6> ! scfconv7
|  7> ! smallprint printgap noloewdin
|  8> ! NOSOSCF
|  9> %MaxCore 8000
| 10> %output
| 11>        print[P_BondOrder_M] 1
| 12>        print[P_Mayer] 1
| 13>        print[P_basis] 2
| 14> end
| 15> %pal
| 16>     nprocs 4
| 17> end
| 18> ! CPCM(chloroform)
| 19> *xyz 0 1
| 20> C   -4.9948516700   0.2691125800  -0.4723256000
| 21> C   -6.4549825100  -0.0831142500  -0.6337725900
| 22> C   -7.3308117800   0.8538108900   0.2078287100
| 23> H   -6.6356930100  -1.1248959700  -0.3457981000
| 24> H   -6.7526722300   0.0346070900  -1.6863342600
| 25> C   -4.6842755500   1.6895005700  -0.7469765900
| 26> C   -5.5825872600   2.6758093000  -0.0336366400
| 27> C   -7.0664525100   2.3101454800  -0.1784623800
| 28> H   -5.3984482100   3.6906970800  -0.4019415600
| 29> H   -5.3208489800   2.6703719400   1.0354921100
| 30> H   -7.3805396400   2.4529708400  -1.2214103900
| 31> H   -7.6795999000   2.9714964500   0.4446226600
| 32> O   -7.1142155100   0.6284627000   1.6106844300
| 33> H   -8.3883958100   0.6165337100   0.0390536700
| 34> C   -4.0950432300  -0.6497574300  -0.0476671100
| 35> C   -3.7174007000   2.0774760100  -1.5858898400
| 36> H   -3.0938767500   1.3533082000  -2.1034513000
| 37> H   -3.5357899500   3.1318981200  -1.7805064900
| 38> C   -2.7006467900  -0.4071929300   0.2440333000
| 39> H   -4.4762054300  -1.6567218500   0.1176585600
| 40> C   -1.7737631000  -1.3383631500   0.5541430500
| 41> H   -2.3857061800   0.6336023900   0.2164504500
| 42> C   -2.0057023100  -2.8268691000   0.6039805400
| 43> C   -1.0274613000  -3.5775450500  -0.3203064200
| 44> H   -3.0340209900  -3.0970633800   0.3495662900
| 45> H   -1.8274831500  -3.1637950500   1.6374220000
| 46> C    0.4352719500  -3.1823628900  -0.0787614600
| 47> H   -1.2993704300  -3.3781802200  -1.3646470300
| 48> H   -1.1456134400  -4.6573893000  -0.1681336300
| 49> C    0.6405117000  -1.6634151300  -0.1684220300
| 50> H    1.0686091500  -3.7140030000  -0.7961145400
| 51> H    0.7388184000  -3.5154231700   0.9251670500
| 52> C   -0.3445394400  -0.9997353000   0.8478518500
| 53> H   -0.1037913100  -1.4750628500   1.8163455400
| 54> C    0.1222281000   0.4502873300   0.9275199100
| 55> H   -6.1608813200   0.5360592600   1.7488382400
| 56> C    1.6615562400   0.3455810200   0.7975877500
| 57> H   -0.1945766900   0.9339798100   1.8573444200
| 58> H   -0.2906643900   1.0389198000   0.1008479000
| 59> C    1.9900533300  -1.1208206900   0.3802601700
| 60> H    2.1647884500   0.6027352400   1.7350945000
| 61> H    2.0303216700   1.0474722000   0.0396831500
| 62> H    2.2171077900  -1.6997206400   1.2902462100
| 63> C    3.2467543500  -1.2008912600  -0.5211249100
| 64> C    0.3831977400  -1.1523393800  -1.5929987000
| 65> H    0.6336303500  -0.0913381800  -1.6931483700
| 66> H   -0.6678242400  -1.2665945500  -1.8757135700
| 67> H    0.9886117000  -1.7058765500  -2.3189505800
| 68> H    3.0373477700  -0.5852817800  -1.4120885900
| 69> C    3.5705392500  -2.6183033400  -0.9883141400
| 70> C    4.3968415200  -0.5341476500   0.1997365800
| 71> C    5.5213362100  -1.1233197600   0.6084842600
| 72> H    4.2450945800   0.5222695500   0.3994390300
| 73> H    5.6489631900  -2.1875503900   0.3984624100
| 74> C    6.6942240700  -0.5462494800   1.3655710800
| 75> C    6.9014175700  -1.3749716300   2.6474126500
| 76> C    6.7305243500   0.9709591800   1.6621379000
| 77> H    7.5782849000  -0.7385357500   0.7331006900
| 78> H    7.7025896400   1.1242647400   2.1569332700
| 79> C    5.6663652900   1.4636367600   2.6502163600
| 80> C    6.7590344500   1.8268791400   0.3905123900
| 81> H    6.0263214700  -1.3162076100   3.3032626800
| 82> H    7.7750678600  -1.0177950900   3.2048107000
| 83> H    7.0613554300  -2.4307967200   2.4037903000
| 84> H    5.7250534100   0.9308495900   3.6044763500
| 85> H    4.6493914000   1.3444844400   2.2652757100
| 86> H    5.8182327900   2.5290173800   2.8578800900
| 87> H    7.5168932300   1.4597324300  -0.3113134800
| 88> H    7.0058842500   2.8652893900   0.6392086100
| 89> H    5.7979000800   1.8321003400  -0.1308811900
| 90> H    2.8052874200  -2.9891763600  -1.6728933500
| 91> H    3.6333020000  -3.3145983500  -0.1435627500
| 92> H    4.5280851900  -2.6417146100  -1.5196393600
| 93> *
| 94> %eprnmr
| 95>  Nuclei = all C { ssfc }
| 96>  SpinSpinRThresh 8.0
| 97> end
| 98> 
| 99>                          ****END OF INPUT****
================================================================================

                       ****************************
                       * Single Point Calculation *
                       ****************************

---------------------------------
CARTESIAN COORDINATES (ANGSTROEM)
---------------------------------
  C     -4.994852    0.269113   -0.472326
  C     -6.454983   -0.083114   -0.633773
  C     -7.330812    0.853811    0.207829
  H     -6.635693   -1.124896   -0.345798
  H     -6.752672    0.034607   -1.686334
  C     -4.684276    1.689501   -0.746977
  C     -5.582587    2.675809   -0.033637
  C     -7.066453    2.310145   -0.178462
  H     -5.398448    3.690697   -0.401942
  H     -5.320849    2.670372    1.035492
  H     -7.380540    2.452971   -1.221410
  H     -7.679600    2.971496    0.444623
  O     -7.114216    0.628463    1.610684
  H     -8.388396    0.616534    0.039054
  C     -4.095043   -0.649757   -0.047667
  C     -3.717401    2.077476   -1.585890
  H     -3.093877    1.353308   -2.103451
  H     -3.535790    3.131898   -1.780506
  C     -2.700647   -0.407193    0.244033
  H     -4.476205   -1.656722    0.117659
  C     -1.773763   -1.338363    0.554143
  H     -2.385706    0.633602    0.216450
  C     -2.005702   -2.826869    0.603981
  C     -1.027461   -3.577545   -0.320306
  H     -3.034021   -3.097063    0.349566
  H     -1.827483   -3.163795    1.637422
  C      0.435272   -3.182363   -0.078761
  H     -1.299370   -3.378180   -1.364647
  H     -1.145613   -4.657389   -0.168134
  C      0.640512   -1.663415   -0.168422
  H      1.068609   -3.714003   -0.796115
  H      0.738818   -3.515423    0.925167
  C     -0.344539   -0.999735    0.847852
  H     -0.103791   -1.475063    1.816346
  C      0.122228    0.450287    0.927520
  H     -6.160881    0.536059    1.748838
  C      1.661556    0.345581    0.797588
  H     -0.194577    0.933980    1.857344
  H     -0.290664    1.038920    0.100848
  C      1.990053   -1.120821    0.380260
  H      2.164788    0.602735    1.735094
  H      2.030322    1.047472    0.039683
  H      2.217108   -1.699721    1.290246
  C      3.246754   -1.200891   -0.521125
  C      0.383198   -1.152339   -1.592999
  H      0.633630   -0.091338   -1.693148
  H     -0.667824   -1.266595   -1.875714
  H      0.988612   -1.705877   -2.318951
  H      3.037348   -0.585282   -1.412089
  C      3.570539   -2.618303   -0.988314
  C      4.396842   -0.534148    0.199737
  C      5.521336   -1.123320    0.608484
  H      4.245095    0.522270    0.399439
  H      5.648963   -2.187550    0.398462
  C      6.694224   -0.546249    1.365571
  C      6.901418   -1.374972    2.647413
  C      6.730524    0.970959    1.662138
  H      7.578285   -0.738536    0.733101
  H      7.702590    1.124265    2.156933
  C      5.666365    1.463637    2.650216
  C      6.759034    1.826879    0.390512
  H      6.026321   -1.316208    3.303263
  H      7.775068   -1.017795    3.204811
  H      7.061355   -2.430797    2.403790
  H      5.725053    0.930850    3.604476
  H      4.649391    1.344484    2.265276
  H      5.818233    2.529017    2.857880
  H      7.516893    1.459732   -0.311313
  H      7.005884    2.865289    0.639209
  H      5.797900    1.832100   -0.130881
  H      2.805287   -2.989176   -1.672893
  H      3.633302   -3.314598   -0.143563
  H      4.528085   -2.641715   -1.519639

----------------------------
CARTESIAN COORDINATES (A.U.)
----------------------------
  NO LB      ZA    FRAG     MASS         X           Y           Z
   0 C     6.0000    0    12.011   -9.438902    0.508549   -0.892566
   1 C     6.0000    0    12.011  -12.198149   -0.157063   -1.197657
   2 C     6.0000    0    12.011  -13.853227    1.613469    0.392739
   3 H     1.0000    0     1.008  -12.539642   -2.125745   -0.653464
   4 H     1.0000    0     1.008  -12.760701    0.065398   -3.186710
   5 C     6.0000    0    12.011   -8.851998    3.192693   -1.411581
   6 C     6.0000    0    12.011  -10.549561    5.056547   -0.063564
   7 C     6.0000    0    12.011  -13.353660    4.365542   -0.337245
   8 H     1.0000    0     1.008  -10.201589    6.974407   -0.759559
   9 H     1.0000    0     1.008  -10.054947    5.046272    1.956797
  10 H     1.0000    0     1.008  -13.947199    4.635443   -2.308131
  11 H     1.0000    0     1.008  -14.512341    5.615314    0.840215
  12 O     8.0000    0    15.999  -13.443919    1.187622    3.043752
  13 H     1.0000    0     1.008  -15.851771    1.165080    0.073801
  14 C     6.0000    0    12.011   -7.738510   -1.227864   -0.090078
  15 C     6.0000    0    12.011   -7.024869    3.925861   -2.996897
  16 H     1.0000    0     1.008   -5.846580    2.557382   -3.974947
  17 H     1.0000    0     1.008   -6.681675    5.918430   -3.364670
  18 C     6.0000    0    12.011   -5.103483   -0.769483    0.461156
  19 H     1.0000    0     1.008   -8.458802   -3.130751    0.222342
  20 C     6.0000    0    12.011   -3.351926   -2.529140    1.047179
  21 H     1.0000    0     1.008   -4.508331    1.197335    0.409032
  22 C     6.0000    0    12.011   -3.790228   -5.342008    1.141358
  23 C     6.0000    0    12.011   -1.941620   -6.760580   -0.605291
  24 H     1.0000    0     1.008   -5.733469   -5.852602    0.660585
  25 H     1.0000    0     1.008   -3.453443   -5.978706    3.094279
  26 C     6.0000    0    12.011    0.822545   -6.013794   -0.148838
  27 H     1.0000    0     1.008   -2.455454   -6.383835   -2.578809
  28 H     1.0000    0     1.008   -2.164896   -8.801190   -0.317727
  29 C     6.0000    0    12.011    1.210392   -3.143399   -0.318272
  30 H     1.0000    0     1.008    2.019379   -7.018449   -1.504438
  31 H     1.0000    0     1.008    1.396164   -6.643187    1.748312
  32 C     6.0000    0    12.011   -0.651085   -1.889226    1.602208
  33 H     1.0000    0     1.008   -0.196137   -2.787465    3.432396
  34 C     6.0000    0    12.011    0.230978    0.850920    1.752759
  35 H     1.0000    0     1.008  -11.642378    1.013005    3.304825
  36 C     6.0000    0    12.011    3.139886    0.653053    1.507222
  37 H     1.0000    0     1.008   -0.367697    1.764966    3.509872
  38 H     1.0000    0     1.008   -0.549276    1.963274    0.190575
  39 C     6.0000    0    12.011    3.760656   -2.118044    0.718588
  40 H     1.0000    0     1.008    4.090857    1.139005    3.278853
  41 H     1.0000    0     1.008    3.836752    1.979436    0.074990
  42 H     1.0000    0     1.008    4.189727   -3.212007    2.438212
  43 C     6.0000    0    12.011    6.135477   -2.269356   -0.984783
  44 C     6.0000    0    12.011    0.724139   -2.177606   -3.010331
  45 H     1.0000    0     1.008    1.197388   -0.172604   -3.199587
  46 H     1.0000    0     1.008   -1.262005   -2.393517   -3.544585
  47 H     1.0000    0     1.008    1.868205   -3.223639   -4.382182
  48 H     1.0000    0     1.008    5.739755   -1.106022   -2.668461
  49 C     6.0000    0    12.011    6.747341   -4.947876   -1.867643
  50 C     6.0000    0    12.011    8.308826   -1.009393    0.377447
  51 C     6.0000    0    12.011   10.433813   -2.122767    1.149869
  52 H     1.0000    0     1.008    8.022066    0.986946    0.754830
  53 H     1.0000    0     1.008   10.674993   -4.133871    0.752985
  54 C     6.0000    0    12.011   12.650250   -1.032262    2.580555
  55 C     6.0000    0    12.011   13.041789   -2.598320    5.002885
  56 C     6.0000    0    12.011   12.718848    1.834847    3.140985
  57 H     1.0000    0     1.008   14.320883   -1.395630    1.385360
  58 H     1.0000    0     1.008   14.555785    2.124552    4.076013
  59 C     6.0000    0    12.011   10.707879    2.765873    5.008183
  60 C     6.0000    0    12.011   12.772724    3.452301    0.737961
  61 H     1.0000    0     1.008   11.388097   -2.487272    6.242262
  62 H     1.0000    0     1.008   14.692749   -1.923354    6.056215
  63 H     1.0000    0     1.008   13.344028   -4.593540    4.542505
  64 H     1.0000    0     1.008   10.818783    1.759051    6.811473
  65 H     1.0000    0     1.008    8.786076    2.540707    4.280751
  66 H     1.0000    0     1.008   10.994867    4.779150    5.400611
  67 H     1.0000    0     1.008   14.204870    2.758495   -0.588297
  68 H     1.0000    0     1.008   13.239203    5.414612    1.207929
  69 H     1.0000    0     1.008   10.956443    3.462168   -0.247330
  70 H     1.0000    0     1.008    5.301225   -5.648725   -3.161310
  71 H     1.0000    0     1.008    6.865946   -6.263683   -0.271294
  72 H     1.0000    0     1.008    8.556841   -4.992117   -2.871702

--------------------------------
INTERNAL COORDINATES (ANGSTROEM)
--------------------------------
 C      0   0   0     0.000000000000     0.00000000     0.00000000
 C      1   0   0     1.510665727509     0.00000000     0.00000000
 C      2   1   0     1.534013812296   110.53634746     0.00000000
 H      2   1   3     1.095853431727   110.66838665   237.85928412
 H      2   1   3     1.100165238697   109.80578713   118.75970371
 C      1   2   3     1.479659668558   114.00763969   306.37677890
 C      6   1   2     1.512819461622   114.43683870    49.52498657
 C      3   2   1     1.529711432878   110.13662558    56.69339682
 H      7   6   1     1.095241028187   110.22677276   188.80951057
 H      7   6   1     1.100714666105   108.27506826    72.16007924
 H      8   3   2     1.098540104072   108.30728200    64.31362397
 H      8   3   2     1.096161390697   109.52298381   181.31572723
 O      3   2   1     1.437254299716   110.71332012   292.66239893
 H      3   2   1     1.096936395051   109.50754225   177.15534769
 C      1   2   3     1.354367807171   121.16286465   123.31703188
 C      6   1   2     1.337590131031   123.13246114   231.43419079
 H     16   6   1     1.086770904166   121.34145170   359.08782313
 H     16   6   1     1.087503605065   120.94300425   178.46196422
 C     15   1   2     1.445084114417   126.19124343   185.15774828
 H     15   1   2     1.089309204503   116.24929369     3.02703539
 C     19  15   1     1.349947928791   126.37807241   186.21550439
 H     19  15   1     1.087751487967   115.77691225     6.86366233
 C     21  19  15     1.507292120238   125.67077804     2.52837468
 C     23  21  19     1.541030901695   111.31787140   123.89941936
 H     23  21  19     1.093238705491   112.40280623     0.37448688
 H     23  21  19     1.101490996795   107.95040976   242.41314873
 C     24  23  21     1.534308139827   112.66198428    51.43430771
 H     24  23  21     1.097418889993   108.96534304   289.27969551
 H     24  23  21     1.096895660699   109.14547941   173.34251631
 C     27  24  23     1.535371183265   111.90407787   306.20878983
 H     27  24  23     1.094692950946   108.86341260   182.64016273
 H     27  24  23     1.100428121511   109.18651830    66.23103471
 C     21  19  15     1.497869804188   122.97299472   180.19003638
 H     33  21  19     1.105384986987   106.40359684   127.84278201
 C     33  21  19     1.525380137439   121.13943749     5.24049254
 H     13   3   2     0.967714290875   107.62462786    43.22827620
 C     35  33  21     1.548346505196   103.62415672   197.09853325
 H     35  33  21     1.094941692316   112.07029175    75.09689563
 H     35  33  21     1.095607139970   110.85448226   315.46828749
 C     30  27  24     1.554581453002   116.15037158   166.15853190
 H     37  35  33     1.094664266495   111.67127984   249.13163091
 H     37  35  33     1.096840258937   110.42371354   130.61617089
 H     40  30  27     1.102158551621   106.67355729   320.83998867
 C     40  30  27     1.548613512887   118.74989508    81.18000130
 C     30  27  24     1.535196269197   111.16951949   294.21365004
 H     45  30  27     1.094746543705   111.66580280   186.29953083
 H     45  30  27     1.094362437236   111.46533412    66.30670591
 H     45  30  27     1.095415717255   110.73869632   306.21230348
 H     44  40  30     1.103015152522   106.69280381    62.07656166
 C     44  40  30     1.527140937381   113.46009249   303.11272001
 C     44  40  30     1.512246285444   108.47586329   176.41298752
 C     51  44  40     1.333674153962   126.33852100   116.49899981
 H     51  44  40     1.085783359051   114.22727717   297.60782370
 H     52  51  44     1.092238370197   118.03610501     0.96509146
 C     52  51  44     1.510581508298   129.75521911   182.01514555
 C     55  52  51     1.540398441613   108.41988532   123.63802201
 C     55  52  51     1.546347860939   119.28588523   354.73563351
 H     55  52  51     1.103882400891   105.55297084   236.83774723
 H     57  55  52     1.101469918302   104.08904046   183.40289092
 C     57  55  52     1.533448644699   114.99374164    67.71049217
 C     57  55  52     1.533115534267   112.90037708   298.09250370
 H     56  55  52     1.095164670784   111.22278961   297.92343762
 H     56  55  52     1.096144377392   110.79683332   177.34013499
 H     56  55  52     1.095307531771   110.68011380    57.42274606
 H     60  57  55     1.094494674478   111.60351028    56.53274729
 H     60  57  55     1.093897834501   112.54584105   295.33436731
 H     60  57  55     1.096003571064   109.76960312   175.60068857
 H     61  57  55     1.096223603508   110.90988533   311.84310702
 H     61  57  55     1.095938173853   110.17875742   192.47388687
 H     61  57  55     1.093461386328   112.44647122    72.50301746
 H     50  44  40     1.091698609987   111.00986275    67.40571365
 H     50  44  40     1.096526704939   111.45863122   307.08171462
 H     50  44  40     1.095330454329   110.70680749   186.76484570

---------------------------
INTERNAL COORDINATES (A.U.)
---------------------------
 C      0   0   0     0.000000000000     0.00000000     0.00000000
 C      1   0   0     2.854744504893     0.00000000     0.00000000
 C      2   1   0     2.898865990892   110.53634746     0.00000000
 H      2   1   3     2.070862868881   110.66838665   237.85928412
 H      2   1   3     2.079011003198   109.80578713   118.75970371
 C      1   2   3     2.796151544984   114.00763969   306.37677890
 C      6   1   2     2.858814472532   114.43683870    49.52498657
 C      3   2   1     2.890735672068   110.13662558    56.69339682
 H      7   6   1     2.069705593908   110.22677276   188.80951057
 H      7   6   1     2.080049270528   108.27506826    72.16007924
 H      8   3   2     2.075939943825   108.30728200    64.31362397
 H      8   3   2     2.071444826996   109.52298381   181.31572723
 O      3   2   1     2.716017011263   110.71332012   292.66239893
 H      3   2   1     2.072909372977   109.50754225   177.15534769
 C      1   2   3     2.559384240153   121.16286465   123.31703188
 C      6   1   2     2.527679027084   123.13246114   231.43419079
 H     16   6   1     2.053699379187   121.34145170   359.08782313
 H     16   6   1     2.055083983225   120.94300425   178.46196422
 C     15   1   2     2.730813216727   126.19124343   185.15774828
 H     15   1   2     2.058496071671   116.24929369     3.02703539
 C     19  15   1     2.551031880470   126.37807241   186.21550439
 H     19  15   1     2.055552414024   115.77691225     6.86366233
 C     21  19  15     2.848369311067   125.67077804     2.52837468
 C     23  21  19     2.912126368114   111.31787140   123.89941936
 H     23  21  19     2.065921752382   112.40280623     0.37448688
 H     23  21  19     2.081516322923   107.95040976   242.41314873
 C     24  23  21     2.899422189319   112.66198428    51.43430771
 H     24  23  21     2.073821156279   108.96534304   289.27969551
 H     24  23  21     2.072832396208   109.14547941   173.34251631
 C     27  24  23     2.901431050286   111.90407787   306.20878983
 H     27  24  23     2.068669878021   108.86341260   182.64016273
 H     27  24  23     2.079507779721   109.18651830    66.23103471
 C     21  19  15     2.830563714185   122.97299472   180.19003638
 H     33  21  19     2.088874897954   106.40359684   127.84278201
 C     33  21  19     2.882550709883   121.13943749     5.24049254
 H     13   3   2     1.828714985636   107.62462786    43.22827620
 C     35  33  21     2.925950855234   103.62415672   197.09853325
 H     35  33  21     2.069139931090   112.07029175    75.09689563
 H     35  33  21     2.070397444913   110.85448226   315.46828749
 C     30  27  24     2.937733199048   116.15037158   166.15853190
 H     37  35  33     2.068615672265   111.67127984   249.13163091
 H     37  35  33     2.072727702051   110.42371354   130.61617089
 H     40  30  27     2.082777818723   106.67355729   320.83998867
 C     40  30  27     2.926455426646   118.74989508    81.18000130
 C     30  27  24     2.901100510600   111.16951949   294.21365004
 H     45  30  27     2.068771153659   111.66580280   186.29953083
 H     45  30  27     2.068045297627   111.46533412    66.30670591
 H     45  30  27     2.070035708406   110.73869632   306.21230348
 H     44  40  30     2.084396559831   106.69280381    62.07656166
 C     44  40  30     2.885878139550   113.46009249   303.11272001
 C     44  40  30     2.857731326529   108.47586329   176.41298752
 C     51  44  40     2.520278902877   126.33852100   116.49899981
 H     51  44  40     2.051833189375   114.22727717   297.60782370
 H     52  51  44     2.064031392634   118.03610501     0.96509146
 C     52  51  44     2.854585353649   129.75521911   182.01514555
 C     55  52  51     2.910931191767   108.41988532   123.63802201
 C     55  52  51     2.922173964950   119.28588523   354.73563351
 H     55  52  51     2.086035421740   105.55297084   236.83774723
 H     57  55  52     2.081476490342   104.08904046   183.40289092
 C     57  55  52     2.897797978915   114.99374164    67.71049217
 C     57  55  52     2.897168491425   112.90037708   298.09250370
 H     56  55  52     2.069561299327   111.22278961   297.92343762
 H     56  55  52     2.071412676508   110.79683332   177.34013499
 H     56  55  52     2.069831267469   110.68011380    57.42274606
 H     60  57  55     2.068295189799   111.60351028    56.53274729
 H     60  57  55     2.067167325696   112.54584105   295.33436731
 H     60  57  55     2.071146591111   109.76960312   175.60068857
 H     61  57  55     2.071562392170   110.90988533   311.84310702
 H     61  57  55     2.071023008291   110.17875742   192.47388687
 H     61  57  55     2.066342558177   112.44647122    72.50301746
 H     50  44  40     2.063011393657   111.00986275    67.40571365
 H     50  44  40     2.072135170867   111.45863122   307.08171462
 H     50  44  40     2.069874584826   110.70680749   186.76484570

---------------------
BASIS SET INFORMATION
---------------------
There are 3 groups of distinct atoms

 Group   1 Type C   : 7s4p contracted to 4s3p pattern {4111/211}
 Group   2 Type H   : 5s contracted to 3s pattern {311}
 Group   3 Type O   : 7s4p contracted to 4s3p pattern {4111/211}

Atom   0C    basis set group =>   1
Atom   1C    basis set group =>   1
Atom   2C    basis set group =>   1
Atom   3H    basis set group =>   2
Atom   4H    basis set group =>   2
Atom   5C    basis set group =>   1
Atom   6C    basis set group =>   1
Atom   7C    basis set group =>   1
Atom   8H    basis set group =>   2
Atom   9H    basis set group =>   2
Atom  10H    basis set group =>   2
Atom  11H    basis set group =>   2
Atom  12O    basis set group =>   3
Atom  13H    basis set group =>   2
Atom  14C    basis set group =>   1
Atom  15C    basis set group =>   1
Atom  16H    basis set group =>   2
Atom  17H    basis set group =>   2
Atom  18C    basis set group =>   1
Atom  19H    basis set group =>   2
Atom  20C    basis set group =>   1
Atom  21H    basis set group =>   2
Atom  22C    basis set group =>   1
Atom  23C    basis set group =>   1
Atom  24H    basis set group =>   2
Atom  25H    basis set group =>   2
Atom  26C    basis set group =>   1
Atom  27H    basis set group =>   2
Atom  28H    basis set group =>   2
Atom  29C    basis set group =>   1
Atom  30H    basis set group =>   2
Atom  31H    basis set group =>   2
Atom  32C    basis set group =>   1
Atom  33H    basis set group =>   2
Atom  34C    basis set group =>   1
Atom  35H    basis set group =>   2
Atom  36C    basis set group =>   1
Atom  37H    basis set group =>   2
Atom  38H    basis set group =>   2
Atom  39C    basis set group =>   1
Atom  40H    basis set group =>   2
Atom  41H    basis set group =>   2
Atom  42H    basis set group =>   2
Atom  43C    basis set group =>   1
Atom  44C    basis set group =>   1
Atom  45H    basis set group =>   2
Atom  46H    basis set group =>   2
Atom  47H    basis set group =>   2
Atom  48H    basis set group =>   2
Atom  49C    basis set group =>   1
Atom  50C    basis set group =>   1
Atom  51C    basis set group =>   1
Atom  52H    basis set group =>   2
Atom  53H    basis set group =>   2
Atom  54C    basis set group =>   1
Atom  55C    basis set group =>   1
Atom  56C    basis set group =>   1
Atom  57H    basis set group =>   2
Atom  58H    basis set group =>   2
Atom  59C    basis set group =>   1
Atom  60C    basis set group =>   1
Atom  61H    basis set group =>   2
Atom  62H    basis set group =>   2
Atom  63H    basis set group =>   2
Atom  64H    basis set group =>   2
Atom  65H    basis set group =>   2
Atom  66H    basis set group =>   2
Atom  67H    basis set group =>   2
Atom  68H    basis set group =>   2
Atom  69H    basis set group =>   2
Atom  70H    basis set group =>   2
Atom  71H    basis set group =>   2
Atom  72H    basis set group =>   2

-------------------------
BASIS SET IN INPUT FORMAT
-------------------------

 # Basis set for element : H 
 NewGTO H 
 S 3 
   1    1357.7500000000      0.0012928364
   2      54.3100000000      0.0588280685
   3       4.3448000000      0.9761499708
 S 1 
   1       0.6604910000      1.0000000000
 S 1 
   1       0.1366870000      1.0000000000
  end;

 # Basis set for element : C 
 NewGTO C 
 S 4 
   1  139534.0000000000      0.0001655246
   2    5581.3600000000      0.0074486101
   3     446.5090000000      0.1285821065
   4      67.4620000000      0.9218029311
 S 1 
   1      15.0674000000      1.0000000000
 S 1 
   1       3.9387600000      1.0000000000
 S 1 
   1       0.2999150000      1.0000000000
 P 2 
   1      28.3900000000      0.0816325586
   2       4.3676900000      0.9660360576
 P 1 
   1       0.8698170000      1.0000000000
 P 1 
   1       0.1889340000      1.0000000000
  end;

 # Basis set for element : O 
 NewGTO O 
 S 4 
   1  253789.0000000000      0.0001641076
   2   10151.6000000000      0.0074010921
   3     812.1250000000      0.1277711901
   4     122.6930000000      0.9223372164
 S 1 
   1      27.5608000000      1.0000000000
 S 1 
   1       7.3172600000      1.0000000000
 S 1 
   1       0.5792400000      1.0000000000
 P 2 
   1      53.4157000000      0.0793786106
   2       8.2177900000      0.9670506337
 P 1 
   1       1.6754400000      1.0000000000
 P 1 
   1       0.3506720000      1.0000000000
  end;

---------------------------------
AUXILIARY/J BASIS SET INFORMATION
---------------------------------
There are 3 groups of distinct atoms

 Group   1 Type C   : 12s5p4d2f1g contracted to 6s4p3d1f1g pattern {711111/2111/211/2/1}
 Group   2 Type H   : 5s2p1d contracted to 3s1p1d pattern {311/2/1}
 Group   3 Type O   : 12s5p4d2f1g contracted to 6s4p3d1f1g pattern {711111/2111/211/2/1}

Atom   0C    basis set group =>   1
Atom   1C    basis set group =>   1
Atom   2C    basis set group =>   1
Atom   3H    basis set group =>   2
Atom   4H    basis set group =>   2
Atom   5C    basis set group =>   1
Atom   6C    basis set group =>   1
Atom   7C    basis set group =>   1
Atom   8H    basis set group =>   2
Atom   9H    basis set group =>   2
Atom  10H    basis set group =>   2
Atom  11H    basis set group =>   2
Atom  12O    basis set group =>   3
Atom  13H    basis set group =>   2
Atom  14C    basis set group =>   1
Atom  15C    basis set group =>   1
Atom  16H    basis set group =>   2
Atom  17H    basis set group =>   2
Atom  18C    basis set group =>   1
Atom  19H    basis set group =>   2
Atom  20C    basis set group =>   1
Atom  21H    basis set group =>   2
Atom  22C    basis set group =>   1
Atom  23C    basis set group =>   1
Atom  24H    basis set group =>   2
Atom  25H    basis set group =>   2
Atom  26C    basis set group =>   1
Atom  27H    basis set group =>   2
Atom  28H    basis set group =>   2
Atom  29C    basis set group =>   1
Atom  30H    basis set group =>   2
Atom  31H    basis set group =>   2
Atom  32C    basis set group =>   1
Atom  33H    basis set group =>   2
Atom  34C    basis set group =>   1
Atom  35H    basis set group =>   2
Atom  36C    basis set group =>   1
Atom  37H    basis set group =>   2
Atom  38H    basis set group =>   2
Atom  39C    basis set group =>   1
Atom  40H    basis set group =>   2
Atom  41H    basis set group =>   2
Atom  42H    basis set group =>   2
Atom  43C    basis set group =>   1
Atom  44C    basis set group =>   1
Atom  45H    basis set group =>   2
Atom  46H    basis set group =>   2
Atom  47H    basis set group =>   2
Atom  48H    basis set group =>   2
Atom  49C    basis set group =>   1
Atom  50C    basis set group =>   1
Atom  51C    basis set group =>   1
Atom  52H    basis set group =>   2
Atom  53H    basis set group =>   2
Atom  54C    basis set group =>   1
Atom  55C    basis set group =>   1
Atom  56C    basis set group =>   1
Atom  57H    basis set group =>   2
Atom  58H    basis set group =>   2
Atom  59C    basis set group =>   1
Atom  60C    basis set group =>   1
Atom  61H    basis set group =>   2
Atom  62H    basis set group =>   2
Atom  63H    basis set group =>   2
Atom  64H    basis set group =>   2
Atom  65H    basis set group =>   2
Atom  66H    basis set group =>   2
Atom  67H    basis set group =>   2
Atom  68H    basis set group =>   2
Atom  69H    basis set group =>   2
Atom  70H    basis set group =>   2
Atom  71H    basis set group =>   2
Atom  72H    basis set group =>   2

-------------------------------------
AUXILIARY/J BASIS SET IN INPUT FORMAT
-------------------------------------

 # Auxiliary/J basis set for element : H 
 NewAuxJGTO H 
 S 3 
   1      15.6752927000      0.1007184237
   2       3.6063578000      0.3404257499
   3       1.2080016000      0.6491996172
 S 1 
   1       0.4726794000      1.0000000000
 S 1 
   1       0.2018100000      1.0000000000
 P 2 
   1       2.0281365000      0.5596620919
   2       0.5358730000      0.5596620919
 D 1 
   1       2.2165124000      1.0000000000
  end;

 # Auxiliary/J basis set for element : C 
 NewAuxJGTO C 
 S 7 
   1    1861.0916331000      0.0134602335
   2     642.9939764000      0.0299160374
   3     235.1105725000      0.1008649584
   4      90.7028894000      0.2370970548
   5      36.7794552000      0.3924037254
   6      15.6046273000      0.3195862154
   7       6.8907294000      0.0530104441
 S 1 
   1       3.1478850000     -1.0000000000
 S 1 
   1       1.4777287000      1.0000000000
 S 1 
   1       0.7076466000      1.0000000000
 S 1 
   1       0.3430122000      1.0000000000
 S 1 
   1       0.1669453000      1.0000000000
 P 2 
   1      13.5472892000     -0.6769313712
   2       5.4669419000     -0.3779500978
 P 1 
   1       2.1751721000      1.0000000000
 P 1 
   1       0.8582194000      1.0000000000
 P 1 
   1       0.3376720000      1.0000000000
 D 2 
   1       5.9287253000     -0.3533329857
   2       1.9809209000     -0.7456525731
 D 1 
   1       0.8055417000     -1.0000000000
 D 1 
   1       0.3531244000     -1.0000000000
 F 2 
   1       1.6755626000      0.6311076882
   2       0.5997536000      0.4968166032
 G 1 
   1       1.0024600000     -1.0000000000
  end;

 # Auxiliary/J basis set for element : O 
 NewAuxJGTO O 
 S 7 
   1    2876.8216605000      0.0168151159
   2    1004.7443032000      0.0340137548
   3     369.7579954000      0.1194951309
   4     142.9442404000      0.2664627624
   5      57.8366425000      0.4202764046
   6      24.3864983000      0.2765077335
   7      10.6622662000      0.0057008815
 S 1 
   1       4.8070437000     -1.0000000000
 S 1 
   1       2.2210770000      1.0000000000
 S 1 
   1       1.0447795000      1.0000000000
 S 1 
   1       0.4968425000      1.0000000000
 S 1 
   1       0.2371384000      1.0000000000
 P 2 
   1      64.2613382000     -0.2731534179
   2      16.3006076000     -0.8168011598
 P 1 
   1       4.3550542000      1.0000000000
 P 1 
   1       1.2019554000      1.0000000000
 P 1 
   1       0.3354196000      1.0000000000
 D 2 
   1       9.2146611000     -0.4661230638
   2       2.8435251000     -0.6600908911
 D 1 
   1       0.9955759000     -1.0000000000
 D 1 
   1       0.3649441000     -1.0000000000
 F 2 
   1       2.6420115000      0.5931563945
   2       0.7345613000      0.5931563945
 G 1 
   1       1.3931000000     -1.0000000000
  end;



           ************************************************************
           *        Program running with 4 parallel MPI-processes     *
           *              working on a common directory               *
           ************************************************************
------------------------------------------------------------------------------
                             ORCA STARTUP CALCULATIONS
                           -- RI-GTO INTEGRALS CHOSEN --
------------------------------------------------------------------------------
------------------------------------------------------------------------------
                   ___                                                        
                  /   \      - P O W E R E D   B Y -                         
                 /     \                                                     
                 |  |  |   _    _      __       _____    __    __             
                 |  |  |  | |  | |    /  \     |  _  \  |  |  /  |          
                  \  \/   | |  | |   /    \    | | | |  |  | /  /          
                 / \  \   | |__| |  /  /\  \   | |_| |  |  |/  /          
                |  |  |   |  __  | /  /__\  \  |    /   |      \           
                |  |  |   | |  | | |   __   |  |    \   |  |\   \          
                \     /   | |  | | |  |  |  |  | |\  \  |  | \   \       
                 \___/    |_|  |_| |__|  |__|  |_| \__\ |__|  \__/        
                                                                              
                      - O R C A' S   B I G   F R I E N D -                    
                                      &                                       
                       - I N T E G R A L  F E E D E R -                       
                                                                              
 v1 FN, 2020, v2 2021, v3 2022-2024                                           
------------------------------------------------------------------------------


----------------------
SHARK INTEGRAL PACKAGE
----------------------

Number of atoms                             ...     73
Number of basis functions                   ...    509
Number of shells                            ...    335
Maximum angular momentum                    ...      1
Integral batch strategy                     ... SHARK/LIBINT Hybrid
RI-J (if used) integral strategy            ... SPLIT-RIJ (Revised 2003 algorithm where possible)
Printlevel                                  ...      1
Contraction scheme used                     ... SEGMENTED contraction
Prescreening option                         ... SCHWARTZ
   Thresh                                   ... 3.000e-11
   Tcut                                     ... 1.000e-12
   Tpresel                                  ... 1.000e-12 
Coulomb Range Separation                    ... NOT USED
Exchange Range Separation                   ... NOT USED
Multipole approximations                    ... NOT USED
Finite Nucleus Model                        ... NOT USED
CABS basis                                  ... NOT available
Auxiliary Coulomb fitting basis             ... AVAILABLE
   # of basis functions in Aux-J            ...   1905
   # of shells in Aux-J                     ...    655
   Maximum angular momentum in Aux-J        ...      4
Auxiliary J/K fitting basis                 ... NOT available
Auxiliary Correlation fitting basis         ... NOT available
Auxiliary 'external' fitting basis          ... NOT available

Checking pre-screening integrals            ... done (  0.0 sec) Dimension = 335
Check shell pair data                       ... done (  0.0 sec)
Shell pair information
Shell pair cut-off parameter TPreSel        ...   1.0e-12
Total number of shell pairs                 ...     56280
Shell pairs after pre-screening             ...     22117
Total number of primitive shell pairs       ...    145865
Primitive shell pairs kept                  ...     37969
          la=0 lb=0:  11137 shell pairs
          la=1 lb=0:   9088 shell pairs
          la=1 lb=1:   1892 shell pairs

Calculating one electron integrals          ... done (  0.0 sec)
Calculating RI/J V-Matrix + Cholesky decomp.... done (  0.2 sec)
Calculating Nuclear repulsion               ... done (  0.0 sec) ENN=   2801.070387844825 Eh

Diagonalization of the overlap matrix:
Smallest eigenvalue                        ... 7.573e-03
Time for diagonalization                   ...    0.032 sec
Threshold for overlap eigenvalues          ... 1.000e-07
Number of eigenvalues below threshold      ... 0
Time for construction of square roots      ...    0.018 sec
Total time needed                          ...    0.053 sec

-------------------
DFT GRID GENERATION
-------------------

General Integration Accuracy     IntAcc      ... 4.388
Radial Grid Type                 RadialGrid  ... OptM3 with GC (2021)
Angular Grid (max. ang.)         AngularGrid ... 4 (Lebedev-302)
Angular grid pruning method      GridPruning ... 4 (adaptive)
Weight generation scheme         WeightScheme... mBecke (2022)
Basis function cutoff            BFCut       ... 1.0000e-11
Integration weight cutoff        WCut        ... 1.0000e-14
Partially contracted basis set               ... off
Rotationally invariant grid construction     ... off
Angular grids for H and He will be reduced by one unit

Total number of grid points                  ...   309750
Total number of batches                      ...     4874
Average number of points per batch           ...       63
Average number of grid points per atom       ...     4243

--------------------
COSX GRID GENERATION
--------------------

GRIDX 1
-------
General Integration Accuracy     IntAcc      ... 3.816
Radial Grid Type                 RadialGrid  ... OptM3 with GC (2021)
Angular Grid (max. ang.)         AngularGrid ... 1 (Lebedev-50)
Angular grid pruning method      GridPruning ... 4 (adaptive)
Weight generation scheme         WeightScheme... mBecke (2022)
Basis function cutoff            BFCut       ... 1.0000e-11
Integration weight cutoff        WCut        ... 1.0000e-14
Partially contracted basis set               ... on
Rotationally invariant grid construction     ... off
Angular grids for H and He will be reduced by one unit

Total number of grid points                  ...    39393
Total number of batches                      ...      354
Average number of points per batch           ...      111
Average number of grid points per atom       ...      540
UseSFitting                                  ... on

GRIDX 2
-------
General Integration Accuracy     IntAcc      ... 4.020
Radial Grid Type                 RadialGrid  ... OptM3 with GC (2021)
Angular Grid (max. ang.)         AngularGrid ... 2 (Lebedev-110)
Angular grid pruning method      GridPruning ... 4 (adaptive)
Weight generation scheme         WeightScheme... mBecke (2022)
Basis function cutoff            BFCut       ... 1.0000e-11
Integration weight cutoff        WCut        ... 1.0000e-14
Partially contracted basis set               ... on
Rotationally invariant grid construction     ... off
Angular grids for H and He will be reduced by one unit

Total number of grid points                  ...    81308
Total number of batches                      ...      677
Average number of points per batch           ...      120
Average number of grid points per atom       ...     1114
UseSFitting                                  ... on

GRIDX 3
-------
General Integration Accuracy     IntAcc      ... 4.338
Radial Grid Type                 RadialGrid  ... OptM3 with GC (2021)
Angular Grid (max. ang.)         AngularGrid ... 3 (Lebedev-194)
Angular grid pruning method      GridPruning ... 4 (adaptive)
Weight generation scheme         WeightScheme... mBecke (2022)
Basis function cutoff            BFCut       ... 1.0000e-11
Integration weight cutoff        WCut        ... 1.0000e-14
Partially contracted basis set               ... on
Rotationally invariant grid construction     ... off
Angular grids for H and He will be reduced by one unit

Total number of grid points                  ...   176055
Total number of batches                      ...     1418
Average number of points per batch           ...      124
Average number of grid points per atom       ...     2412
UseSFitting                                  ... on
Initializing property integral containers    ... done (  0.0 sec)

SHARK setup successfully completed in   3.9 seconds

Maximum memory used throughout the entire STARTUP-calculation: 85.8 MB


           ************************************************************
           *        Program running with 4 parallel MPI-processes     *
           *              working on a common directory               *
           ************************************************************
-------------------------------------------------------------------------------
                                 ORCA GUESS
                   Start orbitals & Density for SCF / CASSCF
-------------------------------------------------------------------------------

------------
SCF SETTINGS
------------
Hamiltonian:
 Density Functional     Method          .... DFT(GTOs)
 Exchange Functional    Exchange        .... PBE
   PBE kappa parameter   XKappa         ....  0.804000
   PBE mue parameter    XMuePBE         ....  0.219520
 Correlation Functional Correlation     .... PBE
   PBE beta parameter  CBetaPBE         ....  0.066725
 LDA part of GGA corr.  LDAOpt          .... PW91-LDA
 Gradients option       PostSCFGGA      .... off
 Hybrid DFT is turned on
   Fraction HF Exchange ScalHFX         ....  0.250000
   Scaling of DF-GGA-X  ScalDFX         ....  0.750000
   Scaling of DF-GGA-C  ScalDFC         ....  1.000000
   Scaling of DF-LDA-C  ScalLDAC        ....  1.000000
   Perturbative correction              ....  0.000000
   NL short-range parameter             ....  6.900000
 RI-approximation to the Coulomb term is turned on
   Number of AuxJ basis functions       .... 1905
   RIJ-COSX (HFX calculated with COS-X)).... on


General Settings:
 Integral files         IntName         .... inpJ
 Hartree-Fock type      HFTyp           .... RHF
 Total Charge           Charge          ....    0
 Multiplicity           Mult            ....    1
 Number of Electrons    NEL             ....  220
 Basis Dimension        Dim             ....  509
 Nuclear Repulsion      ENuc            ....   2801.0703878448 Eh

Convergence Acceleration:
 AO-DIIS                CNVDIIS         .... on
   Start iteration      DIISMaxIt       ....    12
   Startup error        DIISStart       ....  0.200000
   # of expansion vecs  DIISMaxEq       ....     5
   Bias factor          DIISBfac        ....   1.050
   Max. coefficient     DIISMaxC        ....  10.000
 MO-DIIS                CNVKDIIS        .... off
 Trust-Rad. Augm. Hess. CNVTRAH         .... auto
   Auto Start mean grad. ratio tolernc. ....  1.125000
   Auto Start start iteration           ....    50
   Auto Start num. interpolation iter.  ....    10
   Max. Number of Micro iterations      ....    24
   Max. Number of Macro iterations      .... Maxiter - #DIIS iter
   Number of Davidson start vectors     ....     2
   Converg. threshold    (grad. norm)   ....   1.000e-04
   Grad. Scal. Fac. for Micro threshold ....   0.100
   Minimum threshold for Micro iter.    ....   1.000e-02
   NR start threshold (gradient norm)   ....   1.000e-04
   Initial trust radius                 ....   0.400
   Minimum AH scaling param. (alpha)    ....   1.000
   Maximum AH scaling param. (alpha)    .... 1000.000
   Quad. conv. algorithm                .... NR
   White noise on init. David. guess    .... on
   Maximum white noise                  ....   0.010
   Pseudo random numbers                .... off
   Inactive MOs                         .... canonical
   Orbital update algorithm             .... Taylor
   Preconditioner                       .... Diag
   Full preconditioner red. dimension   ....   250
 SOSCF                  CNVSOSCF        .... off
 Level Shifting         CNVShift        .... on
   Level shift para.    LevelShift      ....    0.2500
   Turn off err/grad.   ShiftErr        ....    0.0010
 Zerner damping         CNVZerner       .... off
 Static damping         CNVDamp         .... on
   Fraction old density DampFac         ....    0.7000
   Max. Damping (<1)    DampMax         ....    0.9800
   Min. Damping (>=0)   DampMin         ....    0.0000
   Turn off err/grad.   DampErr         ....    0.1000

SCF Procedure:
 Maximum # iterations   MaxIter         ....   125
 SCF integral mode      SCFMode         .... Direct
   Integral package                     .... SHARK and LIBINT hybrid scheme
 Reset frequency        DirectResetFreq ....    20
 Integral Threshold     Thresh          ....  3.000e-11 Eh
 Primitive CutOff       TCut            ....  1.000e-12 Eh

Convergence Tolerance:
 Convergence Check Mode ConvCheckMode   .... Total+1el-Energy
 Convergence forced     ConvForced      .... 0
 Energy Change          TolE            ....  1.000e-07 Eh
 1-El. energy change                    ....  1.000e-04 Eh
 DIIS Error             TolErr          ....  1.000e-07

------------------------------
INITIAL GUESS: MODEL POTENTIAL
------------------------------
Loading Hartree-Fock densities                     ... done
Calculating cut-offs                               ... done
Initializing the effective Hamiltonian             ... done
Setting up the integral package (SHARK)            ... done
Starting the Coulomb interaction                   ... done (   0.4 sec)
Making the grid                                    ... done (   0.4 sec)
Mapping shells                                     ... done
Starting the XC term evaluation                    ... done (   0.1 sec)
  promolecular density results
     # of electrons  =    219.976241274
     EX              =   -164.432792300
     EC              =     -7.329685800
     EX+EC           =   -171.762478100
Transforming the Hamiltonian                       ... done (   0.0 sec)
Diagonalizing the Hamiltonian                      ... done (   0.0 sec)
Back transforming the eigenvectors                 ... done (   0.0 sec)
Now organizing SCF variables                       ... done
                      ------------------
                      INITIAL GUESS DONE (   1.0 sec)
                      ------------------
             **** ENERGY FILE WAS UPDATED (inpJ.en.tmp) ****
Finished Guess after   1.2 sec
Maximum memory used throughout the entire GUESS-calculation: 46.1 MB


           ************************************************************
           *        Program running with 4 parallel MPI-processes     *
           *              working on a common directory               *
           ************************************************************

-------------------------------------------------------------------------------------------
                                      ORCA LEAN-SCF
                              memory conserving SCF solver
-------------------------------------------------------------------------------------------

--------------------
CPCM SOLVATION MODEL
--------------------
CPCM parameters:
  Epsilon                                         ...       4.8030
  Refrac                                          ...       1.4459
  Rsolv                                           ...       1.3000
  Surface type                                    ... GAUSSIAN VDW
  Discretization scheme                           ... Constant charge density
    Threshold for H atoms                         ...       5.0000 (charges/Ang^2)
    Threshold for non-H atoms                     ...       5.0000 (charges/Ang^2)
  Epsilon function type                           ...         CPCM
Solvent:                                          ... CHLOROFORM
Radii:
  Scheme                                          ... Element-dependent radii
  Radius for C  used is    3.8550 Bohr (=   2.0400 Ang.)
  Radius for H  used is    2.4944 Bohr (=   1.3200 Ang.)
  Radius for O  used is    3.4469 Bohr (=   1.8240 Ang.)
Calculating surface                               ...        done! (  0.0s)
Cavity surface points                             ...         5307
Cavity Volume                                     ...    3604.6747
Cavity Surface-area                               ...    1773.8265
Calculating surface distance matrix               ...        done! (  0.2s)
Performing Cholesky decomposition & store         ...        done! (  1.1s)
Overall time for CPCM initialization              ...                 1.3s

----------------------------------------D-I-I-S--------------------------------------------
Iteration    Energy (Eh)           Delta-E    RMSDP     MaxDP     DIISErr   Damp  Time(sec)
-------------------------------------------------------------------------------------------
               ***  Starting incremental Fock matrix formation  ***
    1    -1165.0060407915457290     0.00e+00  1.51e-03  9.73e-02  1.97e-01  0.700   6.8

  HOMO= 109 E= -3.986 eV LUMO=  7.689 eV gap=  11.676 eV
    2    -1165.2245428660962716    -2.19e-01  1.11e-03  6.53e-02  9.53e-02  0.700   3.8

  HOMO= 109 E= -4.852 eV LUMO=  7.006 eV gap=  11.859 eV
                               ***Turning on AO-DIIS***
    3    -1165.3251986955187931    -1.01e-01  4.54e-04  2.21e-02  3.76e-02  0.700   3.9

  HOMO= 109 E= -5.854 eV LUMO=  6.079 eV gap=  11.933 eV
    4    -1165.3830027744297695    -5.78e-02  7.65e-04  3.16e-02  2.69e-02  0.000   3.7

  HOMO= 109 E= -6.011 eV LUMO=  5.924 eV gap=  11.935 eV
    5    -1165.5054692105636605    -1.22e-01  1.05e-04  6.20e-03  3.03e-03  0.000   3.8

  HOMO= 109 E= -6.051 eV LUMO=  5.888 eV gap=  11.938 eV
    6    -1165.5056841646228349    -2.15e-04  3.12e-05  1.94e-03  9.01e-04  0.000   3.5

  HOMO= 109 E= -6.017 eV LUMO=  5.926 eV gap=  11.943 eV
               *** Restarting incremental Fock matrix formation ***
                             ****Resetting DIIS****
    7    -1165.5057012867810045    -1.71e-05  1.53e-05  1.07e-03  3.13e-04  0.000   6.8

  HOMO= 109 E= -6.012 eV LUMO= -0.871 eV gap=   5.141 eV
    8    -1165.5057024875181924    -1.20e-06  7.22e-06  6.82e-04  4.37e-04  0.000   4.1

  HOMO= 109 E= -6.014 eV LUMO= -0.872 eV gap=   5.142 eV
    9    -1165.5057035293139052    -1.04e-06  2.69e-06  2.53e-04  1.85e-04  0.000   3.3

  HOMO= 109 E= -6.014 eV LUMO= -0.872 eV gap=   5.142 eV
   10    -1165.5057037238816520    -1.95e-07  9.01e-07  8.65e-05  5.05e-05  0.000   3.3

  HOMO= 109 E= -6.014 eV LUMO= -0.872 eV gap=   5.142 eV
   11    -1165.5057037368196688    -1.29e-08  2.68e-07  2.55e-05  1.53e-05  0.000   2.7
                 **** Energy Check signals convergence ****

  HOMO= 109 E= -6.014 eV LUMO= -0.872 eV gap=   5.142 eV

               *****************************************************
               *                     SUCCESS                       *
               *           SCF CONVERGED AFTER  11 CYCLES          *
               *****************************************************

Recomputing exchange energy using gridx3       ... done (    8.319 sec)
Old exchange energy                            :    -42.067376900 Eh
New exchange energy                            :    -42.067349979 Eh
Exchange energy change after final integration :      0.000026921 Eh
Total energy after final integration           :  -1165.505676816 Eh
             **** ENERGY FILE WAS UPDATED (inpJ.en.tmp) ****

----------------
TOTAL SCF ENERGY
----------------

Total Energy       :      -1165.50567681588609 Eh          -31715.02183 eV

Components:
Nuclear Repulsion  :       2801.07038784482484 Eh           76221.00025 eV
Electronic Energy  :      -3966.56220189869828 Eh         -107935.64486 eV
One Electron Energy:      -7143.86466252871833 Eh         -194394.44029 eV
Two Electron Energy:       3177.30246063002005 Eh           86458.79543 eV
CPCM Dielectric    :         -0.01388968294610 Eh              -0.37796 eV

Virial components:
Potential Energy   :      -2322.39598311458121 Eh          -63195.60750 eV
Kinetic Energy     :       1156.89030629869490 Eh           31480.58568 eV
Virial Ratio       :          2.00744700726619

DFT components:
N(Alpha)           :      110.000229948639 electrons
N(Beta)            :      110.000229948639 electrons
N(Total)           :      220.000459897279 electrons
E(X)               :     -125.745599688230 Eh       
E(C)               :       -7.328689227315 Eh       
E(XC)              :     -133.074288915544 Eh       

CPCM Solvation Model Properties:
Surface-charge          :         -0.03305691779702
Corrected charge        :         -0.00000000000000
Outlying charge corr.   :          0.00003859142273 Eh               0.00105 eV
Free-energy (cav+disp)  :  This term is not implemented in the current solvation scheme

---------------
SCF CONVERGENCE
---------------

  Last Energy change         ...    1.2938e-08  Tolerance :   1.0000e-07
  Last MAX-Density change    ...    2.5539e-05  Tolerance :   1.0000e-05
  Last RMS-Density change    ...    2.6765e-07  Tolerance :   1.0000e-06
  Last DIIS Error            ...    1.5310e-05  Tolerance :   1.0000e-07


----------------
ORBITAL ENERGIES
----------------

  NO   OCC          E(Eh)            E(eV) 
   0   2.0000     -19.212719      -522.8047 
   1   2.0000     -10.300567      -280.2927 
   2   2.0000     -10.270701      -279.4800 
   3   2.0000     -10.268479      -279.4195 
   4   2.0000     -10.263992      -279.2974 
   5   2.0000     -10.257795      -279.1288 
   6   2.0000     -10.257624      -279.1241 
   7   2.0000     -10.252657      -278.9890 
   8   2.0000     -10.252118      -278.9743 
   9   2.0000     -10.249092      -278.8920 
  10   2.0000     -10.248402      -278.8732 
  11   2.0000     -10.247669      -278.8533 
  12   2.0000     -10.247167      -278.8396 
  13   2.0000     -10.246868      -278.8314 
  14   2.0000     -10.244972      -278.7799 
  15   2.0000     -10.243363      -278.7361 
  16   2.0000     -10.243004      -278.7263 
  17   2.0000     -10.241961      -278.6979 
  18   2.0000     -10.241687      -278.6905 
  19   2.0000     -10.241029      -278.6726 
  20   2.0000     -10.240332      -278.6536 
  21   2.0000     -10.236157      -278.5400 
  22   2.0000     -10.235705      -278.5277 
  23   2.0000     -10.234393      -278.4920 
  24   2.0000     -10.227592      -278.3069 
  25   2.0000     -10.224423      -278.2207 
  26   2.0000     -10.223347      -278.1914 
  27   2.0000     -10.223047      -278.1833 
  28   2.0000     -10.221442      -278.1396 
  29   2.0000      -1.043457       -28.3939 
  30   2.0000      -0.902175       -24.5494 
  31   2.0000      -0.882355       -24.0101 
  32   2.0000      -0.858795       -23.3690 
  33   2.0000      -0.845911       -23.0184 
  34   2.0000      -0.822255       -22.3747 
  35   2.0000      -0.814739       -22.1702 
  36   2.0000      -0.796021       -21.6608 
  37   2.0000      -0.795178       -21.6379 
  38   2.0000      -0.775967       -21.1151 
  39   2.0000      -0.759331       -20.6625 
  40   2.0000      -0.743335       -20.2272 
  41   2.0000      -0.734995       -20.0002 
  42   2.0000      -0.715885       -19.4802 
  43   2.0000      -0.703494       -19.1431 
  44   2.0000      -0.703136       -19.1333 
  45   2.0000      -0.696568       -18.9546 
  46   2.0000      -0.671245       -18.2655 
  47   2.0000      -0.659986       -17.9591 
  48   2.0000      -0.636668       -17.3246 
  49   2.0000      -0.622731       -16.9454 
  50   2.0000      -0.614285       -16.7155 
  51   2.0000      -0.608097       -16.5472 
  52   2.0000      -0.598057       -16.2740 
  53   2.0000      -0.585317       -15.9273 
  54   2.0000      -0.557763       -15.1775 
  55   2.0000      -0.541872       -14.7451 
  56   2.0000      -0.538342       -14.6490 
  57   2.0000      -0.529729       -14.4147 
  58   2.0000      -0.515523       -14.0281 
  59   2.0000      -0.509507       -13.8644 
  60   2.0000      -0.502985       -13.6869 
  61   2.0000      -0.492984       -13.4148 
  62   2.0000      -0.481465       -13.1013 
  63   2.0000      -0.478537       -13.0217 
  64   2.0000      -0.472212       -12.8495 
  65   2.0000      -0.467831       -12.7303 
  66   2.0000      -0.466074       -12.6825 
  67   2.0000      -0.461609       -12.5610 
  68   2.0000      -0.459482       -12.5031 
  69   2.0000      -0.452044       -12.3007 
  70   2.0000      -0.449145       -12.2219 
  71   2.0000      -0.442594       -12.0436 
  72   2.0000      -0.436400       -11.8751 
  73   2.0000      -0.432942       -11.7810 
  74   2.0000      -0.432142       -11.7592 
  75   2.0000      -0.427607       -11.6358 
  76   2.0000      -0.419554       -11.4167 
  77   2.0000      -0.413525       -11.2526 
  78   2.0000      -0.413030       -11.2391 
  79   2.0000      -0.403120       -10.9695 
  80   2.0000      -0.400306       -10.8929 
  81   2.0000      -0.398788       -10.8516 
  82   2.0000      -0.395932       -10.7738 
  83   2.0000      -0.389779       -10.6064 
  84   2.0000      -0.382539       -10.4094 
  85   2.0000      -0.380759       -10.3610 
  86   2.0000      -0.376887       -10.2556 
  87   2.0000      -0.374496       -10.1906 
  88   2.0000      -0.370680       -10.0867 
  89   2.0000      -0.365858        -9.9555 
  90   2.0000      -0.361900        -9.8478 
  91   2.0000      -0.360440        -9.8081 
  92   2.0000      -0.355456        -9.6724 
  93   2.0000      -0.345626        -9.4049 
  94   2.0000      -0.342270        -9.3136 
  95   2.0000      -0.339883        -9.2487 
  96   2.0000      -0.338562        -9.2127 
  97   2.0000      -0.335153        -9.1200 
  98   2.0000      -0.332118        -9.0374 
  99   2.0000      -0.328310        -8.9338 
 100   2.0000      -0.326029        -8.8717 
 101   2.0000      -0.322279        -8.7697 
 102   2.0000      -0.319396        -8.6912 
 103   2.0000      -0.313520        -8.5313 
 104   2.0000      -0.311269        -8.4701 
 105   2.0000      -0.301029        -8.1914 
 106   2.0000      -0.276982        -7.5371 
 107   2.0000      -0.275381        -7.4935 
 108   2.0000      -0.254254        -6.9186 
 109   2.0000      -0.221000        -6.0137 
 110   0.0000      -0.032034        -0.8717 
 111   0.0000       0.019225         0.5232 
 112   0.0000       0.030629         0.8335 
 113   0.0000       0.081513         2.2181 
 114   0.0000       0.090735         2.4690 
 115   0.0000       0.096055         2.6138 
 116   0.0000       0.102145         2.7795 
 117   0.0000       0.104427         2.8416 
 118   0.0000       0.108772         2.9598 
 119   0.0000       0.110520         3.0074 
 120   0.0000       0.117149         3.1878 
*Only the first 10 virtual orbitals were printed.

                    ********************************
                    * MULLIKEN POPULATION ANALYSIS *
                    ********************************

-----------------------
MULLIKEN ATOMIC CHARGES
-----------------------
   0 C :    0.078915
   1 C :   -0.500099
   2 C :   -0.074569
   3 H :    0.222896
   4 H :    0.219606
   5 C :    0.138946
   6 C :   -0.480586
   7 C :   -0.440001
   8 H :    0.225599
   9 H :    0.207158
  10 H :    0.209039
  11 H :    0.227938
  12 O :   -0.487888
  13 H :    0.247622
  14 C :   -0.280187
  15 C :   -0.514207
  16 H :    0.201031
  17 H :    0.197001
  18 C :   -0.261020
  19 H :    0.220247
  20 C :    0.153982
  21 H :    0.219175
  22 C :   -0.478789
  23 C :   -0.427757
  24 H :    0.211911
  25 H :    0.207181
  26 C :   -0.397230
  27 H :    0.208738
  28 H :    0.217514
  29 C :    0.000923
  30 H :    0.222952
  31 H :    0.194768
  32 C :   -0.229810
  33 H :    0.228678
  34 C :   -0.428937
  35 H :    0.341018
  36 C :   -0.434770
  37 H :    0.208690
  38 H :    0.198968
  39 C :   -0.185280
  40 H :    0.216126
  41 H :    0.206329
  42 H :    0.212465
  43 C :   -0.241943
  44 C :   -0.628237
  45 H :    0.205587
  46 H :    0.210200
  47 H :    0.201956
  48 H :    0.218440
  49 C :   -0.640479
  50 C :   -0.195735
  51 C :   -0.177883
  52 H :    0.227833
  53 H :    0.214637
  54 C :   -0.228452
  55 C :   -0.618522
  56 C :   -0.207898
  57 H :    0.223116
  58 H :    0.219788
  59 C :   -0.627095
  60 C :   -0.610269
  61 H :    0.202179
  62 H :    0.203178
  63 H :    0.205489
  64 H :    0.205413
  65 H :    0.205892
  66 H :    0.198902
  67 H :    0.198735
  68 H :    0.198197
  69 H :    0.205444
  70 H :    0.215166
  71 H :    0.191430
  72 H :    0.200645
Sum of atomic charges:   -0.0000000

--------------------------------
MULLIKEN REDUCED ORBITAL CHARGES
--------------------------------
  0 C s       :     3.354203  s :     3.354203
      pz      :     1.002834  p :     2.566882
      px      :     0.808897
      py      :     0.755151

  1 C s       :     3.378035  s :     3.378035
      pz      :     1.131943  p :     3.122064
      px      :     0.873414
      py      :     1.116706

  2 C s       :     3.312745  s :     3.312745
      pz      :     0.707437  p :     2.761824
      px      :     1.148221
      py      :     0.906166

  3 H s       :     0.777104  s :     0.777104

  4 H s       :     0.780394  s :     0.780394

  5 C s       :     3.341505  s :     3.341505
      pz      :     0.889567  p :     2.519549
      px      :     0.861321
      py      :     0.768661

  6 C s       :     3.367283  s :     3.367283
      pz      :     1.131773  p :     3.113303
      px      :     0.892287
      py      :     1.089242

  7 C s       :     3.338567  s :     3.338567
      pz      :     1.182673  p :     3.101434
      px      :     0.959102
      py      :     0.959659

  8 H s       :     0.774401  s :     0.774401

  9 H s       :     0.792842  s :     0.792842

 10 H s       :     0.790961  s :     0.790961

 11 H s       :     0.772062  s :     0.772062

 12 O s       :     3.685028  s :     3.685028
      pz      :     1.439005  p :     4.802860
      px      :     1.463753
      py      :     1.900102

 13 H s       :     0.752378  s :     0.752378

 14 C s       :     3.394097  s :     3.394097
      pz      :     0.981144  p :     2.886090
      px      :     0.836221
      py      :     1.068725

 15 C s       :     3.385506  s :     3.385506
      pz      :     0.992569  p :     3.128701
      px      :     0.985306
      py      :     1.150826

 16 H s       :     0.798969  s :     0.798969

 17 H s       :     0.802999  s :     0.802999

 18 C s       :     3.397622  s :     3.397622
      pz      :     1.016683  p :     2.863398
      px      :     0.776441
      py      :     1.070275

 19 H s       :     0.779753  s :     0.779753

 20 C s       :     3.350327  s :     3.350327
      pz      :     0.944964  p :     2.495691
      px      :     0.761046
      py      :     0.789682

 21 H s       :     0.780825  s :     0.780825

 22 C s       :     3.372420  s :     3.372420
      pz      :     1.105827  p :     3.106370
      px      :     1.116227
      py      :     0.884316

 23 C s       :     3.327529  s :     3.327529
      pz      :     1.089555  p :     3.100228
      px      :     0.891659
      py      :     1.119014

 24 H s       :     0.788089  s :     0.788089

 25 H s       :     0.792819  s :     0.792819

 26 C s       :     3.350213  s :     3.350213
      pz      :     1.176033  p :     3.047017
      px      :     0.955964
      py      :     0.915020

 27 H s       :     0.791262  s :     0.791262

 28 H s       :     0.782486  s :     0.782486

 29 C s       :     3.318328  s :     3.318328
      pz      :     0.868684  p :     2.680749
      px      :     0.904832
      py      :     0.907234

 30 H s       :     0.777048  s :     0.777048

 31 H s       :     0.805232  s :     0.805232

 32 C s       :     3.362539  s :     3.362539
      pz      :     1.072470  p :     2.867271
      px      :     0.859378
      py      :     0.935423

 33 H s       :     0.771322  s :     0.771322

 34 C s       :     3.344819  s :     3.344819
      pz      :     1.190823  p :     3.084118
      px      :     0.922568
      py      :     0.970727

 35 H s       :     0.658982  s :     0.658982

 36 C s       :     3.335897  s :     3.335897
      pz      :     1.168314  p :     3.098873
      px      :     0.954475
      py      :     0.976085

 37 H s       :     0.791310  s :     0.791310

 38 H s       :     0.801032  s :     0.801032

 39 C s       :     3.338865  s :     3.338865
      pz      :     1.052231  p :     2.846415
      px      :     0.857745
      py      :     0.936439

 40 H s       :     0.783874  s :     0.783874

 41 H s       :     0.793671  s :     0.793671

 42 H s       :     0.787535  s :     0.787535

 43 C s       :     3.347547  s :     3.347547
      pz      :     1.041651  p :     2.894396
      px      :     0.877872
      py      :     0.974873

 44 C s       :     3.365613  s :     3.365613
      pz      :     0.961506  p :     3.262624
      px      :     1.163502
      py      :     1.137616

 45 H s       :     0.794413  s :     0.794413

 46 H s       :     0.789800  s :     0.789800

 47 H s       :     0.798044  s :     0.798044

 48 H s       :     0.781560  s :     0.781560

 49 C s       :     3.352387  s :     3.352387
      pz      :     1.145078  p :     3.288092
      px      :     1.165265
      py      :     0.977749

 50 C s       :     3.355032  s :     3.355032
      pz      :     0.959606  p :     2.840704
      px      :     0.807675
      py      :     1.073423

 51 C s       :     3.353804  s :     3.353804
      pz      :     0.956575  p :     2.824079
      px      :     0.794115
      py      :     1.073389

 52 H s       :     0.772167  s :     0.772167

 53 H s       :     0.785363  s :     0.785363

 54 C s       :     3.339596  s :     3.339596
      pz      :     0.960395  p :     2.888856
      px      :     1.029220
      py      :     0.899242

 55 C s       :     3.343081  s :     3.343081
      pz      :     1.002014  p :     3.275441
      px      :     1.166467
      py      :     1.106959

 56 C s       :     3.319519  s :     3.319519
      pz      :     0.931415  p :     2.888379
      px      :     1.073420
      py      :     0.883544

 57 H s       :     0.776884  s :     0.776884

 58 H s       :     0.780212  s :     0.780212

 59 C s       :     3.348734  s :     3.348734
      pz      :     1.079440  p :     3.278362
      px      :     1.064581
      py      :     1.134341

 60 C s       :     3.344176  s :     3.344176
      pz      :     1.008305  p :     3.266093
      px      :     1.167210
      py      :     1.090578

 61 H s       :     0.797821  s :     0.797821

 62 H s       :     0.796822  s :     0.796822

 63 H s       :     0.794511  s :     0.794511

 64 H s       :     0.794587  s :     0.794587

 65 H s       :     0.794108  s :     0.794108

 66 H s       :     0.801098  s :     0.801098

 67 H s       :     0.801265  s :     0.801265

 68 H s       :     0.801803  s :     0.801803

 69 H s       :     0.794556  s :     0.794556

 70 H s       :     0.784834  s :     0.784834

 71 H s       :     0.808570  s :     0.808570

 72 H s       :     0.799355  s :     0.799355


------------------------
MULLIKEN OVERLAP CHARGES
------------------------
B(  0-C ,  1-C ) :   0.5242 B(  0-C ,  2-C ) :  -0.1795 B(  0-C ,  3-H ) :  -0.0797 
B(  0-C ,  4-H ) :  -0.0865 B(  0-C ,  5-C ) :   0.4160 B(  0-C ,  6-C ) :  -0.1413 
B(  0-C , 14-C ) :   0.9504 B(  0-C , 15-C ) :  -0.2023 B(  0-C , 18-C ) :  -0.1863 
B(  0-C , 19-H ) :  -0.0753 B(  1-C ,  2-C ) :   0.5261 B(  1-C ,  3-H ) :   0.8089 
B(  1-C ,  4-H ) :   0.7737 B(  1-C ,  5-C ) :  -0.1402 B(  1-C ,  7-C ) :  -0.1583 
[...]
        0.0000         3.0050        0.0000
        0.0000         0.0000        3.0050

 Diagonalized JT*J matrix:
 
 J[55,60](FC)             3.005            3.005            3.005  iso=      3.005
                ---------------  ---------------  ---------------  ---------------
 J[55,60](Total)          3.005            3.005            3.005  iso=      3.005



-----------------------------------------------------------
 NUCLEUS A = C   56 NUCLEUS B = C   59 
 ( 13C  gnA =  1.405  13C  gnB =  1.405) r(AB) =     1.5334
-----------------------------------------------------------

Fermi-contact contribution to J (Hz):
       25.9084         0.0000        0.0000
        0.0000        25.9084        0.0000
        0.0000         0.0000       25.9084

Total spin-spin coupling tensor J (Hz):
       25.9084         0.0000        0.0000
        0.0000        25.9084        0.0000
        0.0000         0.0000       25.9084

 Diagonalized JT*J matrix:
 
 J[56,59](FC)            25.908           25.908           25.908  iso=     25.908
                ---------------  ---------------  ---------------  ---------------
 J[56,59](Total)         25.908           25.908           25.908  iso=     25.908



-----------------------------------------------------------
 NUCLEUS A = C   56 NUCLEUS B = C   60 
 ( 13C  gnA =  1.405  13C  gnB =  1.405) r(AB) =     1.5331
-----------------------------------------------------------

Fermi-contact contribution to J (Hz):
       26.4592         0.0000        0.0000
        0.0000        26.4592        0.0000
        0.0000         0.0000       26.4592

Total spin-spin coupling tensor J (Hz):
       26.4592         0.0000        0.0000
        0.0000        26.4592        0.0000
        0.0000         0.0000       26.4592

 Diagonalized JT*J matrix:
 
 J[56,60](FC)            26.459           26.459           26.459  iso=     26.459
                ---------------  ---------------  ---------------  ---------------
 J[56,60](Total)         26.459           26.459           26.459  iso=     26.459



-----------------------------------------------------------
 NUCLEUS A = C   59 NUCLEUS B = C   60 
 ( 13C  gnA =  1.405  13C  gnB =  1.405) r(AB) =     2.5362
-----------------------------------------------------------

Fermi-contact contribution to J (Hz):
       -1.0655         0.0000        0.0000
        0.0000        -1.0655        0.0000
        0.0000         0.0000       -1.0655

Total spin-spin coupling tensor J (Hz):
       -1.0655         0.0000        0.0000
        0.0000        -1.0655        0.0000
        0.0000         0.0000       -1.0655

 Diagonalized JT*J matrix:
 
 J[59,60](FC)            -1.065           -1.065           -1.065  iso=     -1.065
                ---------------  ---------------  ---------------  ---------------
 J[59,60](Total)         -1.065           -1.065           -1.065  iso=     -1.065



-----------------------------------------------------------------------------
                SUMMARY OF ISOTROPIC COUPLING CONSTANTS J (Hz)                
-----------------------------------------------------------------------------
                  0 C        1 C        2 C        5 C        6 C        7 C  
      0 C        0.000     33.077     -3.736     41.308     -0.882      2.286
      1 C       33.077      0.000     23.454     -1.187      1.433     -0.647
      2 C       -3.736     23.454      0.000      2.291     -2.748     25.765
      5 C       41.308     -1.187      2.291      0.000     30.360     -2.770
      6 C       -0.882      1.433     -2.748     30.360      0.000     24.775
      7 C        2.286     -0.647     25.765     -2.770     24.775      0.000
     14 C       69.417     -0.358      2.847     -3.029      2.189     -0.624
     15 C       -3.416      2.416     -0.859     64.553     -1.091      2.600
     18 C       -2.414      4.173     -1.086      3.182     -0.813      0.192
     20 C        6.802     -1.098      1.076     -1.394      0.605     -0.103
     22 C       -0.917      0.326     -0.327      0.425     -0.182      0.037
     23 C        0.834     -0.289      0.283     -0.349      0.155      0.000
     26 C       -0.097      0.040      0.000      0.050      0.000      0.000
     29 C        1.164     -0.365      0.000     -0.451      0.208      0.000
     32 C       -1.118      0.543     -0.371      0.474     -0.215      0.044
     34 C        0.023     -0.015      0.014     -0.015      0.006     -0.001
     36 C       -0.017      0.000      0.000      0.017     -0.008      0.000
     39 C       -0.071      0.000      0.000      0.031      0.000      0.000
     43 C        0.000      0.000      0.000      0.000      0.000      0.000
     44 C        0.011     -0.003      0.000     -0.002     -0.005      0.000
     49 C        0.000      0.000      0.000      0.000      0.000      0.000
     50 C        0.000      0.000      0.000      0.000      0.000      0.000
     51 C        0.000      0.000      0.000      0.000      0.000      0.000
     54 C        0.000      0.000      0.000      0.000      0.000      0.000
     55 C        0.000      0.000      0.000      0.000      0.000      0.000
     56 C        0.000      0.000      0.000      0.000      0.000      0.000
     59 C        0.000      0.000      0.000      0.000      0.000      0.000
     60 C        0.000      0.000      0.000      0.000      0.000      0.000
                 14 C       15 C       18 C       20 C       22 C       23 C  
      0 C       69.417     -3.416     -2.414      6.802     -0.917      0.834
      1 C       -0.358      2.416      4.173     -1.098      0.326     -0.289
      2 C        2.847     -0.859     -1.086      1.076     -0.327      0.283
      5 C       -3.029     64.553      3.182     -1.394      0.425     -0.349
      6 C        2.189     -1.091     -0.813      0.605     -0.182      0.155
      7 C       -0.624      2.600      0.192     -0.103      0.037      0.000
     14 C        0.000      3.110     54.120     -2.625      3.813     -0.939
     15 C        3.110      0.000     -1.143      1.010     -0.272      0.257
     18 C       54.120     -1.143      0.000     70.002     -2.135      2.365
     20 C       -2.625      1.010     70.002      0.000     32.137     -2.992
     22 C        3.813     -0.272     -2.135     32.137      0.000     24.144
     23 C       -0.939      0.257      2.365     -2.992     24.144      0.000
     26 C        0.140     -0.034     -0.352      1.022     -1.918     25.453
     29 C       -1.136      0.324      2.266     -2.437      1.044     -2.219
     32 C        4.381     -0.315     -1.306     36.874     -0.189      1.534
     34 C        0.063      0.004      2.448     -1.361      1.629     -0.271
     36 C        0.016     -0.014     -0.155      3.504      0.074      0.154
     39 C        0.255     -0.024     -0.055      2.913     -0.334      2.542
     43 C        0.006      0.017      0.272      0.203     -0.004     -0.109
     44 C        0.005      0.030     -0.047      0.704     -0.135      0.590
     49 C       -0.001      0.000     -0.009     -0.029      0.145      0.053
     50 C        0.000      0.000      0.003      0.222     -0.006      0.120
     51 C        0.000      0.000      0.000      0.068     -0.003      0.002
     54 C        0.000      0.000      0.000      0.000      0.000      0.000
     55 C        0.000      0.000      0.000      0.000      0.000      0.000
     56 C        0.000      0.000      0.000      0.000      0.000      0.000
     59 C        0.000      0.000      0.000      0.000      0.000      0.000
     60 C        0.000      0.000      0.000      0.000      0.000      0.000
                 26 C       29 C       32 C       34 C       36 C       39 C  
      0 C       -0.097      1.164     -1.118      0.023     -0.017     -0.071
      1 C        0.040     -0.365      0.543     -0.015      0.000      0.000
      2 C        0.000      0.000     -0.371      0.014      0.000      0.000
      5 C        0.050     -0.451      0.474     -0.015      0.017      0.031
      6 C        0.000      0.208     -0.215      0.006     -0.008      0.000
      7 C        0.000      0.000      0.044     -0.001      0.000      0.000
     14 C        0.140     -1.136      4.381      0.063      0.016      0.255
     15 C       -0.034      0.324     -0.315      0.004     -0.014     -0.024
     18 C       -0.352      2.266     -1.306      2.448     -0.155     -0.055
     20 C        1.022     -2.437     36.874     -1.361      3.504      2.913
     22 C       -1.918      1.044     -0.189      1.629      0.074     -0.334
     23 C       25.453     -2.219      1.534     -0.271      0.154      2.542
     26 C        0.000     27.885     -0.920      2.270      3.030     -0.558
     29 C       27.885      0.000     23.013      0.947      0.719     28.177
     32 C       -0.920     23.013      0.000     28.077      1.232      3.370
     34 C        2.270      0.947     28.077      0.000     26.052      0.025
     36 C        3.030      0.719      1.232     26.052      0.000     26.394
     39 C       -0.558     28.177      3.370      0.025     26.394      0.000
     43 C       -0.016     -0.694      2.830      1.504     -0.037     27.847
     44 C       -0.611     27.227     -0.999      0.814      0.286     -1.274
     49 C        0.447      0.117      0.003      0.058      3.280     -1.028
     50 C       -0.071      3.051      0.022      0.105      1.463     -2.651
     51 C       -0.017      0.185      0.154     -0.036      0.049      2.912
     54 C       -0.003      0.119     -0.032      0.018      0.008     -0.766
     55 C       -0.009      0.113      0.065     -0.009      0.013      1.322
     56 C        0.001     -0.003      0.001     -0.002     -0.001      0.030
     59 C        0.000      0.001      0.002      0.001      0.019     -0.010
     60 C        0.000     -0.003     -0.001      0.001      0.001     -0.037
                 43 C       44 C       49 C       50 C       51 C       54 C  
      0 C        0.000      0.011      0.000      0.000      0.000      0.000
      1 C        0.000     -0.003      0.000      0.000      0.000      0.000
      2 C        0.000      0.000      0.000      0.000      0.000      0.000
      5 C        0.000     -0.002      0.000      0.000      0.000      0.000
      6 C        0.000     -0.005      0.000      0.000      0.000      0.000
      7 C        0.000      0.000      0.000      0.000      0.000      0.000
     14 C        0.006      0.005     -0.001      0.000      0.000      0.000
     15 C        0.017      0.030      0.000      0.000      0.000      0.000
     18 C        0.272     -0.047     -0.009      0.003      0.000      0.000
     20 C        0.203      0.704     -0.029      0.222      0.068      0.000
     22 C       -0.004     -0.135      0.145     -0.006     -0.003      0.000
     23 C       -0.109      0.590      0.053      0.120      0.002      0.000
     26 C       -0.016     -0.611      0.447     -0.071     -0.017     -0.003
     29 C       -0.694     27.227      0.117      3.051      0.185      0.119
     32 C        2.830     -0.999      0.003      0.022      0.154     -0.032
     34 C        1.504      0.814      0.058      0.105     -0.036      0.018
     36 C       -0.037      0.286      3.280      1.463      0.049      0.008
     39 C       27.847     -1.274     -1.028     -2.651      2.912     -0.766
     43 C        0.000      1.439     27.489     35.840     -1.531      3.405
     44 C        1.439      0.000     -0.023     -0.108      0.081      0.006
     49 C       27.489     -0.023      0.000     -1.947      3.324      0.030
     50 C       35.840     -0.108     -1.947      0.000     67.877     -1.868
     51 C       -1.531      0.081      3.324     67.877      0.000     35.878
     54 C        3.405      0.006      0.030     -1.868     35.878      0.000
     55 C       -0.814     -0.007      0.047      3.651     -2.221     26.037
     56 C       -0.187     -0.001      0.042      0.954     -1.996     27.447
     59 C        0.035     -0.000      0.043      0.147      0.556     -1.780
     60 C        0.045      0.000      0.029      0.253      0.412     -0.827
                 55 C       56 C       59 C       60 C  
      0 C        0.000      0.000      0.000      0.000
      1 C        0.000      0.000      0.000      0.000
      2 C        0.000      0.000      0.000      0.000
      5 C        0.000      0.000      0.000      0.000
      6 C        0.000      0.000      0.000      0.000
      7 C        0.000      0.000      0.000      0.000
     14 C        0.000      0.000      0.000      0.000
     15 C        0.000      0.000      0.000      0.000
     18 C        0.000      0.000      0.000      0.000
     20 C        0.000      0.000      0.000      0.000
     22 C        0.000      0.000      0.000      0.000
     23 C        0.000      0.000      0.000      0.000
     26 C       -0.009      0.001      0.000      0.000
     29 C        0.113     -0.003      0.001     -0.003
     32 C        0.065      0.001      0.002     -0.001
     34 C       -0.009     -0.002      0.001      0.001
     36 C        0.013     -0.001      0.019      0.001
     39 C        1.322      0.030     -0.010     -0.037
     43 C       -0.814     -0.187      0.035      0.045
     44 C       -0.007     -0.001     -0.000      0.000
     49 C        0.047      0.042      0.043      0.029
     50 C        3.651      0.954      0.147      0.253
     51 C       -2.221     -1.996      0.556      0.412
     54 C       26.037     27.447     -1.780     -0.827
     55 C        0.000     -0.566      0.899      3.005
     56 C       -0.566      0.000     25.908     26.459
     59 C        0.899     25.908      0.000     -1.065
     60 C        3.005     26.459     -1.065      0.000

NMR spin-spin coupling calculation done in   0.3 sec 

Maximum memory used throughout the entire PROP-calculation: 34.4 MB

--------------------------------
SUGGESTED CITATIONS FOR THIS RUN
--------------------------------

Below you find a list of papers that are relevant to this ORCA run
We neither can nor want to force you to cite these papers, but we appreciate if you do
You receive ORCA, which is the product of decades of hard work by many enthusiastic individuals, for free
The only thing we kindly ask in return is that you cite our papers,
We deeply appreciate it, if you show your appreciation for ORCA by not just citing the generic ORCA reference.

Please note that relegating all ORCA citations to the supporting information does *not* help us.
SI sections are not indexed - citations you put there will not count into any citation statistics
But we need these citations in order to attract the funding resources that allow us to do what we are doing

Therefore, if you are a happy ORCA user, please consider citing a few of the papers listed below in the main body of your paper

In addition to the list printed below, the program has created the file inpJ.bibtex that contains the list in bibtex format
You can import this file easily into all common literature databanks and citation aid programs


List of essential papers. We consider these as the minimum necessary citations

  1. Neese,F.
     Software update: the ORCA program system, version 5.0
     WIRES Comput. Molec. Sci., 2022 12(1)e1606
     doi.org/10.1002/wcms.1606

List of papers to cite with high priority. The work reported in these papers was absolutely
necessary for this run to complete.
Our perspective: the developers of density functionals and basis sets usually get cited in chemistry papers
Good! But without the algorithms to do something with them, the functionals or basis sets would not do anything.
Hence, in our opinion, the algorithm design and method developments papers are equally worthy of getting cited

  1. Neese,F.
     An improvement of the resolution of the identity approximation for the formation of the Coulomb matrix
     J. Comp. Chem., 2003 24(14)1740-1747
     doi.org/10.1002/jcc.10318
  2. Neese,F.; Wennmohs,F.; Hansen,A.; Becker,U.
     Efficient, approximate and parallel Hartree-Fock and hybrid DFT calculations. A 'chain-of-spheres' algorithm for the Hartree-Fock exchange
     Chem. Phys., 2009 356(1-3)98-109
     doi.org/10.1016/j.chemphys.2008.10.036
  3. Stoychev,G.L.; Auer,A.A.; Izsak,R.; Neese,F.
     Self-Consistent Field Calculation of Nuclear Magnetic Resonance Chemical Shielding Constants Using Gauge-Including Atomic Orbitals and Approximate Two-Electron Integrals
     J. Chem. Theory Comput., 2018 14(2)619-637
     doi.org/10.1021/acs.jctc.7b01006
  4. Garcia-Rates,M.; Neese,F.
     Effect of the Solute Cavity on the Solvation Energy and its Derivatives within the Framework of the Gaussian Charge Scheme
     J. Comput. Chem., 2020 41 922-939
     doi.org/10.1002/jcc.26139
  5. Helmich-Paris,B.; de Souza,B.; Neese,F.; Izsák,R.
     An improved chain of spheres for exchange algorithm
     J. Chem. Phys., 2021 155 104109
     doi.org/doi: 10.1063/5.0058766.
  6. Neese,F.
     The SHARK Integral Generation and Digestion System
     J. Comp. Chem., 2022  1-16
     doi.org/10.1002/jcc.26942
  7. Grimme,S.; Bannwarth,C.; Dohm,S.; Hansen,A.; Pisarek,J.; Pracht,P.; Seibert,J.; Neese,F.
     Fully Automated Quantum-Chemistry-Based Computation of Spin-Spin-Coupled Nuclear Magnetic Resonance Spectra
     Angew. Chem., Int. Ed., 2017 56 14763-14769
     doi.org/10.1002/anie.201708266
  8. Caldeweyher,E.; Bannwarth,C.; Grimme,S.
     Extension of the D3 dispersion coefficient model
     J. Chem. Phys., 2017 147 034112-XXXX
     doi.org/10.1063/1.4993215
  9. Caldeweyher,E.; Ehlert,S.; Hansen,A.; Neugebauer,H.; Spicher,S.; Bannwarth,C.; Grimme,S.
     A generally applicable atomic-charge dependent London dispersion correction
     J. Chem. Phys., 2019 150 154122-XXXX
     doi.org/10.1063/1.5090222
 10. Caldeweyher,E.; Mewes,J.; Ehlert,S.; Grimme,S.
     Extension and evaluation of the D4 London-dispersion model for periodic systems
     Phys. Chem. Chem. Phys., 2020 22(16)8499-8512
     doi.org/10.1039/D0CP00502A

List of suggested additional citations. These are papers that are important in the 'surrounding' of 
of this run, or papers that preceded the highly important papers. If you like your results we are grateful for a citation.

  1. Izsak,R.; Neese,F.
     An overlap fitted chain of spheres exchange method
     J. Chem. Phys., 2011 135 144105
     doi.org/10.1063/1.3646921
  2. Izsak,R.; Hansen,A.; Neese,F.
     The resolution of identity and chain of spheres approximations for the LPNO-CCSD singles Fock term
     Molec. Phys., 2012 110 2413-2417
     doi.org/10.1080/00268976.2012.687466
  3. Neese,F.
     The ORCA program system
     WIRES Comput. Molec. Sci., 2012 2(1)73-78
     doi.org/10.1002/wcms.81
  4. Izsak,R.; Neese,F.; Klopper,W.
     Robust fitting techniques in the chain of spheres approximation to the Fock exchange: The role of the complementary space
     J. Chem. Phys., 2013 139 
     doi.org/10.1063/1.4819264
  5. Neese,F.
     Software update: the ORCA program system, version 4.0
     WIRES Comput. Molec. Sci., 2018 8(1)1-6
     doi.org/10.1002/wcms.1327
  6. Neese,F.; Wennmohs,F.; Becker,U.; Riplinger,C.
     The ORCA quantum chemistry program package
     J. Chem. Phys., 2020 152 Art. No. L224108
     doi.org/10.1063/5.0004608

Timings for individual modules:

Sum of individual times          ...      159.621 sec (=   2.660 min)
Startup calculation              ...        4.121 sec (=   0.069 min)   2.6 %
SCF iterations                   ...       57.602 sec (=   0.960 min)  36.1 %
Property integrals               ...        0.642 sec (=   0.011 min)   0.4 %
SCF Response                     ...       96.639 sec (=   1.611 min)  60.5 %
Property calculations            ...        0.618 sec (=   0.010 min)   0.4 %
                             ****ORCA TERMINATED NORMALLY****
TOTAL RUN TIME: 0 days 0 hours 2 minutes 39 seconds 927 msec
