
                                 *****************
                                 * O   R   C   A *
                                 *****************

                                            #,                                       
                                            ###                                      
                                            ####                                     
                                            #####                                    
                                            ######                                   
                                           ########,                                 
                                     ,,################,,,,,                         
                               ,,#################################,,                 
                          ,,##########################################,,             
                       ,#########################################, ''#####,          
                    ,#############################################,,   '####,        
                  ,##################################################,,,,####,       
                ,###########''''           ''''###############################       
              ,#####''   ,,,,##########,,,,          '''####'''          '####       
            ,##' ,,,,###########################,,,                        '##       
           ' ,,###''''                  '''############,,,                           
         ,,##''                                '''############,,,,        ,,,,,,###''
      ,#''                                            '''#######################'''  
     '                                                          ''''####''''         
             ,#######,   #######,   ,#######,      ##                                
            ,#'     '#,  ##    ##  ,#'     '#,    #''#        ######   ,####,        
            ##       ##  ##   ,#'  ##            #'  '#       #        #'  '#        
            ##       ##  #######   ##           ,######,      #####,   #    #        
            '#,     ,#'  ##    ##  '#,     ,#' ,#      #,         ##   #,  ,#        
             '#######'   ##     ##  '#######'  #'      '#     #####' # '####'        



                  #######################################################
                  #                        -***-                        #
                  #          Department of theory and spectroscopy      #
                  #    Directorship and core code : Frank Neese         #
                  #        Max Planck Institute fuer Kohlenforschung    #
                  #                Kaiser Wilhelm Platz 1               #
                  #                 D-45470 Muelheim/Ruhr               #
                  #                      Germany                        #
                  #                                                     #
                  #                  All rights reserved                #
                  #                        -***-                        #
                  #######################################################


                         Program Version 5.0.2 -  RELEASE  -


 With contributions from (in alphabetic order):
   Daniel Aravena         : Magnetic Suceptibility
   Michael Atanasov       : Ab Initio Ligand Field Theory (pilot matlab implementation)
   Alexander A. Auer      : GIAO ZORA, VPT2 properties, NMR spectrum
   Ute Becker             : Parallelization
   Giovanni Bistoni       : ED, misc. LED, open-shell LED, HFLD
   Martin Brehm           : Molecular dynamics
   Dmytro Bykov           : SCF Hessian
   Vijay G. Chilkuri      : MRCI spin determinant printing, contributions to CSF-ICE
   Dipayan Datta          : RHF DLPNO-CCSD density
   Achintya Kumar Dutta   : EOM-CC, STEOM-CC
   Dmitry Ganyushin       : Spin-Orbit,Spin-Spin,Magnetic field MRCI
   Miquel Garcia          : C-PCM and meta-GGA Hessian, CC/C-PCM, Gaussian charge scheme
   Yang Guo               : DLPNO-NEVPT2, F12-NEVPT2, CIM, IAO-localization
   Andreas Hansen         : Spin unrestricted coupled pair/coupled cluster methods
   Benjamin Helmich-Paris : MC-RPA, TRAH-SCF, COSX integrals
   Lee Huntington         : MR-EOM, pCC
   Robert Izsak           : Overlap fitted RIJCOSX, COSX-SCS-MP3, EOM
   Marcus Kettner         : VPT2
   Christian Kollmar      : KDIIS, OOCD, Brueckner-CCSD(T), CCSD density, CASPT2, CASPT2-K
   Simone Kossmann        : Meta GGA functionals, TD-DFT gradient, OOMP2, MP2 Hessian
   Martin Krupicka        : Initial AUTO-CI
   Lucas Lang             : DCDCAS
   Marvin Lechner         : AUTO-CI (C++ implementation), FIC-MRCC
   Dagmar Lenk            : GEPOL surface, SMD
   Dimitrios Liakos       : Extrapolation schemes; Compound Job, initial MDCI parallelization
   Dimitrios Manganas     : Further ROCIS development; embedding schemes
   Dimitrios Pantazis     : SARC Basis sets
   Anastasios Papadopoulos: AUTO-CI, single reference methods and gradients
   Taras Petrenko         : DFT Hessian,TD-DFT gradient, ASA, ECA, R-Raman, ABS, FL, XAS/XES, NRVS
   Peter Pinski           : DLPNO-MP2, DLPNO-MP2 Gradient
   Christoph Reimann      : Effective Core Potentials
   Marius Retegan         : Local ZFS, SOC
   Christoph Riplinger    : Optimizer, TS searches, QM/MM, DLPNO-CCSD(T), (RO)-DLPNO pert. Triples
   Tobias Risthaus        : Range-separated hybrids, TD-DFT gradient, RPA, STAB
   Michael Roemelt        : Original ROCIS implementation
   Masaaki Saitow         : Open-shell DLPNO-CCSD energy and density
   Barbara Sandhoefer     : DKH picture change effects
   Avijit Sen             : IP-ROCIS
   Kantharuban Sivalingam : CASSCF convergence, NEVPT2, FIC-MRCI
   Bernardo de Souza      : ESD, SOC TD-DFT
   Georgi Stoychev        : AutoAux, RI-MP2 NMR, DLPNO-MP2 response
   Willem Van den Heuvel  : Paramagnetic NMR
   Boris Wezisla          : Elementary symmetry handling
   Frank Wennmohs         : Technical directorship


 We gratefully acknowledge several colleagues who have allowed us to
 interface, adapt or use parts of their codes:
   Stefan Grimme, W. Hujo, H. Kruse, P. Pracht,  : VdW corrections, initial TS optimization,
                  C. Bannwarth, S. Ehlert          DFT functionals, gCP, sTDA/sTD-DF
   Ed Valeev, F. Pavosevic, A. Kumar             : LibInt (2-el integral package), F12 methods
   Garnet Chan, S. Sharma, J. Yang, R. Olivares  : DMRG
   Ulf Ekstrom                                   : XCFun DFT Library
   Mihaly Kallay                                 : mrcc  (arbitrary order and MRCC methods)
   Jiri Pittner, Ondrej Demel                    : Mk-CCSD
   Frank Weinhold                                : gennbo (NPA and NBO analysis)
   Christopher J. Cramer and Donald G. Truhlar   : smd solvation model
   Lars Goerigk                                  : TD-DFT with DH, B97 family of functionals
   V. Asgeirsson, H. Jonsson                     : NEB implementation
   FAccTs GmbH                                   : IRC, NEB, NEB-TS, DLPNO-Multilevel, CI-OPT
                                                   MM, QMMM, 2- and 3-layer-ONIOM, Crystal-QMMM,
                                                   LR-CPCM, SF, NACMEs, symmetry and pop. for TD-DFT,
                                                   nearIR, NL-DFT gradient (VV10), updates on ESD,
                                                   ML-optimized integration grids
   S Lehtola, MJT Oliveira, MAL Marques          : LibXC Library
   Liviu Ungur et al                             : ANISO software


 Your calculation uses the libint2 library for the computation of 2-el integrals
 For citations please refer to: http://libint.valeyev.net

 Your ORCA version has been built with support for libXC version: 5.1.0
 For citations please refer to: https://tddft.org/programs/libxc/

 This ORCA versions uses:
   CBLAS   interface :  Fast vector & matrix operations
   LAPACKE interface :  Fast linear algebra routines
   SCALAPACK package :  Parallel linear algebra routines
   Shared memory     :  Shared parallel matrices
   BLAS/LAPACK       :  OpenBLAS 0.3.15  USE64BITINT DYNAMIC_ARCH NO_AFFINITY Zen SINGLE_THREADED
        Core in use  :  Zen
   Copyright (c) 2011-2014, The OpenBLAS Project


Your calculation utilizes the atom-pairwise dispersion correction
based on tight binding partial charges (D4)
Cite in your paper:
E.Caldeweyher, C.Bannwarth, S.Grimme, J.Chem.Phys., (2017), 147, 034112.
E.Caldeweyher, S.Ehlert, A.Hansen, H.Neugebauer, S.Grimme, J.Chem.Phys., (2018), in progress.
   

================================================================================

----- Orbital basis set information -----
Your calculation utilizes the basis: pcSseg-1
   F. Jensen, J. Chem. Theory Comput. 11, 132 (2015).

----- AuxJ basis set information -----
Your calculation utilizes the auxiliary basis: def2/J
   F. Weigend, Phys. Chem. Chem. Phys. 8, 1057 (2006).

================================================================================
                                        WARNINGS
                       Please study these warnings very carefully!
================================================================================



WARNING: Found flag for RIJCOSX approximation but no HF exchange needed!
  ===> : RIJCOSX  will be disabled and Split-RI-J is turned on

INFO   : the flag for use of the SHARK integral package has been found!

================================================================================
                                       INPUT FILE
================================================================================
NAME = inpS
|  1> ! revTPSS
|  2> ! D4
|  3> ! pcSseg-1
|  4> ! def2/J RIJCOSX
|  5> ! DEFGRID2
|  6> ! scfconv7
|  7> ! smallprint printgap noloewdin
|  8> ! NOSOSCF
|  9> %MaxCore 4000
| 10> %output
| 11>        print[P_BondOrder_M] 1
| 12>        print[P_Mayer] 1
| 13>        print[P_basis] 2
| 14> end
| 15> %pal
| 16>     nprocs 4
| 17> end
| 18> ! CPCM(chloroform)
| 19> *xyz 0 1
| 20> C   -4.9970955600   0.2151337400  -0.4994928600
| 21> C   -6.4448492500  -0.1838003900  -0.6619555300
| 22> C   -7.3540414000   0.7603346300   0.1350759100
| 23> H   -6.6008698400  -1.2184816400  -0.3361250800
| 24> H   -6.7342648200  -0.1147645300  -1.7210794900
| 25> C   -4.7238973500   1.6309414100  -0.8317393400
| 26> C   -5.6547439200   2.6202012000  -0.1657949900
| 27> C   -7.1268698700   2.2074689000  -0.3051145900
| 28> H   -5.4959495400   3.6237627900  -0.5746624500
| 29> H   -5.4014204500   2.6660448500   0.9043253400
| 30> H   -7.4374041800   2.3018160400  -1.3546254900
| 31> H   -7.7625319600   2.8748051100   0.2883288900
| 32> O   -7.1430383300   0.5953810000   1.5472824700
| 33> H   -8.4031109300   0.4869088500  -0.0327242500
| 34> C   -4.0772516200  -0.6583761700  -0.0250680800
| 35> C   -3.7627750400   2.0106351300  -1.6808234700
| 36> H   -3.1153103500   1.2835236000  -2.1636767400
| 37> H   -3.6100863700   3.0606795500  -1.9189756700
| 38> C   -2.6936961000  -0.3628925300   0.2677947700
| 39> H   -4.4318995900  -1.6678537100   0.1797756900
| 40> C   -1.7432806500  -1.2495370200   0.6324500600
| 41> H   -2.4063349100   0.6832439100   0.1891654100
| 42> C   -1.9331742200  -2.7391576100   0.7642598800
| 43> C   -0.9259202000  -3.5166390500  -0.1057767000
| 44> H   -2.9511966100  -3.0527502800   0.5177221900
| 45> H   -1.7573360400  -3.0112407900   1.8171377800
| 46> C    0.5231174400  -3.0625083500   0.1173300700
| 47> H   -1.1957523100  -3.3921508300  -1.1621251000
| 48> H   -1.0131578200  -4.5878069900   0.1137968000
| 49> C    0.6813700100  -1.5461681200  -0.0598818500
| 50> H    1.1771646400  -3.6141505700  -0.5660944500
| 51> H    0.8320131600  -3.3267464000   1.1399705400
| 52> C   -0.3263467100  -0.8533960600   0.9133877800
| 53> H   -0.0768146900  -1.2659202900   1.9080531000
| 54> C    0.1010593600   0.6114888600   0.9122866200
| 55> H   -6.1892273200   0.5209515500   1.6935987800
| 56> C    1.6437218000   0.5402493100   0.8000005500
| 57> H   -0.2376311400   1.1395491400   1.8098153700
| 58> H   -0.3201419600   1.1392626200   0.0493589400
| 59> C    2.0122215700  -0.9350519700   0.4592789300
| 60> H    2.1365410400   0.8547408400   1.7252847700
| 61> H    2.0106273300   1.2095011100   0.0129905800
| 62> H    2.2529307200  -1.4625659700   1.3968637500
| 63> C    3.2648047400  -1.0110335500  -0.4372797700
| 64> C    0.4180836900  -1.1285237900  -1.5128486300
| 65> H    0.6359715000  -0.0676608600  -1.6722808300
| 66> H   -0.6264802400  -1.2930370400  -1.7948744900
| 67> H    1.0475702800  -1.7037256800  -2.2006510300
| 68> H    3.0545073000  -0.4671368800  -1.3699658600
| 69> C    3.6822884300  -2.4475341500  -0.7867348100
| 70> C    4.4138146500  -0.3222542500   0.2499079200
| 71> C    5.0835123000   0.7248840000  -0.2271487600
| 72> H    4.7138258700  -0.7502807300   1.2117855000
| 73> H    4.7821248700   1.1512038200  -1.1894985700
| 74> C    6.2268727400   1.4185439400   0.4591377400
| 75> C    5.7988949600   2.8489648500   0.8259760200
| 76> C    7.5003151800   1.3960336400  -0.4219597500
| 77> H    6.4559200400   0.8722626200   1.3882549900
| 78> H    7.2513101800   1.9068858300  -1.3663297200
| 79> C    7.9160284100  -0.0413847900  -0.7462482900
| 80> C    8.6675798700   2.1389814100   0.2340520700
| 81> H    5.6515874200   3.4506756100  -0.0797782300
| 82> H    6.5446106000   3.3500233300   1.4501638200
| 83> H    4.8531568600   2.8331094100   1.3775684200
| 84> H    7.1216310500  -0.5842984500  -1.2672499500
| 85> H    8.1445929600  -0.5889324600   0.1775450400
| 86> H    8.8124897600  -0.0548301000  -1.3758343000
| 87> H    8.4684899000   3.2079088400   0.3515575200
| 88> H    9.5747468200   2.0349683900  -0.3712884000
| 89> H    8.8783611700   1.7203562400   1.2267829400
| 90> H    2.9505276700  -2.9391767100  -1.4327658900
| 91> H    3.7951464400  -3.0515512000   0.1220123000
| 92> H    4.6440605200  -2.4439182600  -1.3110445700
| 93> *
| 94> %eprnmr
| 95>  Nuclei = all H { shift }
| 96>  origin giao
| 97>  giao_2el giao_2el_same_as_scf
| 98>  giao_1el giao_1el_analytic
| 99> end
|100> 
|101>                          ****END OF INPUT****
================================================================================

                       ****************************
                       * Single Point Calculation *
                       ****************************

---------------------------------
CARTESIAN COORDINATES (ANGSTROEM)
---------------------------------
  C     -4.997096    0.215134   -0.499493
  C     -6.444849   -0.183800   -0.661956
  C     -7.354041    0.760335    0.135076
  H     -6.600870   -1.218482   -0.336125
  H     -6.734265   -0.114765   -1.721079
  C     -4.723897    1.630941   -0.831739
  C     -5.654744    2.620201   -0.165795
  C     -7.126870    2.207469   -0.305115
  H     -5.495950    3.623763   -0.574662
  H     -5.401420    2.666045    0.904325
  H     -7.437404    2.301816   -1.354625
  H     -7.762532    2.874805    0.288329
  O     -7.143038    0.595381    1.547282
  H     -8.403111    0.486909   -0.032724
  C     -4.077252   -0.658376   -0.025068
  C     -3.762775    2.010635   -1.680823
  H     -3.115310    1.283524   -2.163677
  H     -3.610086    3.060680   -1.918976
  C     -2.693696   -0.362893    0.267795
  H     -4.431900   -1.667854    0.179776
  C     -1.743281   -1.249537    0.632450
  H     -2.406335    0.683244    0.189165
  C     -1.933174   -2.739158    0.764260
  C     -0.925920   -3.516639   -0.105777
  H     -2.951197   -3.052750    0.517722
  H     -1.757336   -3.011241    1.817138
  C      0.523117   -3.062508    0.117330
  H     -1.195752   -3.392151   -1.162125
  H     -1.013158   -4.587807    0.113797
  C      0.681370   -1.546168   -0.059882
  H      1.177165   -3.614151   -0.566094
  H      0.832013   -3.326746    1.139971
  C     -0.326347   -0.853396    0.913388
  H     -0.076815   -1.265920    1.908053
  C      0.101059    0.611489    0.912287
  H     -6.189227    0.520952    1.693599
  C      1.643722    0.540249    0.800001
  H     -0.237631    1.139549    1.809815
  H     -0.320142    1.139263    0.049359
  C      2.012222   -0.935052    0.459279
  H      2.136541    0.854741    1.725285
  H      2.010627    1.209501    0.012991
  H      2.252931   -1.462566    1.396864
  C      3.264805   -1.011034   -0.437280
  C      0.418084   -1.128524   -1.512849
  H      0.635972   -0.067661   -1.672281
  H     -0.626480   -1.293037   -1.794874
  H      1.047570   -1.703726   -2.200651
  H      3.054507   -0.467137   -1.369966
  C      3.682288   -2.447534   -0.786735
  C      4.413815   -0.322254    0.249908
  C      5.083512    0.724884   -0.227149
  H      4.713826   -0.750281    1.211785
  H      4.782125    1.151204   -1.189499
  C      6.226873    1.418544    0.459138
  C      5.798895    2.848965    0.825976
  C      7.500315    1.396034   -0.421960
  H      6.455920    0.872263    1.388255
  H      7.251310    1.906886   -1.366330
  C      7.916028   -0.041385   -0.746248
  C      8.667580    2.138981    0.234052
  H      5.651587    3.450676   -0.079778
  H      6.544611    3.350023    1.450164
  H      4.853157    2.833109    1.377568
  H      7.121631   -0.584298   -1.267250
  H      8.144593   -0.588932    0.177545
  H      8.812490   -0.054830   -1.375834
  H      8.468490    3.207909    0.351558
  H      9.574747    2.034968   -0.371288
  H      8.878361    1.720356    1.226783
  H      2.950528   -2.939177   -1.432766
  H      3.795146   -3.051551    0.122012
  H      4.644061   -2.443918   -1.311045

----------------------------
CARTESIAN COORDINATES (A.U.)
----------------------------
  NO LB      ZA    FRAG     MASS         X           Y           Z
   0 C     6.0000    0    12.011   -9.443142    0.406544   -0.943905
   1 C     6.0000    0    12.011  -12.179000   -0.347332   -1.250915
   2 C     6.0000    0    12.011  -13.897124    1.436824    0.255256
   3 H     1.0000    0     1.008  -12.473836   -2.302597   -0.635184
   4 H     1.0000    0     1.008  -12.725916   -0.216874   -3.252369
   5 C     6.0000    0    12.011   -8.926872    3.082033   -1.571760
   6 C     6.0000    0    12.011  -10.685917    4.951463   -0.313307
   7 C     6.0000    0    12.011  -13.467832    4.171512   -0.576583
   8 H     1.0000    0     1.008  -10.385839    6.847919   -1.085955
   9 H     1.0000    0     1.008  -10.207205    5.038095    1.708927
  10 H     1.0000    0     1.008  -14.054657    4.349802   -2.559871
  11 H     1.0000    0     1.008  -14.669060    5.432594    0.544863
  12 O     8.0000    0    15.999  -13.498386    1.125107    2.923940
  13 H     1.0000    0     1.008  -15.879578    0.920124   -0.061840
  14 C     6.0000    0    12.011   -7.704889   -1.244151   -0.047372
  15 C     6.0000    0    12.011   -7.110614    3.799550   -3.176296
  16 H     1.0000    0     1.008   -5.887083    2.425508   -4.088756
  17 H     1.0000    0     1.008   -6.822075    5.783846   -3.626338
  18 C     6.0000    0    12.011   -5.090348   -0.685767    0.506059
  19 H     1.0000    0     1.008   -8.375076   -3.151787    0.339727
  20 C     6.0000    0    12.011   -3.294323   -2.361283    1.195157
  21 H     1.0000    0     1.008   -4.547314    1.291144    0.357471
  22 C     6.0000    0    12.011   -3.653170   -5.176258    1.444242
  23 C     6.0000    0    12.011   -1.749736   -6.645485   -0.199889
  24 H     1.0000    0     1.008   -5.576953   -5.768862    0.978353
  25 H     1.0000    0     1.008   -3.320884   -5.690420    3.433893
  26 C     6.0000    0    12.011    0.988549   -5.787302    0.221722
  27 H     1.0000    0     1.008   -2.259644   -6.410236   -2.196098
  28 H     1.0000    0     1.008   -1.914591   -8.669699    0.215045
  29 C     6.0000    0    12.011    1.287603   -2.921834   -0.113160
  30 H     1.0000    0     1.008    2.224519   -6.829755   -1.069763
  31 H     1.0000    0     1.008    1.572277   -6.286640    2.154232
  32 C     6.0000    0    12.011   -0.616706   -1.612685    1.726053
  33 H     1.0000    0     1.008   -0.145159   -2.392243    3.605698
  34 C     6.0000    0    12.011    0.190975    1.155546    1.723972
  35 H     1.0000    0     1.008  -11.695945    0.984456    3.200438
  36 C     6.0000    0    12.011    3.106184    1.020923    1.511782
  37 H     1.0000    0     1.008   -0.449058    2.153436    3.420055
  38 H     1.0000    0     1.008   -0.604981    2.152894    0.093275
  39 C     6.0000    0    12.011    3.802548   -1.766992    0.867911
  40 H     1.0000    0     1.008    4.037477    1.615226    3.260316
  41 H     1.0000    0     1.008    3.799535    2.285626    0.024549
  42 H     1.0000    0     1.008    4.257422   -2.763849    2.639690
  43 C     6.0000    0    12.011    6.169587   -1.910577   -0.826339
  44 C     6.0000    0    12.011    0.790064   -2.132601   -2.858870
  45 H     1.0000    0     1.008    1.201812   -0.127860   -3.160153
  46 H     1.0000    0     1.008   -1.183876   -2.443486   -3.391821
  47 H     1.0000    0     1.008    1.979621   -3.219575   -4.158628
  48 H     1.0000    0     1.008    5.772182   -0.882761   -2.588860
  49 C     6.0000    0    12.011    6.958517   -4.625169   -1.486713
  50 C     6.0000    0    12.011    8.340901   -0.608972    0.472258
  51 C     6.0000    0    12.011    9.606446    1.369832   -0.429249
  52 H     1.0000    0     1.008    8.907840   -1.417825    2.289943
  53 H     1.0000    0     1.008    9.036906    2.175460   -2.247827
  54 C     6.0000    0    12.011   11.767084    2.680660    0.867645
  55 C     6.0000    0    12.011   10.958323    5.383763    1.560868
  56 C     6.0000    0    12.011   14.173542    2.638121   -0.797388
  57 H     1.0000    0     1.008   12.199921    1.648337    2.623422
  58 H     1.0000    0     1.008   13.702990    3.603492   -2.581989
  59 C     6.0000    0    12.011   14.959126   -0.078206   -1.410205
  60 C     6.0000    0    12.011   16.379352    4.042089    0.442294
  61 H     1.0000    0     1.008   10.679952    6.520832   -0.150759
  62 H     1.0000    0     1.008   12.367522    6.330627    2.740412
  63 H     1.0000    0     1.008    9.171137    5.353801    2.603227
  64 H     1.0000    0     1.008   13.457932   -1.104164   -2.394755
  65 H     1.0000    0     1.008   15.391050   -1.112921    0.335512
  66 H     1.0000    0     1.008   16.653192   -0.103614   -2.599950
  67 H     1.0000    0     1.008   16.003127    6.062069    0.664347
  68 H     1.0000    0     1.008   18.093649    3.845533   -0.701633
  69 H     1.0000    0     1.008   16.777671    3.251002    2.318284
  70 H     1.0000    0     1.008    5.575689   -5.554239   -2.707535
  71 H     1.0000    0     1.008    7.171787   -5.766596    0.230570
  72 H     1.0000    0     1.008    8.776003   -4.618336   -2.477515

--------------------------------
INTERNAL COORDINATES (ANGSTROEM)
--------------------------------
 C      0   0   0     0.000000000000     0.00000000     0.00000000
 C      1   0   0     1.510474530117     0.00000000     0.00000000
 C      2   1   0     1.534040552906   110.46502575     0.00000000
 H      2   1   3     1.095934850141   110.72138717   237.87940605
 H      2   1   3     1.100123122551   109.82368673   118.77247738
 C      1   2   3     1.479708195507   113.92365854   306.09926409
 C      6   1   2     1.512809355566   114.40835537    49.79928005
 C      3   2   1     1.529566008952   110.16588236    56.78018473
 H      7   6   1     1.095227884912   110.22109195   188.77643938
 H      7   6   1     1.100650689991   108.27701245    72.11463274
 H      8   3   2     1.098547254210   108.31334147    64.45392552
 H      8   3   2     1.096165623341   109.51496384   181.43472008
 O      3   2   1     1.437379338834   110.66058303   292.78011937
 H      3   2   1     1.097025719680   109.50561241   177.26844831
 C      1   2   3     1.354330575857   121.21940004   122.99104033
 C      6   1   2     1.337485430053   123.15086697   231.75860204
 H     16   6   1     1.086760775058   121.34896981   359.02453842
 H     16   6   1     1.087484981176   120.93286058   178.39316967
 C     15   1   2     1.444750880720   126.12267766   185.01369587
 H     15   1   2     1.089394812039   116.25856342     3.04636884
 C     19  15   1     1.349963503126   126.48678814   186.01260696
 H     19  15   1     1.087731805579   115.78795011     6.47879454
 C     21  19  15     1.507449136365   125.72927125     2.04400581
 C     23  21  19     1.541428461165   111.51565082   124.21837601
 H     23  21  19     1.093385010785   112.39493274     0.60156649
 H     23  21  19     1.101589848670   107.91074307   242.79090690
 C     24  23  21     1.534835953983   112.68340652    51.01251305
 H     24  23  21     1.097350730937   108.99249413   288.88048248
 H     24  23  21     1.096915529988   109.12296119   172.95889217
 C     27  24  23     1.534840588992   111.89306523   306.52724535
 H     27  24  23     1.095059794373   108.91169903   182.99525049
 H     27  24  23     1.100468919954   109.21049790    66.53904663
 C     21  19  15     1.497850277242   122.88525086   179.78286131
 H     33  21  19     1.105351332452   106.47695337   127.76120480
 C     33  21  19     1.525963626719   121.24577271     5.06964097
 H     13   3   2     0.967834514985   107.57938414    42.32911551
 C     35  33  21     1.548383233824   103.58804817   196.96704252
 H     35  33  21     1.095041903847   112.06789279    74.91501853
 H     35  33  21     1.095718884853   110.81120096   315.32108669
 C     30  27  24     1.553755688336   115.99615160   166.26924582
 H     37  35  33     1.094498338755   111.96740850   249.65148272
 H     37  35  33     1.096313063238   110.94109017   131.06143891
 H     40  30  27     1.102396121993   106.43917339   321.26595885
 C     40  30  27     1.542256561280   118.81880434    82.03699247
 C     30  27  24     1.534554963650   111.13151980   294.10782420
 H     45  30  27     1.094679807246   111.56161616   186.28061082
 H     45  30  27     1.094402576291   111.52111306    66.25394125
 H     45  30  27     1.095528512954   110.66886154   306.10225936
 H     44  40  30     1.099978155868   108.25712648    60.98233042
 C     44  40  30     1.536211388513   113.51736592   300.13845701
 C     44  40  30     1.505612041223   109.38693051   178.27003887
 C     51  44  40     1.331381437816   125.46013734   239.88432444
 H     51  44  40     1.094724567466   115.55042522    61.03725853
 H     52  51  44     1.094851646888   118.86448506     1.16459536
 C     52  51  44     1.503138838631   125.58914994   179.70791192
 C     55  52  51     1.537478222159   109.05892576   245.70930216
 C     55  52  51     1.548707573586   111.03826061   121.54685557
 H     55  52  51     1.101882394117   108.31933595     3.65964868
 H     57  55  52     1.102183328803   107.15528690    59.32006390
 C     57  55  52     1.531062470860   110.94107112   301.21295056
 C     57  55  52     1.531283694633   112.08670718   178.02944542
 H     56  55  52     1.097335915494   110.52296195   292.61594564
 H     56  55  52     1.093966099013   111.87079046   172.05488884
 H     56  55  52     1.094954850442   110.31323309    51.89261162
 H     60  57  55     1.094196114740   111.68811716    58.69304539
 H     60  57  55     1.097927284018   110.27454997   298.95369612
 H     60  57  55     1.095537435414   110.81940875   179.56821503
 H     61  57  55     1.093640799139   112.42526757   295.47845118
 H     61  57  55     1.095539898005   110.39121398   175.27982985
 H     61  57  55     1.097811627575   110.41066320    56.27361234
 H     50  44  40     1.092951221695   111.90946890    67.40265755
 H     50  44  40     1.096993544669   110.75599061   306.68992508
 H     50  44  40     1.095408303873   110.14530560   187.35818879

---------------------------
INTERNAL COORDINATES (A.U.)
---------------------------
 C      0   0   0     0.000000000000     0.00000000     0.00000000
 C      1   0   0     2.854383194184     0.00000000     0.00000000
 C      2   1   0     2.898916523322   110.46502575     0.00000000
 H      2   1   3     2.071016727386   110.72138717   237.87940605
 H      2   1   3     2.078931415215   109.82368673   118.77247738
 C      1   2   3     2.796243247627   113.92365854   306.09926409
 C      6   1   2     2.858795374854   114.40835537    49.79928005
 C      3   2   1     2.890460860674   110.16588236    56.78018473
 H      7   6   1     2.069680756718   110.22109195   188.77643938
 H      7   6   1     2.079928373194   108.27701245    72.11463274
 H      8   3   2     2.075953455628   108.31334147    64.45392552
 H      8   3   2     2.071452825534   109.51496384   181.43472008
 O      3   2   1     2.716253300953   110.66058303   292.78011937
 H      3   2   1     2.073078172063   109.50561241   177.26844831
 C      1   2   3     2.559313883165   121.21940004   122.99104033
 C      6   1   2     2.527481170911   123.15086697   231.75860204
 H     16   6   1     2.053680237948   121.34896981   359.02453842
 H     16   6   1     2.055048789176   120.93286058   178.39316967
 C     15   1   2     2.730183496302   126.12267766   185.01369587
 H     15   1   2     2.058657846468   116.25856342     3.04636884
 C     19  15   1     2.551061311696   126.48678814   186.01260696
 H     19  15   1     2.055515219700   115.78795011     6.47879454
 C     21  19  15     2.848666028546   125.72927125     2.04400581
 C     23  21  19     2.912877646633   111.51565082   124.21837601
 H     23  21  19     2.066198229318   112.39493274     0.60156649
 H     23  21  19     2.081703125894   107.91074307   242.79090690
 C     24  23  21     2.900419613524   112.68340652    51.01251305
 H     24  23  21     2.073692354330   108.99249413   288.88048248
 H     24  23  21     2.072869943723   109.12296119   172.95889217
 C     27  24  23     2.900428372422   111.89306523   306.52724535
 H     27  24  23     2.069363111633   108.91169903   182.99525049
 H     27  24  23     2.079584877604   109.21049790    66.53904663
 C     21  19  15     2.830526813604   122.88525086   179.78286131
 H     33  21  19     2.088811300099   106.47695337   127.76120480
 C     33  21  19     2.883653344824   121.24577271     5.06964097
 H     13   3   2     1.828942176278   107.57938414    42.32911551
 C     35  33  21     2.926020262283   103.58804817   196.96704252
 H     35  33  21     2.069329303438   112.06789279    74.91501853
 H     35  33  21     2.070608612139   110.81120096   315.32108669
 C     30  27  24     2.936172729977   115.99615160   166.26924582
 H     37  35  33     2.068302114278   111.96740850   249.65148272
 H     37  35  33     2.071731446561   110.94109017   131.06143891
 H     40  30  27     2.083226761663   106.43917339   321.26595885
 C     40  30  27     2.914442529063   118.81880434    82.03699247
 C     30  27  24     2.899888618749   111.13151980   294.10782420
 H     45  30  27     2.068645040028   111.56161616   186.28061082
 H     45  30  27     2.068121149447   111.52111306    66.25394125
 H     45  30  27     2.070248861385   110.66886154   306.10225936
 H     44  40  30     2.078657467887   108.25712648    60.98233042
 C     44  40  30     2.903018808101   113.51736592   300.13845701
 C     44  40  30     2.845194421845   109.38693051   178.27003887
 C     51  44  40     2.515946297259   125.46013734   239.88432444
 H     51  44  40     2.068729624586   115.55042522    61.03725853
 H     52  51  44     2.068969769891   118.86448506     1.16459536
 C     52  51  44     2.840520746272   125.58914994   179.70791192
 C     55  52  51     2.905412776748   109.05892576   245.70930216
 C     55  52  51     2.926633175608   111.03826061   121.54685557
 H     55  52  51     2.082255956671   108.31933595     3.65964868
 H     57  55  52     2.082824640811   107.15528690    59.32006390
 C     57  55  52     2.893288763850   110.94107112   301.21295056
 C     57  55  52     2.893706816195   112.08670718   178.02944542
 H     56  55  52     2.073664357200   110.52296195   292.61594564
 H     56  55  52     2.067296326928   111.87079046   172.05488884
 H     56  55  52     2.069164796345   110.31323309    51.89261162
 H     60  57  55     2.067730993659   111.68811716    58.69304539
 H     60  57  55     2.074781881754   110.27454997   298.95369612
 H     60  57  55     2.070265722390   110.81940875   179.56821503
 H     61  57  55     2.066681599255   112.42526757   295.47845118
 H     61  57  55     2.070270376014   110.39121398   175.27982985
 H     61  57  55     2.074563322751   110.41066320    56.27361234
 H     50  44  40     2.065378486739   111.90946890    67.40265755
 H     50  44  40     2.073017370104   110.75599061   306.68992508
 H     50  44  40     2.070021699144   110.14530560   187.35818879

---------------------
BASIS SET INFORMATION
---------------------
There are 3 groups of distinct atoms

 Group   1 Type C   : 8s5p1d contracted to 3s3p1d pattern {521/311/1}
 Group   2 Type H   : 4s2p contracted to 2s1p pattern {31/2}
 Group   3 Type O   : 8s5p1d contracted to 3s3p1d pattern {521/311/1}

Atom   0C    basis set group =>   1
Atom   1C    basis set group =>   1
Atom   2C    basis set group =>   1
Atom   3H    basis set group =>   2
Atom   4H    basis set group =>   2
Atom   5C    basis set group =>   1
Atom   6C    basis set group =>   1
Atom   7C    basis set group =>   1
Atom   8H    basis set group =>   2
Atom   9H    basis set group =>   2
Atom  10H    basis set group =>   2
Atom  11H    basis set group =>   2
Atom  12O    basis set group =>   3
Atom  13H    basis set group =>   2
Atom  14C    basis set group =>   1
Atom  15C    basis set group =>   1
Atom  16H    basis set group =>   2
Atom  17H    basis set group =>   2
Atom  18C    basis set group =>   1
Atom  19H    basis set group =>   2
Atom  20C    basis set group =>   1
Atom  21H    basis set group =>   2
Atom  22C    basis set group =>   1
Atom  23C    basis set group =>   1
Atom  24H    basis set group =>   2
Atom  25H    basis set group =>   2
Atom  26C    basis set group =>   1
Atom  27H    basis set group =>   2
Atom  28H    basis set group =>   2
Atom  29C    basis set group =>   1
Atom  30H    basis set group =>   2
Atom  31H    basis set group =>   2
Atom  32C    basis set group =>   1
Atom  33H    basis set group =>   2
Atom  34C    basis set group =>   1
Atom  35H    basis set group =>   2
Atom  36C    basis set group =>   1
Atom  37H    basis set group =>   2
Atom  38H    basis set group =>   2
Atom  39C    basis set group =>   1
Atom  40H    basis set group =>   2
Atom  41H    basis set group =>   2
Atom  42H    basis set group =>   2
Atom  43C    basis set group =>   1
Atom  44C    basis set group =>   1
Atom  45H    basis set group =>   2
Atom  46H    basis set group =>   2
Atom  47H    basis set group =>   2
Atom  48H    basis set group =>   2
Atom  49C    basis set group =>   1
Atom  50C    basis set group =>   1
Atom  51C    basis set group =>   1
Atom  52H    basis set group =>   2
Atom  53H    basis set group =>   2
Atom  54C    basis set group =>   1
Atom  55C    basis set group =>   1
Atom  56C    basis set group =>   1
Atom  57H    basis set group =>   2
Atom  58H    basis set group =>   2
Atom  59C    basis set group =>   1
Atom  60C    basis set group =>   1
Atom  61H    basis set group =>   2
Atom  62H    basis set group =>   2
Atom  63H    basis set group =>   2
Atom  64H    basis set group =>   2
Atom  65H    basis set group =>   2
Atom  66H    basis set group =>   2
Atom  67H    basis set group =>   2
Atom  68H    basis set group =>   2
Atom  69H    basis set group =>   2
Atom  70H    basis set group =>   2
Atom  71H    basis set group =>   2
Atom  72H    basis set group =>   2

-------------------------
BASIS SET IN INPUT FORMAT
-------------------------

 # Basis set for element : H 
 NewGTO H 
 S 3 
   1      12.2518000000      0.0372173893
   2       1.8687100000      0.2538082070
   3       0.4182080000      0.7973867639
 S 1 
   1       0.1061000000      1.0000000000
 P 2 
   1       9.0000000000      0.0402678705
   2       1.0000000000      0.9880231245
  end;

 # Basis set for element : C 
 NewGTO C 
 S 5 
   1    1243.2000000000      0.0056300977
   2     187.1450000000      0.0419506039
   3      42.5126000000      0.1846643605
   4      11.7393000000      0.4665574214
   5       3.5054800000      0.4482347783
 S 2 
   1       5.3908900000     -0.1481148174
   2       0.4933410000      1.0519817143
 S 1 
   1       0.1497410000      1.0000000000
 P 3 
   1      59.6736000000      0.0113906672
   2       9.1805600000      0.1672414929
   3       1.9365800000      0.9041087436
 P 1 
   1       0.5262960000      1.0000000000
 P 1 
   1       0.1363190000      1.0000000000
 D 1 
   1       0.8000000000      1.0000000000
  end;

 # Basis set for element : O 
 NewGTO O 
 S 5 
   1    2288.6400000000      0.0054511382
   2     344.4160000000      0.0407189228
   3      78.2538000000      0.1813694209
   4      21.7195000000      0.4655368202
   5       6.5590700000      0.4512113212
 S 2 
   1      10.4656000000     -0.1502112012
   2       0.9643510000      1.0528679834
 S 1 
   1       0.2851270000      1.0000000000
 P 3 
   1     110.8840000000      0.0113058003
   2      17.0590000000      0.1699226452
   3       3.6899900000      0.9008060328
 P 1 
   1       0.9929960000      1.0000000000
 P 1 
   1       0.2449240000      1.0000000000
 D 1 
   1       1.0000000000      1.0000000000
  end;

---------------------------------
AUXILIARY/J BASIS SET INFORMATION
---------------------------------
There are 3 groups of distinct atoms

 Group   1 Type C   : 12s5p4d2f1g contracted to 6s4p3d1f1g pattern {711111/2111/211/2/1}
 Group   2 Type H   : 5s2p1d contracted to 3s1p1d pattern {311/2/1}
 Group   3 Type O   : 12s5p4d2f1g contracted to 6s4p3d1f1g pattern {711111/2111/211/2/1}

Atom   0C    basis set group =>   1
Atom   1C    basis set group =>   1
Atom   2C    basis set group =>   1
Atom   3H    basis set group =>   2
Atom   4H    basis set group =>   2
Atom   5C    basis set group =>   1
Atom   6C    basis set group =>   1
Atom   7C    basis set group =>   1
Atom   8H    basis set group =>   2
Atom   9H    basis set group =>   2
Atom  10H    basis set group =>   2
Atom  11H    basis set group =>   2
Atom  12O    basis set group =>   3
Atom  13H    basis set group =>   2
Atom  14C    basis set group =>   1
Atom  15C    basis set group =>   1
Atom  16H    basis set group =>   2
Atom  17H    basis set group =>   2
Atom  18C    basis set group =>   1
Atom  19H    basis set group =>   2
Atom  20C    basis set group =>   1
Atom  21H    basis set group =>   2
Atom  22C    basis set group =>   1
Atom  23C    basis set group =>   1
Atom  24H    basis set group =>   2
Atom  25H    basis set group =>   2
Atom  26C    basis set group =>   1
Atom  27H    basis set group =>   2
Atom  28H    basis set group =>   2
Atom  29C    basis set group =>   1
Atom  30H    basis set group =>   2
Atom  31H    basis set group =>   2
Atom  32C    basis set group =>   1
Atom  33H    basis set group =>   2
Atom  34C    basis set group =>   1
Atom  35H    basis set group =>   2
Atom  36C    basis set group =>   1
Atom  37H    basis set group =>   2
Atom  38H    basis set group =>   2
Atom  39C    basis set group =>   1
Atom  40H    basis set group =>   2
Atom  41H    basis set group =>   2
Atom  42H    basis set group =>   2
Atom  43C    basis set group =>   1
Atom  44C    basis set group =>   1
Atom  45H    basis set group =>   2
Atom  46H    basis set group =>   2
Atom  47H    basis set group =>   2
Atom  48H    basis set group =>   2
Atom  49C    basis set group =>   1
Atom  50C    basis set group =>   1
Atom  51C    basis set group =>   1
Atom  52H    basis set group =>   2
Atom  53H    basis set group =>   2
Atom  54C    basis set group =>   1
Atom  55C    basis set group =>   1
Atom  56C    basis set group =>   1
Atom  57H    basis set group =>   2
Atom  58H    basis set group =>   2
Atom  59C    basis set group =>   1
Atom  60C    basis set group =>   1
Atom  61H    basis set group =>   2
Atom  62H    basis set group =>   2
Atom  63H    basis set group =>   2
Atom  64H    basis set group =>   2
Atom  65H    basis set group =>   2
Atom  66H    basis set group =>   2
Atom  67H    basis set group =>   2
Atom  68H    basis set group =>   2
Atom  69H    basis set group =>   2
Atom  70H    basis set group =>   2
Atom  71H    basis set group =>   2
Atom  72H    basis set group =>   2

-------------------------------------
AUXILIARY/J BASIS SET IN INPUT FORMAT
-------------------------------------

 # Auxiliary/J basis set for element : H 
 NewAuxJGTO H 
 S 3 
   1      15.6752927000      0.1007184237
   2       3.6063578000      0.3404257499
   3       1.2080016000      0.6491996172
 S 1 
   1       0.4726794000      1.0000000000
 S 1 
   1       0.2018100000      1.0000000000
 P 2 
   1       2.0281365000      0.5596620919
   2       0.5358730000      0.5596620919
 D 1 
   1       2.2165124000      1.0000000000
  end;

 # Auxiliary/J basis set for element : C 
 NewAuxJGTO C 
 S 7 
   1    1861.0916331000      0.0134602335
   2     642.9939764000      0.0299160374
   3     235.1105725000      0.1008649584
   4      90.7028894000      0.2370970548
   5      36.7794552000      0.3924037254
   6      15.6046273000      0.3195862154
   7       6.8907294000      0.0530104441
 S 1 
   1       3.1478850000     -1.0000000000
 S 1 
   1       1.4777287000      1.0000000000
 S 1 
   1       0.7076466000      1.0000000000
 S 1 
   1       0.3430122000      1.0000000000
 S 1 
   1       0.1669453000      1.0000000000
 P 2 
   1      13.5472892000     -0.6769313712
   2       5.4669419000     -0.3779500978
 P 1 
   1       2.1751721000      1.0000000000
 P 1 
   1       0.8582194000      1.0000000000
 P 1 
   1       0.3376720000      1.0000000000
 D 2 
   1       5.9287253000     -0.3533329857
   2       1.9809209000     -0.7456525731
 D 1 
   1       0.8055417000     -1.0000000000
 D 1 
   1       0.3531244000     -1.0000000000
 F 2 
   1       1.6755626000      0.6311076882
   2       0.5997536000      0.4968166032
 G 1 
   1       1.0024600000     -1.0000000000
  end;

 # Auxiliary/J basis set for element : O 
 NewAuxJGTO O 
 S 7 
   1    2876.8216605000      0.0168151159
   2    1004.7443032000      0.0340137548
   3     369.7579954000      0.1194951309
   4     142.9442404000      0.2664627624
   5      57.8366425000      0.4202764046
   6      24.3864983000      0.2765077335
   7      10.6622662000      0.0057008815
 S 1 
   1       4.8070437000     -1.0000000000
 S 1 
   1       2.2210770000      1.0000000000
 S 1 
   1       1.0447795000      1.0000000000
 S 1 
   1       0.4968425000      1.0000000000
 S 1 
   1       0.2371384000      1.0000000000
 P 2 
   1      64.2613382000     -0.2731534179
   2      16.3006076000     -0.8168011598
 P 1 
   1       4.3550542000      1.0000000000
 P 1 
   1       1.2019554000      1.0000000000
 P 1 
   1       0.3354196000      1.0000000000
 D 2 
   1       9.2146611000     -0.4661230638
   2       2.8435251000     -0.6600908911
 D 1 
   1       0.9955759000     -1.0000000000
 D 1 
   1       0.3649441000     -1.0000000000
 F 2 
   1       2.6420115000      0.5931563945
   2       0.7345613000      0.5931563945
 G 1 
   1       1.3931000000     -1.0000000000
  end;



           ************************************************************
           *        Program running with 4 parallel MPI-processes     *
           *              working on a common directory               *
           ************************************************************
------------------------------------------------------------------------------
                           ORCA GTO INTEGRAL CALCULATION
                           -- RI-GTO INTEGRALS CHOSEN --
------------------------------------------------------------------------------
------------------------------------------------------------------------------
                   ___                                                        
                  /   \      - P O W E R E D   B Y -                         
                 /     \                                                     
                 |  |  |   _    _      __       _____    __    __             
                 |  |  |  | |  | |    /  \     |  _  \  |  |  /  |          
                  \  \/   | |  | |   /    \    | | | |  |  | /  /          
                 / \  \   | |__| |  /  /\  \   | |_| |  |  |/  /          
                |  |  |   |  __  | /  /__\  \  |    /   |      \           
                |  |  |   | |  | | |   __   |  |    \   |  |\   \          
                \     /   | |  | | |  |  |  |  | |\  \  |  | \   \       
                 \___/    |_|  |_| |__|  |__|  |_| \__\ |__|  \__/        
                                                                              
                      - O R C A' S   B I G   F R I E N D -                    
                                      &                                       
                       - I N T E G R A L  F E E D E R -                       
                                                                              
 v1 FN, 2020, v2 2021                                                         
------------------------------------------------------------------------------


Reading SHARK input file inpS.SHARKINP.tmp ... ok
----------------------
SHARK INTEGRAL PACKAGE
----------------------

Number of atoms                             ...     73
Number of basis functions                   ...    713
Number of shells                            ...    335
Maximum angular momentum                    ...      2
Integral batch strategy                     ... SHARK/LIBINT Hybrid
RI-J (if used) integral strategy            ... SPLIT-RIJ (Revised 2003 algorithm where possible)
Printlevel                                  ...      1
Contraction scheme used                     ... SEGMENTED contraction
Coulomb Range Separation                    ... NOT USED
Exchange Range Separation                   ... NOT USED
Finite Nucleus Model                        ... NOT USED
Auxiliary Coulomb fitting basis             ... AVAILABLE
   # of basis functions in Aux-J            ...   1905
   # of shells in Aux-J                     ...    655
   Maximum angular momentum in Aux-J        ...      4
Auxiliary J/K fitting basis                 ... NOT available
Auxiliary Correlation fitting basis         ... NOT available
Auxiliary 'external' fitting basis          ... NOT available
Integral threshold                          ...     3.000000e-11
Primitive cut-off                           ...     1.000000e-12
Primitive pair pre-selection threshold      ...     1.000000e-12

Calculating pre-screening integrals         ... done (  0.0 sec) Dimension = 335
Organizing shell pair data                  ... done (  0.2 sec)
Shell pair information
Total number of shell pairs                 ...     56280
Shell pairs after pre-screening             ...     31321
Total number of primitive shell pairs       ...    225367
Primitive shell pairs kept                  ...     73803
          la=0 lb=0:   9565 shell pairs
          la=1 lb=0:  12874 shell pairs
          la=1 lb=1:   4208 shell pairs
          la=2 lb=0:   2731 shell pairs
          la=2 lb=1:   1747 shell pairs
          la=2 lb=2:    196 shell pairs

Calculating one electron integrals          ... done (  0.1 sec)
Calculating RI/J V-Matrix + Cholesky decomp.... done (  0.2 sec)
Calculating Nuclear repulsion               ... done (  0.0 sec) ENN=   2772.582069227696 Eh

SHARK setup successfully completed in   0.6 seconds

Maximum memory used throughout the entire GTOINT-calculation: 60.9 MB


           ************************************************************
           *        Program running with 4 parallel MPI-processes     *
           *              working on a common directory               *
           ************************************************************
-------------------------------------------------------------------------------
                                 ORCA SCF
-------------------------------------------------------------------------------

------------
SCF SETTINGS
------------
Hamiltonian:
 Density Functional     Method          .... DFT(GTOs)
 Exchange Functional    Exchange        .... revTPSS
 Correlation Functional Correlation     .... revTPSS
 LDA part of GGA corr.  LDAOpt          .... PW91-LDA
 Gradients option       PostSCFGGA      .... off
   Density functional embedding theory  .... OFF
 RI-approximation to the Coulomb term is turned on
   Number of AuxJ basis functions       .... 1905


General Settings:
 Integral files         IntName         .... inpS
 Hartree-Fock type      HFTyp           .... RHF
 Total Charge           Charge          ....    0
 Multiplicity           Mult            ....    1
 Number of Electrons    NEL             ....  220
 Basis Dimension        Dim             ....  713
 Nuclear Repulsion      ENuc            ....   2772.5820692277 Eh

Convergence Acceleration:
 DIIS                   CNVDIIS         .... on
   Start iteration      DIISMaxIt       ....    12
   Startup error        DIISStart       ....  0.200000
   # of expansion vecs  DIISMaxEq       ....     5
   Bias factor          DIISBfac        ....   1.050
   Max. coefficient     DIISMaxC        ....  10.000
 Trust-Rad. Augm. Hess. CNVTRAH         .... auto
   Auto Start mean grad. ratio tolernc. ....  1.125000
   Auto Start start iteration           ....    20
   Auto Start num. interpolation iter.  ....    10
   Max. Number of Micro iterations      ....    16
   Max. Number of Macro iterations      .... Maxiter - #DIIS iter
   Number of Davidson start vectors     ....     2
   Converg. threshold I  (grad. norm)   ....   1.000e-04
   Converg. threshold II (energy diff.) ....   1.000e-07
   Grad. Scal. Fac. for Micro threshold ....   0.100
   Minimum threshold for Micro iter.    ....   0.010
   NR start threshold (gradient norm)   ....   0.001
   Initial trust radius                 ....   0.400
   Minimum AH scaling param. (alpha)    ....   1.000
   Maximum AH scaling param. (alpha)    .... 1000.000
   Orbital update algorithm             .... Taylor
   White noise on init. David. guess    .... on
   Maximum white noise                  ....   0.010
   Quad. conv. algorithm                .... NR
 SOSCF                  CNVSOSCF        .... off
 Level Shifting         CNVShift        .... on
   Level shift para.    LevelShift      ....    0.2500
   Turn off err/grad.   ShiftErr        ....    0.0010
 Zerner damping         CNVZerner       .... off
 Static damping         CNVDamp         .... on
   Fraction old density DampFac         ....    0.7000
   Max. Damping (<1)    DampMax         ....    0.9800
   Min. Damping (>=0)   DampMin         ....    0.0000
   Turn off err/grad.   DampErr         ....    0.1000
 Fernandez-Rico         CNVRico         .... off

SCF Procedure:
 Maximum # iterations   MaxIter         ....   125
 SCF integral mode      SCFMode         .... Direct
   Integral package                     .... SHARK and LIBINT hybrid scheme
 Reset frequency        DirectResetFreq ....    20
 Integral Threshold     Thresh          ....  3.000e-11 Eh
 Primitive CutOff       TCut            ....  1.000e-12 Eh

Convergence Tolerance:
 Convergence Check Mode ConvCheckMode   .... Total+1el-Energy
 Convergence forced     ConvForced      .... 0
 Energy Change          TolE            ....  1.000e-07 Eh
 1-El. energy change                    ....  1.000e-04 Eh
 DIIS Error             TolErr          ....  1.000e-07


Diagonalization of the overlap matrix:
Smallest eigenvalue                        ... 5.182e-04
Time for diagonalization                   ...    0.065 sec
Threshold for overlap eigenvalues          ... 1.000e-08
Number of eigenvalues below threshold      ... 0
Time for construction of square roots      ...    0.054 sec
Total time needed                          ...    0.121 sec

Time for model grid setup =    0.750 sec

------------------------------
INITIAL GUESS: MODEL POTENTIAL
------------------------------
Loading Hartree-Fock densities                     ... done
Calculating cut-offs                               ... done
Initializing the effective Hamiltonian             ... done
Setting up the integral package (SHARK)            ... done
Starting the Coulomb interaction                   ... done (   0.6 sec)
Reading the grid                                   ... done
Mapping shells                                     ... done
Starting the XC term evaluation                    ... done (   0.3 sec)
  promolecular density results
     # of electrons  =    219.984545133
     EX              =   -164.428810824
     EC              =     -7.323393614
     EX+EC           =   -171.752204438
Transforming the Hamiltonian                       ... done (   0.0 sec)
Diagonalizing the Hamiltonian                      ... done (   0.1 sec)
Back transforming the eigenvectors                 ... done (   0.0 sec)
Now organizing SCF variables                       ... done
                      ------------------
                      INITIAL GUESS DONE (   1.9 sec)
                      ------------------
-------------------
DFT GRID GENERATION
-------------------

General Integration Accuracy     IntAcc      ... 4.388
Radial Grid Type                 RadialGrid  ... OptM3 with GC (2021)
Angular Grid (max. ang.)         AngularGrid ... 4 (Lebedev-302)
Angular grid pruning method      GridPruning ... 4 (adaptive)
Weight generation scheme         WeightScheme... Becke
Basis function cutoff            BFCut       ... 1.0000e-11
Integration weight cutoff        WCut        ... 1.0000e-14
Angular grids for H and He will be reduced by one unit
Partially contracted basis set               ... off
Rotationally invariant grid construction     ... off

Total number of grid points                  ...   310038
Total number of batches                      ...     4882
Average number of points per batch           ...       63
Average number of grid points per atom       ...     4247
Time for grid setup =    2.968 sec


--------------------
CPCM SOLVATION MODEL
--------------------
CPCM parameters:
  Epsilon                                         ...       4.9000
  Refrac                                          ...       1.4500
  Rsolv                                           ...       1.3000
  Surface type                                    ... GAUSSIAN VDW
  Epsilon function type                           ...         CPCM
Radii:
 Radius for C  used is    3.8550 Bohr (=   2.0400 Ang.)
 Radius for H  used is    2.4944 Bohr (=   1.3200 Ang.)
 Radius for O  used is    3.4469 Bohr (=   1.8240 Ang.)
Calculating surface                               ...        done! (  0.0s)
GEPOL surface points                              ...         3661
GEPOL Volume                                      ...    3601.3141
GEPOL Surface-area                                ...    1796.9940
Calculating surface distance matrix               ...        done! (  0.1s)
Performing Cholesky decomposition & store         ...        done! (  0.7s)
Overall time for CPCM initialization              ...                 0.9s
--------------
SCF ITERATIONS
--------------
ITER       Energy         Delta-E        Max-DP      RMS-DP      [F,P]     Damp
               ***  Starting incremental Fock matrix formation  ***

  HOMO= 109 E= -1.912 eV LUMO=  7.773 eV gap=   9.685 eV
  0  -1167.5263345447   0.000000000000 0.05542111  0.00082635  0.2632177 0.7000

  HOMO= 109 E= -3.433 eV LUMO=  6.671 eV gap=  10.104 eV
  1  -1167.8995645635  -0.373230018858 0.02899505  0.00061108  0.1015866 0.7000
                               ***Turning on DIIS***

  HOMO= 109 E= -4.409 eV LUMO=  5.787 eV gap=  10.197 eV
  2  -1168.0461618697  -0.146597306156 0.04817590  0.00100937  0.0319570 0.0000

  HOMO= 109 E= -5.030 eV LUMO=  5.205 eV gap=  10.235 eV
  3  -1168.2435827205  -0.197420850841 0.02331668  0.00047102  0.0546632 0.0000

  HOMO= 109 E= -5.052 eV LUMO=  5.182 eV gap=  10.234 eV
  4  -1168.3105972348  -0.067014514266 0.00755630  0.00015245  0.0103913 0.0000

  HOMO= 109 E= -5.009 eV LUMO=  5.232 eV gap=  10.242 eV
  5  -1168.3137063243  -0.003109089462 0.00347838  0.00005725  0.0105320 0.0000

  HOMO= 109 E= -4.990 eV LUMO=  5.249 eV gap=  10.239 eV
  6  -1168.3139881925  -0.000281868222 0.00124651  0.00001928  0.0029146 0.0000

  HOMO= 109 E= -4.991 eV LUMO= -1.555 eV gap=   3.436 eV
  7  -1168.3140077547  -0.000019562226 0.00069814  0.00001170  0.0005393 0.0000

  HOMO= 109 E= -4.989 eV LUMO= -1.553 eV gap=   3.436 eV
  8  -1168.3140108994  -0.000003144730 0.00025533  0.00000283  0.0003711 0.0000

  HOMO= 109 E= -4.987 eV LUMO= -1.552 eV gap=   3.436 eV
  9  -1168.3140115149  -0.000000615433 0.00015564  0.00000152  0.0002511 0.0000

  HOMO= 109 E= -4.988 eV LUMO= -1.552 eV gap=   3.436 eV
 10  -1168.3140117772  -0.000000262291 0.00007008  0.00000070  0.0000960 0.0000

  HOMO= 109 E= -4.988 eV LUMO= -1.552 eV gap=   3.436 eV
 11  -1168.3140118002  -0.000000023029 0.00003128  0.00000029  0.0000299 0.0000

  HOMO= 109 E= -4.988 eV LUMO= -1.552 eV gap=   3.436 eV
 12  -1168.3140117788   0.000000021359 0.00001530  0.00000014  0.0000168 0.0000

  HOMO= 109 E= -4.988 eV LUMO= -1.552 eV gap=   3.436 eV
 13  -1168.3140118077  -0.000000028842 0.00000665  0.00000006  0.0000076 0.0000
                 **** Energy Check signals convergence ****

               *****************************************************
               *                     SUCCESS                       *
               *           SCF CONVERGED AFTER  14 CYCLES          *
               *****************************************************


----------------
TOTAL SCF ENERGY
----------------

Total Energy       :        -1168.31401184 Eh          -31791.44051 eV

Components:
Nuclear Repulsion  :         2772.58206923 Eh           75445.79369 eV
Electronic Energy  :        -3940.89608106 Eh         -107237.23420 eV
One Electron Energy:        -7091.33230803 Eh         -192964.96225 eV
Two Electron Energy:         3150.43622697 Eh           85727.72805 eV
CPCM Dielectric    :           -0.00884086 Eh              -0.24057 eV

Virial components:
Potential Energy   :        -2330.42339108 Eh          -63414.04438 eV
Kinetic Energy     :         1162.10937925 Eh           31622.60387 eV
Virial Ratio       :            2.00533911


DFT components:
N(Alpha)           :      110.000020582307 electrons
N(Beta)            :      110.000020582307 electrons
N(Total)           :      220.000041164614 electrons
E(X)               :     -169.583070366189 Eh       
E(C)               :       -7.442239672640 Eh       
E(XC)              :     -177.025310038829 Eh       
DFET-embed. en.    :        0.000000000000 Eh       
CPCM Solvation Model Properties:
Surface-charge          :           -0.04580579
Charge-correction       :           -0.00006867 Eh              -0.00187 eV
Free-energy (cav+disp)  :  This term is not implemented in the current solvation scheme

---------------
SCF CONVERGENCE
---------------

  Last Energy change         ...   -2.9532e-08  Tolerance :   1.0000e-07
  Last MAX-Density change    ...    3.0920e-06  Tolerance :   1.0000e-05
  Last RMS-Density change    ...    2.9047e-08  Tolerance :   1.0000e-06
  Last DIIS Error            ...    3.3892e-06  Tolerance :   1.0000e-07

             **** THE GBW FILE WAS UPDATED (inpS.gbw) ****
             **** DENSITY inpS.scfp WAS UPDATED ****
             **** ENERGY FILE WAS UPDATED (inpS.en.tmp) ****
             **** THE GBW FILE WAS UPDATED (inpS.gbw) ****
             **** DENSITY inpS.scfp WAS UPDATED ****
----------------
ORBITAL ENERGIES
----------------

  NO   OCC          E(Eh)            E(eV) 
   0   2.0000     -18.903703      -514.3959 
   1   2.0000     -10.057188      -273.6700 
   2   2.0000     -10.016432      -272.5610 
   3   2.0000     -10.014661      -272.5128 
   4   2.0000     -10.012195      -272.4457 
   5   2.0000     -10.012064      -272.4421 
   6   2.0000     -10.012001      -272.4404 
   7   2.0000     -10.010104      -272.3888 
   8   2.0000     -10.009789      -272.3802 
   9   2.0000     -10.009678      -272.3772 
  10   2.0000     -10.009221      -272.3648 
  11   2.0000     -10.007598      -272.3206 
  12   2.0000     -10.007594      -272.3205 
  13   2.0000     -10.006389      -272.2877 
  14   2.0000     -10.006278      -272.2847 
  15   2.0000     -10.005649      -272.2676 
  16   2.0000     -10.005124      -272.2533 
  17   2.0000     -10.000988      -272.1407 
  18   2.0000     -10.000813      -272.1360 
  19   2.0000      -9.999612      -272.1033 
  20   2.0000      -9.999505      -272.1004 
  21   2.0000      -9.998685      -272.0780 
  22   2.0000      -9.997858      -272.0555 
  23   2.0000      -9.997638      -272.0496 
  24   2.0000      -9.997343      -272.0415 
  25   2.0000      -9.996644      -272.0225 
  26   2.0000      -9.995817      -272.0000 
  27   2.0000      -9.995369      -271.9878 
  28   2.0000      -9.993776      -271.9445 
  29   2.0000      -0.954375       -25.9699 
  30   2.0000      -0.807804       -21.9815 
  31   2.0000      -0.789474       -21.4827 
  32   2.0000      -0.770561       -20.9680 
  33   2.0000      -0.757261       -20.6061 
  34   2.0000      -0.734695       -19.9921 
  35   2.0000      -0.727944       -19.8084 
  36   2.0000      -0.708961       -19.2918 
  37   2.0000      -0.708826       -19.2881 
  38   2.0000      -0.694459       -18.8972 
  39   2.0000      -0.676153       -18.3991 
  40   2.0000      -0.659913       -17.9571 
  41   2.0000      -0.655236       -17.8299 
  42   2.0000      -0.636088       -17.3088 
  43   2.0000      -0.627288       -17.0694 
  44   2.0000      -0.625313       -17.0156 
  45   2.0000      -0.619251       -16.8507 
  46   2.0000      -0.591312       -16.0904 
  47   2.0000      -0.583833       -15.8869 
  48   2.0000      -0.555512       -15.1162 
  49   2.0000      -0.547683       -14.9032 
  50   2.0000      -0.540943       -14.7198 
  51   2.0000      -0.533732       -14.5236 
  52   2.0000      -0.525902       -14.3105 
  53   2.0000      -0.507262       -13.8033 
  54   2.0000      -0.506282       -13.7766 
  55   2.0000      -0.485604       -13.2140 
  56   2.0000      -0.472649       -12.8614 
  57   2.0000      -0.463455       -12.6113 
  58   2.0000      -0.451273       -12.2798 
  59   2.0000      -0.444571       -12.0974 
  60   2.0000      -0.433651       -11.8003 
  61   2.0000      -0.425466       -11.5775 
  62   2.0000      -0.417655       -11.3650 
  63   2.0000      -0.416918       -11.3449 
  64   2.0000      -0.411167       -11.1884 
  65   2.0000      -0.405056       -11.0221 
  66   2.0000      -0.403023       -10.9668 
  67   2.0000      -0.400666       -10.9027 
  68   2.0000      -0.397774       -10.8240 
  69   2.0000      -0.391479       -10.6527 
  70   2.0000      -0.387926       -10.5560 
  71   2.0000      -0.382587       -10.4107 
  72   2.0000      -0.377748       -10.2790 
  73   2.0000      -0.372784       -10.1440 
  74   2.0000      -0.371355       -10.1051 
  75   2.0000      -0.367687       -10.0053 
  76   2.0000      -0.362047        -9.8518 
  77   2.0000      -0.356723        -9.7069 
  78   2.0000      -0.355435        -9.6719 
  79   2.0000      -0.347663        -9.4604 
  80   2.0000      -0.345435        -9.3998 
  81   2.0000      -0.344374        -9.3709 
  82   2.0000      -0.343106        -9.3364 
  83   2.0000      -0.336818        -9.1653 
  84   2.0000      -0.335990        -9.1428 
  85   2.0000      -0.325838        -8.8665 
  86   2.0000      -0.323213        -8.7951 
  87   2.0000      -0.320750        -8.7280 
  88   2.0000      -0.315160        -8.5759 
  89   2.0000      -0.310431        -8.4473 
  90   2.0000      -0.309497        -8.4218 
  91   2.0000      -0.305836        -8.3222 
  92   2.0000      -0.301195        -8.1959 
  93   2.0000      -0.296080        -8.0568 
  94   2.0000      -0.290450        -7.9035 
  95   2.0000      -0.288893        -7.8612 
  96   2.0000      -0.286175        -7.7872 
  97   2.0000      -0.284474        -7.7409 
  98   2.0000      -0.282081        -7.6758 
  99   2.0000      -0.282020        -7.6741 
 100   2.0000      -0.275589        -7.4992 
 101   2.0000      -0.274476        -7.4689 
 102   2.0000      -0.271789        -7.3957 
 103   2.0000      -0.269182        -7.3248 
 104   2.0000      -0.259988        -7.0746 
 105   2.0000      -0.248603        -6.7648 
 106   2.0000      -0.230084        -6.2609 
 107   2.0000      -0.228660        -6.2222 
 108   2.0000      -0.212525        -5.7831 
 109   2.0000      -0.183297        -4.9878 
 110   0.0000      -0.057035        -1.5520 
 111   0.0000      -0.014204        -0.3865 
 112   0.0000      -0.005861        -0.1595 
 113   0.0000       0.030648         0.8340 
 114   0.0000       0.039248         1.0680 
 115   0.0000       0.040455         1.1008 
 116   0.0000       0.047167         1.2835 
 117   0.0000       0.047957         1.3050 
 118   0.0000       0.052228         1.4212 
 119   0.0000       0.058121         1.5815 
 120   0.0000       0.059960         1.6316 
 121   0.0000       0.060970         1.6591 
 122   0.0000       0.068783         1.8717 
 123   0.0000       0.071776         1.9531 
 124   0.0000       0.078971         2.1489 
 125   0.0000       0.080533         2.1914 
 126   0.0000       0.082951         2.2572 
 127   0.0000       0.084521         2.2999 
 128   0.0000       0.087386         2.3779 
 129   0.0000       0.093258         2.5377 
 130   0.0000       0.097076         2.6416 
 131   0.0000       0.100381         2.7315 
 132   0.0000       0.103534         2.8173 
 133   0.0000       0.106252         2.8913 
 134   0.0000       0.107753         2.9321 
 135   0.0000       0.110186         2.9983 
 136   0.0000       0.115269         3.1366 
 137   0.0000       0.119629         3.2553 
 138   0.0000       0.123282         3.3547 
 139   0.0000       0.124505         3.3880 
 140   0.0000       0.127103         3.4586 
 141   0.0000       0.127907         3.4805 
 142   0.0000       0.129444         3.5223 
 143   0.0000       0.132418         3.6033 
 144   0.0000       0.136596         3.7170 
 145   0.0000       0.138572         3.7707 
 146   0.0000       0.140227         3.8158 
 147   0.0000       0.144791         3.9400 
 148   0.0000       0.145582         3.9615 
 149   0.0000       0.148209         4.0330 
 150   0.0000       0.151044         4.1101 
 151   0.0000       0.155442         4.2298 
 152   0.0000       0.159931         4.3519 
 153   0.0000       0.162630         4.4254 
 154   0.0000       0.166117         4.5203 
 155   0.0000       0.174357         4.7445 
 156   0.0000       0.176338         4.7984 
 157   0.0000       0.180215         4.9039 
 158   0.0000       0.180956         4.9241 
 159   0.0000       0.184878         5.0308 
 160   0.0000       0.187389         5.0991 
 161   0.0000       0.191661         5.2154 
 162   0.0000       0.193301         5.2600 
 163   0.0000       0.195801         5.3280 
 164   0.0000       0.203030         5.5247 
 165   0.0000       0.205390         5.5889 
 166   0.0000       0.207317         5.6414 
 167   0.0000       0.208217         5.6659 
 168   0.0000       0.212969         5.7952 
 169   0.0000       0.216458         5.8901 
 170   0.0000       0.217398         5.9157 
 171   0.0000       0.223023         6.0688 
 172   0.0000       0.227472         6.1898 
 173   0.0000       0.229627         6.2485 
 174   0.0000       0.232554         6.3281 
 175   0.0000       0.245175         6.6716 
 176   0.0000       0.249017         6.7761 
 177   0.0000       0.252817         6.8795 
 178   0.0000       0.261337         7.1114 
 179   0.0000       0.263936         7.1821 
 180   0.0000       0.271688         7.3930 
 181   0.0000       0.276638         7.5277 
 182   0.0000       0.284649         7.7457 
 183   0.0000       0.293679         7.9914 
 184   0.0000       0.295673         8.0457 
 185   0.0000       0.322329         8.7710 
 186   0.0000       0.334508         9.1024 
 187   0.0000       0.335719         9.1354 
 188   0.0000       0.344707         9.3800 
 189   0.0000       0.346615         9.4319 
 190   0.0000       0.354665         9.6509 
 191   0.0000       0.358932         9.7670 
 192   0.0000       0.363597         9.8940 
 193   0.0000       0.369041        10.0421 
 194   0.0000       0.374229        10.1833 
 195   0.0000       0.378376        10.2961 
 196   0.0000       0.383723        10.4416 
 197   0.0000       0.386890        10.5278 
 198   0.0000       0.391717        10.6592 
 199   0.0000       0.397634        10.8202 
 200   0.0000       0.403305        10.9745 
 201   0.0000       0.407786        11.0964 
 202   0.0000       0.410095        11.1593 
 203   0.0000       0.417954        11.3731 
 204   0.0000       0.421942        11.4816 
 205   0.0000       0.428053        11.6479 
 206   0.0000       0.441185        12.0053 
 207   0.0000       0.441882        12.0242 
 208   0.0000       0.452212        12.3053 
 209   0.0000       0.454488        12.3672 
 210   0.0000       0.459101        12.4928 
 211   0.0000       0.463715        12.6183 
 212   0.0000       0.465769        12.6742 
 213   0.0000       0.475070        12.9273 
 214   0.0000       0.477456        12.9922 
 215   0.0000       0.483205        13.1487 
 216   0.0000       0.490875        13.3574 
 217   0.0000       0.492153        13.3922 
 218   0.0000       0.498967        13.5776 
 219   0.0000       0.500541        13.6204 
 220   0.0000       0.503224        13.6934 
 221   0.0000       0.509905        13.8752 
 222   0.0000       0.511479        13.9180 
 223   0.0000       0.515843        14.0368 
 224   0.0000       0.518151        14.0996 
 225   0.0000       0.525401        14.2969 
 226   0.0000       0.534536        14.5455 
 227   0.0000       0.538888        14.6639 
 228   0.0000       0.541568        14.7368 
 229   0.0000       0.543110        14.7788 
 230   0.0000       0.544701        14.8221 
 231   0.0000       0.554193        15.0803 
 232   0.0000       0.554668        15.0933 
 233   0.0000       0.561069        15.2675 
 234   0.0000       0.567735        15.4489 
 235   0.0000       0.571242        15.5443 
 236   0.0000       0.572165        15.5694 
 237   0.0000       0.572846        15.5879 
 238   0.0000       0.575771        15.6675 
 239   0.0000       0.578192        15.7334 
 240   0.0000       0.582846        15.8600 
 241   0.0000       0.584640        15.9089 
 242   0.0000       0.591330        16.0909 
 243   0.0000       0.593131        16.1399 
 244   0.0000       0.595370        16.2008 
 245   0.0000       0.597989        16.2721 
 246   0.0000       0.599893        16.3239 
 247   0.0000       0.602164        16.3857 
 248   0.0000       0.604647        16.4533 
 249   0.0000       0.604792        16.4572 
 250   0.0000       0.607361        16.5271 
 251   0.0000       0.608388        16.5551 
 252   0.0000       0.609704        16.5909 
 253   0.0000       0.612885        16.6774 
 254   0.0000       0.615393        16.7457 
 255   0.0000       0.617699        16.8085 
 256   0.0000       0.621425        16.9098 
 257   0.0000       0.626476        17.0473 
 258   0.0000       0.628524        17.1030 
 259   0.0000       0.629248        17.1227 
 260   0.0000       0.631633        17.1876 
 261   0.0000       0.636858        17.3298 
 262   0.0000       0.638320        17.3696 
 263   0.0000       0.641688        17.4612 
 264   0.0000       0.644251        17.5310 
 265   0.0000       0.646343        17.5879 
 266   0.0000       0.650155        17.6916 
 267   0.0000       0.651482        17.7277 
 268   0.0000       0.653360        17.7788 
 269   0.0000       0.656475        17.8636 
 270   0.0000       0.661803        18.0086 
 271   0.0000       0.663740        18.0613 
 272   0.0000       0.668194        18.1825 
 273   0.0000       0.671700        18.2779 
 274   0.0000       0.676547        18.4098 
 275   0.0000       0.677831        18.4447 
 276   0.0000       0.683359        18.5951 
 277   0.0000       0.684105        18.6154 
 278   0.0000       0.688046        18.7227 
 279   0.0000       0.689805        18.7705 
 280   0.0000       0.694433        18.8965 
 281   0.0000       0.698242        19.0001 
 282   0.0000       0.702502        19.1160 
 283   0.0000       0.704684        19.1754 
 284   0.0000       0.710267        19.3273 
 285   0.0000       0.714484        19.4421 
 286   0.0000       0.720993        19.6192 
 287   0.0000       0.724881        19.7250 
 288   0.0000       0.731480        19.9046 
 289   0.0000       0.734274        19.9806 
 290   0.0000       0.739388        20.1198 
 291   0.0000       0.741787        20.1851 
 292   0.0000       0.747520        20.3410 
 293   0.0000       0.751157        20.4400 
 294   0.0000       0.753275        20.4977 
 295   0.0000       0.762482        20.7482 
 296   0.0000       0.769331        20.9345 
 297   0.0000       0.775175        21.0936 
 298   0.0000       0.782079        21.2815 
 299   0.0000       0.789382        21.4802 
 300   0.0000       0.798237        21.7211 
 301   0.0000       0.802718        21.8431 
 302   0.0000       0.811538        22.0831 
 303   0.0000       0.822271        22.3751 
 304   0.0000       0.830059        22.5870 
 305   0.0000       0.847856        23.0713 
 306   0.0000       0.857337        23.3293 
 307   0.0000       0.872849        23.7514 
 308   0.0000       0.884832        24.0775 
 309   0.0000       0.894666        24.3451 
 310   0.0000       0.927664        25.2430 
 311   0.0000       0.936000        25.4699 
 312   0.0000       0.946768        25.7629 
 313   0.0000       0.960112        26.1260 
 314   0.0000       0.973229        26.4829 
 315   0.0000       0.988156        26.8891 
 316   0.0000       1.003869        27.3167 
 317   0.0000       1.026520        27.9330 
 318   0.0000       1.027761        27.9668 
 319   0.0000       1.042157        28.3585 
 320   0.0000       1.051040        28.6003 
 321   0.0000       1.066521        29.0215 
 322   0.0000       1.087530        29.5932 
 323   0.0000       1.091555        29.7027 
 324   0.0000       1.098167        29.8826 
 325   0.0000       1.112149        30.2631 
 326   0.0000       1.127672        30.6855 
 327   0.0000       1.148489        31.2520 
 328   0.0000       1.159238        31.5445 
 329   0.0000       1.177270        32.0351 
 330   0.0000       1.193662        32.4812 
 331   0.0000       1.203015        32.7357 
 332   0.0000       1.235050        33.6074 
 333   0.0000       1.250423        34.0257 
 334   0.0000       1.256726        34.1973 
 335   0.0000       1.263998        34.3951 
 336   0.0000       1.272475        34.6258 
 337   0.0000       1.279945        34.8291 
 338   0.0000       1.296100        35.2687 
 339   0.0000       1.308210        35.5982 
 340   0.0000       1.327288        36.1173 
 341   0.0000       1.333495        36.2862 
 342   0.0000       1.340536        36.4778 
 343   0.0000       1.345086        36.6017 
 344   0.0000       1.353533        36.8315 
 345   0.0000       1.370710        37.2989 
 346   0.0000       1.386756        37.7356 
 347   0.0000       1.390908        37.8485 
 348   0.0000       1.408984        38.3404 
 349   0.0000       1.412961        38.4486 
 350   0.0000       1.420053        38.6416 
 351   0.0000       1.433453        39.0063 
 352   0.0000       1.445033        39.3214 
 353   0.0000       1.447116        39.3780 
 354   0.0000       1.456593        39.6359 
 355   0.0000       1.463903        39.8348 
 356   0.0000       1.479722        40.2653 
 357   0.0000       1.482826        40.3497 
 358   0.0000       1.492289        40.6072 
 359   0.0000       1.506495        40.9938 
 360   0.0000       1.509929        41.0872 
 361   0.0000       1.522068        41.4176 
 362   0.0000       1.527942        41.5774 
 363   0.0000       1.532415        41.6991 
 364   0.0000       1.551490        42.2182 
 365   0.0000       1.562191        42.5094 
 366   0.0000       1.563744        42.5516 
 367   0.0000       1.581591        43.0373 
 368   0.0000       1.588678        43.2301 
 369   0.0000       1.601650        43.5831 
 370   0.0000       1.604952        43.6730 
 371   0.0000       1.611853        43.8608 
 372   0.0000       1.625536        44.2331 
 373   0.0000       1.630785        44.3759 
 374   0.0000       1.636121        44.5211 
 375   0.0000       1.646911        44.8147 
 376   0.0000       1.661138        45.2019 
 377   0.0000       1.667466        45.3741 
 378   0.0000       1.680355        45.7248 
 379   0.0000       1.683970        45.8232 
 380   0.0000       1.686963        45.9046 
 381   0.0000       1.691786        46.0358 
 382   0.0000       1.694953        46.1220 
 383   0.0000       1.706159        46.4269 
 384   0.0000       1.706799        46.4444 
 385   0.0000       1.713642        46.6306 
 386   0.0000       1.718298        46.7573 
 387   0.0000       1.728878        47.0452 
 388   0.0000       1.732421        47.1416 
 389   0.0000       1.739998        47.3478 
 390   0.0000       1.747915        47.5632 
 391   0.0000       1.751152        47.6513 
 392   0.0000       1.752896        47.6987 
 393   0.0000       1.761867        47.9428 
 394   0.0000       1.769773        48.1580 
 395   0.0000       1.772151        48.2227 
 396   0.0000       1.773915        48.2707 
 397   0.0000       1.787583        48.6426 
 398   0.0000       1.789027        48.6819 
 399   0.0000       1.791809        48.7576 
 400   0.0000       1.797671        48.9171 
 401   0.0000       1.808287        49.2060 
 402   0.0000       1.810297        49.2607 
 403   0.0000       1.820881        49.5487 
 404   0.0000       1.824097        49.6362 
 405   0.0000       1.828589        49.7584 
 406   0.0000       1.831639        49.8414 
 407   0.0000       1.844511        50.1917 
 408   0.0000       1.851493        50.3817 
 409   0.0000       1.854360        50.4597 
 410   0.0000       1.857777        50.5527 
 411   0.0000       1.865977        50.7758 
 412   0.0000       1.870826        50.9078 
 413   0.0000       1.879695        51.1491 
 414   0.0000       1.886068        51.3225 
 415   0.0000       1.891541        51.4714 
 416   0.0000       1.895471        51.5784 
 417   0.0000       1.907289        51.9000 
 418   0.0000       1.908645        51.9369 
 419   0.0000       1.921962        52.2992 
 420   0.0000       1.929155        52.4950 
 421   0.0000       1.933403        52.6106 
 422   0.0000       1.939601        52.7792 
 423   0.0000       1.949887        53.0591 
 424   0.0000       1.952116        53.1198 
 425   0.0000       1.954917        53.1960 
 426   0.0000       1.964020        53.4437 
 427   0.0000       1.969938        53.6047 
 428   0.0000       1.973466        53.7007 
 429   0.0000       1.976768        53.7906 
 430   0.0000       1.979453        53.8636 
 431   0.0000       1.988089        54.0986 
 432   0.0000       1.989734        54.1434 
 433   0.0000       1.992045        54.2063 
 434   0.0000       1.996279        54.3215 
 435   0.0000       1.999592        54.4117 
 436   0.0000       2.000899        54.4472 
 437   0.0000       2.008666        54.6586 
 438   0.0000       2.011138        54.7258 
 439   0.0000       2.018895        54.9369 
 440   0.0000       2.026166        55.1348 
 441   0.0000       2.029010        55.2122 
 442   0.0000       2.035718        55.3947 
 443   0.0000       2.037790        55.4511 
[...]

 --------------
 Nucleus  47H :
 --------------

Diamagnetic contribution to the shielding tensor (ppm) : 
            33.303         -3.392        -5.476
            -6.385         36.477        10.002
            -7.036          9.907        47.200

Paramagnetic contribution to the shielding tensor (ppm): 
            -1.804          1.881         3.190
             4.745         -8.975        -7.504
             3.961         -6.754       -12.249

Total shielding tensor (ppm): 
            31.499         -1.511        -2.286
            -1.640         27.502         2.498
            -3.075          3.153        34.951


 Diagonalized sT*s matrix:
 
 sDSO            31.143           31.274           54.564  iso=      38.993
 sPSO            -4.691           -1.236          -17.101  iso=      -7.676
        ---------------  ---------------  ---------------
 Total           26.452           30.038           37.463  iso=      31.318

 --------------
 Nucleus  48H :
 --------------

Diamagnetic contribution to the shielding tensor (ppm) : 
            37.372         -0.716        -2.742
            -9.673         40.251         2.997
            -4.221          2.308        44.447

Paramagnetic contribution to the shielding tensor (ppm): 
            -5.086          2.197         2.793
            11.303        -11.818        -4.336
             3.401         -4.206       -15.197

Total shielding tensor (ppm): 
            32.286          1.481         0.051
             1.630         28.433        -1.339
            -0.820         -1.898        29.250


 Diagonalized sT*s matrix:
 
 sDSO            46.221           40.177           35.672  iso=      40.690
 sPSO           -19.250          -10.250           -2.601  iso=     -10.700
        ---------------  ---------------  ---------------
 Total           26.971           29.927           33.071  iso=      29.990

 --------------
 Nucleus  52H :
 --------------

Diamagnetic contribution to the shielding tensor (ppm) : 
            38.830         -0.832         1.716
             2.145         39.825        -1.359
             4.030         -4.547        43.264

Paramagnetic contribution to the shielding tensor (ppm): 
            -8.381          3.913        -2.100
             0.584        -13.383         1.904
            -3.610          5.724       -20.585

Total shielding tensor (ppm): 
            30.448          3.082        -0.384
             2.729         26.442         0.544
             0.419          1.177        22.680


 Diagonalized sT*s matrix:
 
 sDSO            45.035           37.200           39.685  iso=      40.640
 sPSO           -22.602          -12.055           -7.692  iso=     -14.116
        ---------------  ---------------  ---------------
 Total           22.434           25.144           31.992  iso=      26.523

 --------------
 Nucleus  53H :
 --------------

Diamagnetic contribution to the shielding tensor (ppm) : 
            37.595         -0.263         1.242
            -4.252         41.323        -3.647
            -0.370         -1.174        48.743

Paramagnetic contribution to the shielding tensor (ppm): 
            -7.364          3.783        -2.173
             7.035        -14.780         4.007
             0.433          2.314       -25.810

Total shielding tensor (ppm): 
            30.231          3.520        -0.931
             2.783         26.544         0.361
             0.063          1.140        22.933


 Diagonalized sT*s matrix:
 
 sDSO            49.425           41.639           36.598  iso=      42.554
 sPSO           -26.840          -16.554           -4.561  iso=     -15.985
        ---------------  ---------------  ---------------
 Total           22.585           25.085           32.037  iso=      26.569

 --------------
 Nucleus  57H :
 --------------

Diamagnetic contribution to the shielding tensor (ppm) : 
            34.327         -1.817        -0.016
             9.232         41.060        -4.973
             9.837         -4.600        43.529

Paramagnetic contribution to the shielding tensor (ppm): 
            -4.002          2.519         0.554
            -8.063        -10.878         3.648
           -10.108          2.503       -12.701

Total shielding tensor (ppm): 
            30.325          0.702         0.538
             1.169         30.182        -1.325
            -0.271         -2.097        30.827


 Diagonalized sT*s matrix:
 
 sDSO            32.536           40.631           45.749  iso=      39.639
 sPSO            -4.124          -10.086          -13.373  iso=      -9.194
        ---------------  ---------------  ---------------
 Total           28.412           30.545           32.376  iso=      30.445

 --------------
 Nucleus  58H :
 --------------

Diamagnetic contribution to the shielding tensor (ppm) : 
            32.650          2.409         1.182
             1.569         19.519       -14.146
            -7.605        -11.695        43.814

Paramagnetic contribution to the shielding tensor (ppm): 
            -2.951         -2.067        -0.429
            -1.770         10.015        11.740
             8.544          8.847       -10.794

Total shielding tensor (ppm): 
            29.699          0.342         0.754
            -0.201         29.534        -2.406
             0.939         -2.849        33.020


 Diagonalized sT*s matrix:
 
 sDSO            15.778           32.501           47.705  iso=      31.995
 sPSO            12.214           -2.776          -13.169  iso=      -1.244
        ---------------  ---------------  ---------------
 Total           27.993           29.725           34.536  iso=      30.751

 --------------
 Nucleus  61H :
 --------------

Diamagnetic contribution to the shielding tensor (ppm) : 
            23.906         -3.344         0.270
            16.590         43.333        -8.170
            10.743         -4.510        39.136

Paramagnetic contribution to the shielding tensor (ppm): 
             5.541          1.632         0.598
           -17.987         -9.226         4.506
            -9.992          1.808        -9.565

Total shielding tensor (ppm): 
            29.446         -1.712         0.867
            -1.396         34.107        -3.665
             0.751         -2.702        29.572


 Diagonalized sT*s matrix:
 
 sDSO            34.752           27.034           44.590  iso=      35.458
 sPSO            -6.821            1.958           -8.388  iso=      -4.417
        ---------------  ---------------  ---------------
 Total           27.931           28.992           36.202  iso=      31.042

 --------------
 Nucleus  62H :
 --------------

Diamagnetic contribution to the shielding tensor (ppm) : 
            25.352          4.281         4.427
            28.800         35.521         0.244
            23.051          8.026        39.178

Paramagnetic contribution to the shielding tensor (ppm): 
             5.553         -2.848        -2.884
           -26.005         -4.074         5.018
           -21.393         -3.018       -10.557

Total shielding tensor (ppm): 
            30.905          1.433         1.543
             2.795         31.446         5.262
             1.658          5.009        28.621


 Diagonalized sT*s matrix:
 
 sDSO            33.828           11.528           54.695  iso=      33.350
 sPSO            -9.120           18.142          -18.101  iso=      -3.026
        ---------------  ---------------  ---------------
 Total           24.708           29.670           36.595  iso=      30.324

 --------------
 Nucleus  63H :
 --------------

Diamagnetic contribution to the shielding tensor (ppm) : 
            33.108         -5.629        -7.903
            17.645         45.510         3.608
             5.662         11.246        35.114

Paramagnetic contribution to the shielding tensor (ppm): 
             0.951          5.348         3.768
           -18.409        -15.491        -1.012
            -9.532         -8.884        -6.444

Total shielding tensor (ppm): 
            34.058         -0.281        -4.134
            -0.765         30.019         2.596
            -3.870          2.362        28.670


 Diagonalized sT*s matrix:
 
 sDSO            28.931           50.133           34.667  iso=      37.911
 sPSO            -3.303          -19.628            1.946  iso=      -6.995
        ---------------  ---------------  ---------------
 Total           25.628           30.505           36.613  iso=      30.916

 --------------
 Nucleus  64H :
 --------------

Diamagnetic contribution to the shielding tensor (ppm) : 
            37.851          2.683         1.035
           -21.892         28.291         4.214
           -11.615          0.434        29.833

Paramagnetic contribution to the shielding tensor (ppm): 
            -4.822         -0.816        -0.552
            24.780          2.553         0.540
            12.259          3.903        -2.458

Total shielding tensor (ppm): 
            33.029          1.868         0.483
             2.888         30.844         4.754
             0.644          4.337        27.375


 Diagonalized sT*s matrix:
 
 sDSO            27.473           45.599           22.904  iso=      31.992
 sPSO            -3.322          -14.357           12.951  iso=      -1.576
        ---------------  ---------------  ---------------
 Total           24.151           31.242           35.855  iso=      30.416

 --------------
 Nucleus  65H :
 --------------

Diamagnetic contribution to the shielding tensor (ppm) : 
            33.483         -3.848         1.045
           -23.321         23.692        -9.328
            -2.872        -13.400        29.622

Paramagnetic contribution to the shielding tensor (ppm): 
            -2.713          1.778         0.311
            20.922          9.547         6.000
             3.576         10.666         0.272

Total shielding tensor (ppm): 
            30.770         -2.070         1.356
            -2.399         33.239        -3.328
             0.704         -2.734        29.894


 Diagonalized sT*s matrix:
 
 sDSO            15.504           27.982           43.311  iso=      28.932
 sPSO            12.567            1.706           -7.167  iso=       2.369
        ---------------  ---------------  ---------------
 Total           28.071           29.688           36.144  iso=      31.301

 --------------
 Nucleus  66H :
 --------------

Diamagnetic contribution to the shielding tensor (ppm) : 
            38.847         -1.994        -7.622
           -20.449          8.727        -5.070
           -16.704         -6.231        26.344

Paramagnetic contribution to the shielding tensor (ppm): 
            -5.220          0.633         2.681
            17.936         20.361         7.585
            11.734          8.422         3.751

Total shielding tensor (ppm): 
            33.628         -1.362        -4.941
            -2.513         29.088         2.515
            -4.970          2.192        30.095


 Diagonalized sT*s matrix:
 
 sDSO            24.687            3.338           45.894  iso=      24.640
 sPSO             1.590           25.108           -7.806  iso=       6.297
        ---------------  ---------------  ---------------
 Total           26.277           28.446           38.088  iso=      30.937

 --------------
 Nucleus  67H :
 --------------

Diamagnetic contribution to the shielding tensor (ppm) : 
            24.904          5.796         1.953
            26.240         25.800        -5.570
            11.240         -4.672        21.144

Paramagnetic contribution to the shielding tensor (ppm): 
             5.705         -3.032        -1.657
           -24.690          9.564         7.423
           -11.536          7.006         4.136

Total shielding tensor (ppm): 
            30.609          2.764         0.295
             1.549         35.364         1.853
            -0.296          2.335        25.280


 Diagonalized sT*s matrix:
 
 sDSO            23.882           13.535           34.431  iso=      23.949
 sPSO             0.948           16.351            2.106  iso=       6.468
        ---------------  ---------------  ---------------
 Total           24.830           29.886           36.537  iso=      30.418

 --------------
 Nucleus  68H :
 --------------

Diamagnetic contribution to the shielding tensor (ppm) : 
            39.940          5.950        -3.628
             8.903          1.814        -8.047
            -5.655        -12.461        12.777

Paramagnetic contribution to the shielding tensor (ppm): 
            -3.226         -3.939         0.125
            -6.410         25.947         8.444
             2.838         12.904        15.300

Total shielding tensor (ppm): 
            36.713          2.011        -3.503
             2.493         27.761         0.397
            -2.816          0.443        28.076


 Diagonalized sT*s matrix:
 
 sDSO            15.012           -3.048           42.566  iso=      18.177
 sPSO            11.103           31.345           -4.427  iso=      12.673
        ---------------  ---------------  ---------------
 Total           26.115           28.297           38.139  iso=      30.850

 --------------
 Nucleus  69H :
 --------------

Diamagnetic contribution to the shielding tensor (ppm) : 
            31.074          3.750         5.722
             9.898         10.084        -9.752
            19.942         -7.945        29.642

Paramagnetic contribution to the shielding tensor (ppm): 
             0.967         -3.553        -1.587
            -9.322         17.846         9.274
           -16.237          7.147         4.212

Total shielding tensor (ppm): 
            32.042          0.197         4.136
             0.576         27.930        -0.478
             3.705         -0.798        33.855


 Diagonalized sT*s matrix:
 
 sDSO             2.738           25.261           42.801  iso=      23.600
 sPSO            24.825            4.023           -5.822  iso=       7.675
        ---------------  ---------------  ---------------
 Total           27.563           29.284           36.979  iso=      31.276

 --------------
 Nucleus  70H :
 --------------

Diamagnetic contribution to the shielding tensor (ppm) : 
            31.334          0.965         4.054
           -10.471         39.772        13.072
            -3.276         10.029        37.157

Paramagnetic contribution to the shielding tensor (ppm): 
             1.029         -0.329        -3.699
            12.279         -9.109        -7.906
             4.014         -5.550        -9.513

Total shielding tensor (ppm): 
            32.363          0.636         0.356
             1.808         30.663         5.166
             0.739          4.480        27.644


 Diagonalized sT*s matrix:
 
 sDSO            27.208           38.279           42.776  iso=      36.088
 sPSO            -3.118           -6.586           -7.890  iso=      -5.864
        ---------------  ---------------  ---------------
 Total           24.090           31.693           34.886  iso=      30.223

 --------------
 Nucleus  71H :
 --------------

Diamagnetic contribution to the shielding tensor (ppm) : 
            28.280         -7.185         0.182
           -15.763         40.996         1.507
            -3.965         -5.606        35.004

Paramagnetic contribution to the shielding tensor (ppm): 
             2.509          4.933         0.464
            13.939         -7.785        -5.232
             4.181          3.055        -6.147

Total shielding tensor (ppm): 
            30.789         -2.252         0.647
            -1.824         33.211        -3.726
             0.216         -2.551        28.857


 Diagonalized sT*s matrix:
 
 sDSO            31.982           26.159           46.139  iso=      34.760
 sPSO            -4.867            3.902          -10.459  iso=      -3.808
        ---------------  ---------------  ---------------
 Total           27.114           30.061           35.681  iso=      30.952

 --------------
 Nucleus  72H :
 --------------

Diamagnetic contribution to the shielding tensor (ppm) : 
            36.424         -7.655        -8.385
           -19.986         27.459         7.289
           -15.789          4.617        30.430

Paramagnetic contribution to the shielding tensor (ppm): 
            -1.554          6.496         3.820
            18.458          2.201        -4.774
            11.442         -2.237        -2.281

Total shielding tensor (ppm): 
            34.871         -1.160        -4.564
            -1.529         29.660         2.514
            -4.348          2.380        28.149


 Diagonalized sT*s matrix:
 
 sDSO            23.276           19.197           51.840  iso=      31.438
 sPSO             2.008           10.439          -14.081  iso=      -0.545
        ---------------  ---------------  ---------------
 Total           25.284           29.636           37.759  iso=      30.893



--------------------------------
CHEMICAL SHIELDING SUMMARY (ppm)
--------------------------------


  Nucleus  Element    Isotropic     Anisotropy
  -------  -------  ------------   ------------
      3       H           29.369          6.469 
      4       H           29.052          7.393 
      8       H           29.572          7.932 
      9       H           29.338          5.437 
     10       H           30.107          8.315 
     11       H           29.859         10.226 
     13       H           27.735          7.775 
     16       H           26.793          4.765 
     17       H           26.511          4.864 
     19       H           25.408         10.372 
     21       H           25.603         14.599 
     24       H           28.913         10.068 
     25       H           30.045          9.623 
     27       H           30.244          6.988 
     28       H           30.116         11.819 
     30       H           29.765          8.148 
     31       H           30.428          7.066 
     33       H           29.766          4.443 
     35       H           30.165         14.726 
     37       H           30.398         10.663 
     38       H           30.251          9.741 
     40       H           30.080          9.485 
     41       H           30.558          9.123 
     42       H           30.557          5.056 
     45       H           31.270          7.223 
     46       H           31.026          8.014 
     47       H           31.318          9.218 
     48       H           29.990          4.623 
     52       H           26.523          8.203 
     53       H           26.569          8.202 
     57       H           30.445          2.898 
     58       H           30.751          5.677 
     61       H           31.042          7.741 
     62       H           30.324          9.406 
     63       H           30.916          8.547 
     64       H           30.416          8.158 
     65       H           31.301          7.265 
     66       H           30.937         10.727 
     67       H           30.418          9.179 
     68       H           30.850         10.933 
     69       H           31.276          8.555 
     70       H           30.223          6.995 
     71       H           30.952          7.093 
     72       H           30.893         10.299 



Maximum memory used throughout the entire EPRNMR-calculation: 140.3 MB

Timings for individual modules:

Sum of individual times         ...      143.418 sec (=   2.390 min)
GTO integral calculation        ...        0.831 sec (=   0.014 min)   0.6 %
SCF iterations                  ...       97.908 sec (=   1.632 min)  68.3 %
EPR/NMR calculation             ...       44.679 sec (=   0.745 min)  31.2 %
                             ****ORCA TERMINATED NORMALLY****
TOTAL RUN TIME: 0 days 0 hours 2 minutes 23 seconds 932 msec
