
                                 *****************
                                 * O   R   C   A *
                                 *****************

                                            #,                                       
                                            ###                                      
                                            ####                                     
                                            #####                                    
                                            ######                                   
                                           ########,                                 
                                     ,,################,,,,,                         
                               ,,#################################,,                 
                          ,,##########################################,,             
                       ,#########################################, ''#####,          
                    ,#############################################,,   '####,        
                  ,##################################################,,,,####,       
                ,###########''''           ''''###############################       
              ,#####''   ,,,,##########,,,,          '''####'''          '####       
            ,##' ,,,,###########################,,,                        '##       
           ' ,,###''''                  '''############,,,                           
         ,,##''                                '''############,,,,        ,,,,,,###''
      ,#''                                            '''#######################'''  
     '                                                          ''''####''''         
             ,#######,   #######,   ,#######,      ##                                
            ,#'     '#,  ##    ##  ,#'     '#,    #''#        ,####,   ,####,        
            ##       ##  ##   ,#'  ##            #'  '#       #'       #'  '#        
            ##       ##  #######   ##           ,######,      #####,   #    #        
            '#,     ,#'  ##    ##  '#,     ,#' ,#      #,     #,   #   #,  ,#        
             '#######'   ##     ##  '#######'  #'      '#     '####' # '####'        



                #########################################################
                #                        -***-                          #
                #          Department of theory and spectroscopy        #
                #                                                       #
                #                      Frank Neese                      #
                #                                                       #
                #     Directorship, Architecture, Infrastructure        #
                #                    SHARK, DRIVERS                     #
                #        Core code/Algorithms in most modules           #
                #                                                       #
                #        Max Planck Institute fuer Kohlenforschung      #
                #                Kaiser Wilhelm Platz 1                 #
                #                 D-45470 Muelheim/Ruhr                 #
                #                      Germany                          #
                #                                                       #
                #                  All rights reserved                  #
                #                        -***-                          #
                #########################################################


                         Program Version 6.0.0  -   RELEASE  -


 With contributions from (in alphabetic order):
   Daniel Aravena         : Magnetic Suceptibility
   Michael Atanasov       : Ab Initio Ligand Field Theory (pilot matlab implementation)
   Alexander A. Auer      : GIAO ZORA, VPT2 properties, NMR spectrum
   Ute Becker             : All parallelization in ORCA, NUMFREQ, NUMCALC
   Giovanni Bistoni       : ED, misc. LED, open-shell LED, HFLD
   Martin Brehm           : Molecular dynamics
   Dmytro Bykov           : pre 5.0 version of the SCF Hessian
   Marcos Casanova-Páez   : Triplet and SCS-CIS(D). UHF-(DLPNO)-IP/EA/STEOM-CCSD. UHF-CVS-IP/STEOM-CCSD
   Vijay G. Chilkuri      : MRCI spin determinant printing, contributions to CSF-ICE
   Pauline Colinet        : FMM embedding
   Dipayan Datta          : RHF DLPNO-CCSD density
   Achintya Kumar Dutta   : EOM-CC, STEOM-CC
   Nicolas Foglia         : Exact transition moments, OPA infrastructure, MCD improvements
   Dmitry Ganyushin       : Spin-Orbit,Spin-Spin,Magnetic field MRCI
   Miquel Garcia          : C-PCM and meta-GGA Hessian, CCSD/C-PCM, Gaussian charge scheme
   Tiago L. C. Gouveia    : GS-ROHF, GS-ROCIS
   Yang Guo               : DLPNO-NEVPT2, F12-NEVPT2, CIM, IAO-localization
   Andreas Hansen         : Spin unrestricted coupled pair/coupled cluster methods
   Ingolf Harden          : AUTO-CI MPn and infrastructure 
   Benjamin Helmich-Paris : MC-RPA, TRAH-(SCF,CASSCF), AVAS, COSX integrals, SCF dyn. polar.
   Lee Huntington         : MR-EOM, pCC
   Robert Izsak           : Overlap fitted RIJCOSX, COSX-SCS-MP3, EOM
   Riya Kayal             : Wick's Theorem for AUTO-CI, AUTO-CI UHF-CCSDT
   Emily Kempfer          : AUTO-CI, RHF CISDT and CCSDT
   Christian Kollmar      : KDIIS, OOCD, Brueckner-CCSD(T), CCSD density, CASPT2, CASPT2-K, improved NEVPT2
   Axel Koslowski         : Symmetry handling
   Simone Kossmann        : Meta GGA functionals, TD-DFT gradient, OOMP2, (MP2 Hessian; deprecated post 5.0)
   Lucas Lang             : DCDCAS
   Marvin Lechner         : AUTO-CI (C++ implementation), FIC-MRCC
   Spencer Leger          : CASSCF response
   Dagmar Lenk            : GEPOL surface, SMD, ORCA-2-JSON
   Dimitrios Liakos       : Extrapolation schemes; Compound Job, initial MDCI parallelization
   Dimitrios Manganas     : Further ROCIS development; embedding schemes. LFT, Crystal Embedding
   Dimitrios Pantazis     : SARC Basis sets
   Anastasios Papadopoulos: AUTO-CI, single reference methods and gradients
   Taras Petrenko         : pre 6.0 DFT Hessian and TD-DFT gradient, (ASA, deprecated), ECA, 1-Electron XAS/XES, NRVS
   Peter Pinski           : DLPNO-MP2, DLPNO-MP2 Gradient
   Christoph Reimann      : Effective Core Potentials
   Marius Retegan         : Local ZFS, SOC
   Christoph Riplinger    : Optimizer, TS searches, QM/MM, DLPNO-CCSD(T), (RO)-DLPNO pert. Triples
   Michael Roemelt        : Original ROCIS implementation
   Masaaki Saitow         : Open-shell DLPNO-CCSD energy and density
   Barbara Sandhoefer     : DKH picture change effects
   Kantharuban Sivalingam : CASSCF convergence/infrastructure, NEVPT2 and variants, FIC-MRCI
   Bernardo de Souza      : ESD, SOC TD-DFT
   Georgi Stoychev        : AutoAux, RI-MP2 NMR, DLPNO-MP2 response, X2C
   Van Anh Tran           : RI-MP2 g-tensors
   Willem Van den Heuvel  : Paramagnetic NMR
   Zikuan Wang            : NOTCH, Electric field optimization 
   Frank Wennmohs         : Technical directorship and infrastructure
   Hang Xu                : AUTO-CI-Response properties 


 We gratefully acknowledge several colleagues who have allowed us to
 interface, adapt or use parts of their codes:
   Stefan Grimme, W. Hujo, H. Kruse, P. Pracht,  : VdW corrections, initial TS optimization,
                  C. Bannwarth, S. Ehlert,         DFT functionals, gCP, sTDA/sTD-DF
                  L. Wittmann, M. Mueller
   Ed Valeev, F. Pavosevic, A. Kumar             : LibInt (2-el integral package), F12 methods
   Garnet Chan, S. Sharma, J. Yang, R. Olivares  : DMRG
   Ulf Ekstrom                                   : XCFun DFT Library
   Mihaly Kallay                                 : mrcc  (arbitrary order and MRCC methods)
   Frank Weinhold                                : gennbo (NPA and NBO analysis)
   Simon Mueller                                 : openCOSMO-RS
   Christopher J. Cramer and Donald G. Truhlar   : smd solvation model
   Lars Goerigk                                  : TD-DFT with DH, B97 family of functionals
   V. Asgeirsson, H. Jonsson                     : NEB implementation
   FAccTs GmbH                                   : IRC, NEB, NEB-TS, DLPNO-Multilevel, CI-OPT
                                                   MM, QMMM, 2- and 3-layer-ONIOM, Crystal-QMMM,
                                                   LR-CPCM, SF, NACMEs, symmetry and pop. for TD-DFT,
                                                   nearIR, NL-DFT gradient (VV10), updates on ESD,
                                                   ML-optimized integration grids, MBIS, APM,
                                                   GOAT, DOCKER, SOLVATOR, interface openCOSMO-RS
   S Lehtola, MJT Oliveira, MAL Marques          : LibXC Library
   Liviu Ungur et al                             : ANISO software


 Your calculation uses the libint2 library for the computation of 2-el integrals
 For citations please refer to: http://libint.valeyev.net

 Your ORCA version has been built with support for libXC version: 6.2.2
 For citations please refer to: https://libxc.gitlab.io

 This ORCA versions uses:
   CBLAS   interface :  Fast vector & matrix operations
   LAPACKE interface :  Fast linear algebra routines
   SCALAPACK package :  Parallel linear algebra routines
   Shared memory     :  Shared parallel matrices
   BLAS/LAPACK       :  OpenBLAS 0.3.27  USE64BITINT DYNAMIC_ARCH NO_AFFINITY Zen SINGLE_THREADED
        Core in use  :  Zen
   Copyright (c) 2011-2014, The OpenBLAS Project


NOTE: MaxCore=8000 MB was set to SCF,MP2,MDCI,CIPSI,MRCI and CIS
      => If you want to overwrite this, your respective input block should be placed after the MaxCore statement
Your calculation utilizes the atom-pairwise dispersion correction
based on EEQ partial charges (D4)


================================================================================

----- Orbital basis set information -----
Your calculation utilizes the basis: pcJ-0
   F. Jensen, Theor. Chem. Acc. 126, 371 (2010).

----- AuxJ basis set information -----
Your calculation utilizes the auxiliary basis: def2/J
   F. Weigend, Phys. Chem. Chem. Phys. 8, 1057 (2006).

================================================================================
                                        WARNINGS
                       Please study these warnings very carefully!
================================================================================

WARNING: Old DensityContainer found on disk!
         Will remove this file - 
         If you want to keep old densities, please start your calculation with a different basename. 


================================================================================
                                       INPUT FILE
================================================================================
NAME = inpJ
|  1> ! pbe0
|  2> ! D4
|  3> ! pcJ-0
|  4> ! def2/J RIJCOSX
|  5> ! DEFGRID2
|  6> ! scfconv7
|  7> ! smallprint printgap noloewdin
|  8> ! NOSOSCF
|  9> %MaxCore 8000
| 10> %output
| 11>        print[P_BondOrder_M] 1
| 12>        print[P_Mayer] 1
| 13>        print[P_basis] 2
| 14> end
| 15> %pal
| 16>     nprocs 4
| 17> end
| 18> ! CPCM(chloroform)
| 19> *xyz 0 1
| 20> C   -5.1923445600   0.0870798100  -0.5682693100
| 21> C   -6.6229940800  -0.3888938300  -0.6599190300
| 22> C   -7.5620389400   0.5946777100   0.0501888900
| 23> H   -6.7280225300  -1.3888898900  -0.2241517000
| 24> H   -6.9307862900  -0.4447371100  -1.7146631300
| 25> C   -4.9871579100   1.4713977900  -1.0490791600
| 26> C   -5.9531898800   2.4836589600  -0.4743450200
| 27> C   -7.4064234900   1.9951414400  -0.5453899700
| 28> H   -5.8444661000   3.4446830600  -0.9881937600
| 29> H   -5.6900328100   2.6521222400   0.5810625400
| 30> H   -7.7332528100   1.9623615900  -1.5935923800
| 31> H   -8.0647353600   2.6936357700  -0.0158179900
| 32> O   -7.3234689400   0.5900643000   1.4677171800
| 33> H   -8.6001025500   0.2601671200  -0.0677862600
| 34> C   -4.2262779400  -0.6916843600  -0.0253967100
| 35> C   -4.0529981700   1.8015715500  -1.9477325300
| 36> H   -3.3796082100   1.0562112500  -2.3624572900
| 37> H   -3.9488991000   2.8267415900  -2.2954417400
| 38> C   -2.8544965600  -0.3043990300   0.2109637400
| 39> H   -4.5295487200  -1.6894885400   0.2894699800
| 40> C   -1.8571959900  -1.1038940900   0.6452527700
| 41> H   -2.6198119700   0.7414585200   0.0257269900
| 42> C   -1.9713695600  -2.5811006000   0.9244402200
| 43> C   -0.9220884200  -3.3895159200   0.1360148600
| 44> H   -2.9714823500  -2.9669813200   0.7089139000
| 45> H   -1.7880514800  -2.7386975300   1.9991964200
| 46> C    0.5005818100  -2.8419255400   0.3133201100
| 47> H   -1.1914477300  -3.3842631500  -0.9277172000
| 48> H   -0.9561614800  -4.4364300800   0.4615128100
| 49> C    0.5823741600  -1.3463773600  -0.0236094200
| 50> H    1.1875468100  -3.4281267500  -0.3060125100
| 51> H    0.8136746200  -2.9803754800   1.3591925200
| 52> C   -0.4625060400  -0.6080164900   0.8721352500
| 53> H   -0.1929996900  -0.8938788400   1.9059030500
| 54> C   -0.1126793900   0.8665316600   0.7044099300
| 55> H   -6.3652486600   0.5775949200   1.6030406400
| 56> C    1.4332565100   0.8616810700   0.6316350200
| 57> H   -0.4964697100   1.4795380400   1.5267763800
| 58> H   -0.5405885800   1.2651901500  -0.2223322900
| 59> C    1.8826588600  -0.6191101200   0.4251104400
| 60> H    1.8736088800   1.2778603400   1.5418860600
| 61> H    1.7933632700   1.4836549000  -0.1967320400
| 62> H    2.1467627100  -1.0497627400   1.4037459600
| 63> C    3.1143040200  -0.7187117900  -0.4859791000
| 64> C    0.2922622700  -1.0991782500  -1.5110031800
| 65> H    0.4758825200  -0.0571253100  -1.7919141200
| 66> H   -0.7504752000  -1.3230745300  -1.7563842900
| 67> H    0.9287011400  -1.7291895100  -2.1415855400
| 68> H    2.8476395900  -0.2583156600  -1.4502860900
| 69> C    3.5710493500  -2.1604855500  -0.7755600300
| 70> C    4.3113523400   0.0431272300   0.0388434000
| 71> C    4.5739714600   0.3785308400   1.3016028200
| 72> H    5.0632820500   0.2810158700  -0.7191400200
| 73> H    3.8567108100   0.1336087900   2.0867832500
| 74> C    5.8272741700   1.0738409000   1.7550318900
| 75> C    6.5963306700   0.1907834100   2.7485888700
| 76> C    5.5480624900   2.4871947900   2.3335895800
| 77> H    6.4655665900   1.2222334200   0.8709990700
| 78> H    6.5273390200   2.8876330900   2.6386873900
| 79> C    4.6415949000   2.4761851600   3.5673117100
| 80> C    4.9724247000   3.4136604200   1.2613406700
| 81> H    5.9733111500  -0.0863254200   3.6060853500
| 82> H    7.4840688100   0.7109905200   3.1275350100
| 83> H    6.9207846100  -0.7360068200   2.2639508100
| 84> H    5.0332070500   1.8354720400   4.3637685500
| 85> H    3.6340201000   2.1269607400   3.3124739900
| 86> H    4.5445159300   3.4892881600   3.9730888400
| 87> H    5.6214121500   3.4534666800   0.3786426700
| 88> H    4.8584615200   4.4330056100   1.6469682800
| 89> H    3.9861025300   3.0615506800   0.9360074700
| 90> H    2.8507605200  -2.7042996100  -1.3922739300
| 91> H    3.7124837700  -2.7106339200   0.1622085100
| 92> H    4.5284896200  -2.1560208000  -1.3085780500
| 93> *
| 94> %eprnmr
| 95>  Nuclei = all C { ssfc }
| 96>  SpinSpinRThresh 8.0
| 97> end
| 98> 
| 99>                          ****END OF INPUT****
================================================================================

                       ****************************
                       * Single Point Calculation *
                       ****************************

---------------------------------
CARTESIAN COORDINATES (ANGSTROEM)
---------------------------------
  C     -5.192345    0.087080   -0.568269
  C     -6.622994   -0.388894   -0.659919
  C     -7.562039    0.594678    0.050189
  H     -6.728023   -1.388890   -0.224152
  H     -6.930786   -0.444737   -1.714663
  C     -4.987158    1.471398   -1.049079
  C     -5.953190    2.483659   -0.474345
  C     -7.406423    1.995141   -0.545390
  H     -5.844466    3.444683   -0.988194
  H     -5.690033    2.652122    0.581063
  H     -7.733253    1.962362   -1.593592
  H     -8.064735    2.693636   -0.015818
  O     -7.323469    0.590064    1.467717
  H     -8.600103    0.260167   -0.067786
  C     -4.226278   -0.691684   -0.025397
  C     -4.052998    1.801572   -1.947733
  H     -3.379608    1.056211   -2.362457
  H     -3.948899    2.826742   -2.295442
  C     -2.854497   -0.304399    0.210964
  H     -4.529549   -1.689489    0.289470
  C     -1.857196   -1.103894    0.645253
  H     -2.619812    0.741459    0.025727
  C     -1.971370   -2.581101    0.924440
  C     -0.922088   -3.389516    0.136015
  H     -2.971482   -2.966981    0.708914
  H     -1.788051   -2.738698    1.999196
  C      0.500582   -2.841926    0.313320
  H     -1.191448   -3.384263   -0.927717
  H     -0.956161   -4.436430    0.461513
  C      0.582374   -1.346377   -0.023609
  H      1.187547   -3.428127   -0.306013
  H      0.813675   -2.980375    1.359193
  C     -0.462506   -0.608016    0.872135
  H     -0.193000   -0.893879    1.905903
  C     -0.112679    0.866532    0.704410
  H     -6.365249    0.577595    1.603041
  C      1.433257    0.861681    0.631635
  H     -0.496470    1.479538    1.526776
  H     -0.540589    1.265190   -0.222332
  C      1.882659   -0.619110    0.425110
  H      1.873609    1.277860    1.541886
  H      1.793363    1.483655   -0.196732
  H      2.146763   -1.049763    1.403746
  C      3.114304   -0.718712   -0.485979
  C      0.292262   -1.099178   -1.511003
  H      0.475883   -0.057125   -1.791914
  H     -0.750475   -1.323075   -1.756384
  H      0.928701   -1.729190   -2.141586
  H      2.847640   -0.258316   -1.450286
  C      3.571049   -2.160486   -0.775560
  C      4.311352    0.043127    0.038843
  C      4.573971    0.378531    1.301603
  H      5.063282    0.281016   -0.719140
  H      3.856711    0.133609    2.086783
  C      5.827274    1.073841    1.755032
  C      6.596331    0.190783    2.748589
  C      5.548062    2.487195    2.333590
  H      6.465567    1.222233    0.870999
  H      6.527339    2.887633    2.638687
  C      4.641595    2.476185    3.567312
  C      4.972425    3.413660    1.261341
  H      5.973311   -0.086325    3.606085
  H      7.484069    0.710991    3.127535
  H      6.920785   -0.736007    2.263951
  H      5.033207    1.835472    4.363769
  H      3.634020    2.126961    3.312474
  H      4.544516    3.489288    3.973089
  H      5.621412    3.453467    0.378643
  H      4.858462    4.433006    1.646968
  H      3.986103    3.061551    0.936007
  H      2.850761   -2.704300   -1.392274
  H      3.712484   -2.710634    0.162209
  H      4.528490   -2.156021   -1.308578

----------------------------
CARTESIAN COORDINATES (A.U.)
----------------------------
  NO LB      ZA    FRAG     MASS         X           Y           Z
   0 C     6.0000    0    12.011   -9.812109    0.164557   -1.073873
   1 C     6.0000    0    12.011  -12.515645   -0.734903   -1.247066
   2 C     6.0000    0    12.011  -14.290183    1.123778    0.094843
   3 H     1.0000    0     1.008  -12.714120   -2.624622   -0.423585
   4 H     1.0000    0     1.008  -13.097288   -0.840431   -3.240244
   5 C     6.0000    0    12.011   -9.424363    2.780539   -1.982472
   6 C     6.0000    0    12.011  -11.249898    4.693435   -0.896382
   7 C     6.0000    0    12.011  -13.996112    3.770271   -1.030638
   8 H     1.0000    0     1.008  -11.044440    6.509508   -1.867416
   9 H     1.0000    0     1.008  -10.752604    5.011785    1.098049
  10 H     1.0000    0     1.008  -14.613730    3.708326   -3.011453
  11 H     1.0000    0     1.008  -15.240141    5.090234   -0.029892
  12 O     8.0000    0    15.999  -13.839351    1.115060    2.773584
  13 H     1.0000    0     1.008  -16.251839    0.491645   -0.128097
  14 C     6.0000    0    12.011   -7.986508   -1.307094   -0.047993
  15 C     6.0000    0    12.011   -7.659057    3.404477   -3.680681
  16 H     1.0000    0     1.008   -6.386534    1.995950   -4.464397
  17 H     1.0000    0     1.008   -7.462338    5.341767   -4.337756
  18 C     6.0000    0    12.011   -5.394217   -0.575231    0.398664
  19 H     1.0000    0     1.008   -8.559607   -3.192671    0.547019
  20 C     6.0000    0    12.011   -3.509592   -2.086058    1.219351
  21 H     1.0000    0     1.008   -4.950727    1.401154    0.048617
  22 C     6.0000    0    12.011   -3.725349   -4.877573    1.746939
  23 C     6.0000    0    12.011   -1.742495   -6.405257    0.257031
  24 H     1.0000    0     1.008   -5.615288   -5.606782    1.339653
  25 H     1.0000    0     1.008   -3.378928   -5.175388    3.777934
  26 C     6.0000    0    12.011    0.945963   -5.370461    0.592089
  27 H     1.0000    0     1.008   -2.251510   -6.395331   -1.753131
  28 H     1.0000    0     1.008   -1.806883   -8.383638    0.872133
  29 C     6.0000    0    12.011    1.100528   -2.544284   -0.044615
  30 H     1.0000    0     1.008    2.244138   -6.478221   -0.578280
  31 H     1.0000    0     1.008    1.537622   -5.632093    2.568502
  32 C     6.0000    0    12.011   -0.874010   -1.148985    1.648097
  33 H     1.0000    0     1.008   -0.364717   -1.689186    3.601635
  34 C     6.0000    0    12.011   -0.212933    1.637508    1.331142
  35 H     1.0000    0     1.008  -12.028577    1.091496    3.029308
  36 C     6.0000    0    12.011    2.708462    1.628341    1.193617
  37 H     1.0000    0     1.008   -0.938192    2.795922    2.885189
  38 H     1.0000    0     1.008   -1.021564    2.390863   -0.420147
  39 C     6.0000    0    12.011    3.557710   -1.169949    0.803342
  40 H     1.0000    0     1.008    3.540608    2.414806    2.913742
  41 H     1.0000    0     1.008    3.388965    2.803701   -0.371770
  42 H     1.0000    0     1.008    4.056794   -1.983764    2.652695
  43 C     6.0000    0    12.011    5.885182   -1.358168   -0.918367
  44 C     6.0000    0    12.011    0.552296   -2.077146   -2.855382
  45 H     1.0000    0     1.008    0.899288   -0.107951   -3.386227
  46 H     1.0000    0     1.008   -1.418193   -2.500249   -3.319085
  47 H     1.0000    0     1.008    1.754991   -3.267695   -4.047010
  48 H     1.0000    0     1.008    5.381259   -0.488146   -2.740644
  49 C     6.0000    0    12.011    6.748305   -4.082726   -1.465596
  50 C     6.0000    0    12.011    8.147275    0.081499    0.073403
  51 C     6.0000    0    12.011    8.643553    0.715320    2.459673
  52 H     1.0000    0     1.008    9.568216    0.531043   -1.358978
  53 H     1.0000    0     1.008    7.288127    0.252484    3.943449
  54 C     6.0000    0    12.011   11.011952    2.029265    3.316530
  55 C     6.0000    0    12.011   12.465258    0.360528    5.194080
  56 C     6.0000    0    12.011   10.484319    4.700117    4.409845
  57 H     1.0000    0     1.008   12.218150    2.309686    1.645950
  58 H     1.0000    0     1.008   12.334883    5.456836    4.986397
  59 C     6.0000    0    12.011    8.771343    4.679312    6.741242
  60 C     6.0000    0    12.011    9.396521    6.450883    2.383588
  61 H     1.0000    0     1.008   11.287922   -0.163131    6.814514
  62 H     1.0000    0     1.008   14.142840    1.343577    5.910185
  63 H     1.0000    0     1.008   13.078388   -1.390851    4.278247
  64 H     1.0000    0     1.008    9.511383    3.468539    8.246327
  65 H     1.0000    0     1.008    6.867303    4.019373    6.259669
  66 H     1.0000    0     1.008    8.587891    6.593799    7.508050
  67 H     1.0000    0     1.008   10.622929    6.526106    0.715531
  68 H     1.0000    0     1.008    9.181162    8.377167    3.112319
  69 H     1.0000    0     1.008    7.532642    5.785492    1.768798
  70 H     1.0000    0     1.008    5.387157   -5.110386   -2.631016
  71 H     1.0000    0     1.008    7.015578   -5.122356    0.306530
  72 H     1.0000    0     1.008    8.557605   -4.074289   -2.472854

--------------------------------
INTERNAL COORDINATES (ANGSTROEM)
--------------------------------
 C      0   0   0     0.000000000000     0.00000000     0.00000000
 C      1   0   0     1.510532563776     0.00000000     0.00000000
 C      2   1   0     1.534102826227   110.46486722     0.00000000
 H      2   1   3     1.095863249325   110.74339709   237.85610084
 H      2   1   3     1.100154367779   109.82450204   118.72896131
 C      1   2   3     1.479735092152   113.97895944   306.28542428
 C      6   1   2     1.512682972415   114.45780363    49.58652888
 C      3   2   1     1.529780705135   110.14905140    56.79871993
 H      7   6   1     1.095184326366   110.21497342   188.82993786
 H      7   6   1     1.100689164980   108.30340603    72.12589078
 H      8   3   2     1.098462659951   108.29588440    64.27803414
 H      8   3   2     1.096227772512   109.52104047   181.27483148
 O      3   2   1     1.437471175851   110.65944535   292.77535985
 H      3   2   1     1.096992037002   109.50848864   177.25789565
 C      1   2   3     1.354425710988   121.24427717   123.17946202
 C      6   1   2     1.337627381240   123.09674146   231.49665448
 H     16   6   1     1.086744055241   121.32056415   359.06005916
 H     16   6   1     1.087525596024   120.95275268   178.45523298
 C     15   1   2     1.444866894794   126.06034309   185.22770218
 H     15   1   2     1.089370175881   116.35494565     3.05553528
 C     19  15   1     1.349965828999   126.53216723   186.00906624
 H     19  15   1     1.087753430344   115.76614371     6.68139458
 C     21  19  15     1.507687072807   125.72445526     2.30125387
 C     23  21  19     1.541473577023   111.56644253   125.11569779
 H     23  21  19     1.093426320061   112.24326095     1.55549128
 H     23  21  19     1.101609368260   107.95251653   243.75251996
 C     24  23  21     1.534693115667   112.63110284    51.03043859
 H     24  23  21     1.097318515723   109.03936916   288.95232208
 H     24  23  21     1.096876997334   109.12496474   172.95439466
 C     27  24  23     1.535211990380   111.81571312   306.14073392
 H     27  24  23     1.095045964344   108.97760713   182.62235188
 H     27  24  23     1.100474711913   109.18680683    66.11853709
 C     21  19  15     1.497508033549   122.72911803   180.48922802
 H     33  21  19     1.105905430023   106.43904463   126.57955976
 C     33  21  19     1.524730374423   121.14815253     3.89448974
 H     13   3   2     0.967808880548   107.59260202    42.63077827
 C     35  33  21     1.547655492239   103.37490484   195.46038451
 H     35  33  21     1.095152231305   112.22937806    73.65500732
 H     35  33  21     1.095849446259   110.80902073   313.93628575
 C     30  27  24     1.555958692315   115.88479138   166.60990385
 H     37  35  33     1.093468038108   111.21862496   251.67241873
 H     37  35  33     1.096686058038   111.20676387   133.40330415
 H     40  30  27     1.101335554544   105.89577224   322.09602884
 C     40  30  27     1.535237585104   117.96660610    83.13757989
 C     30  27  24     1.535451889833   111.06133598   294.78343795
 H     45  30  27     1.094761016014   111.72283635   187.50204973
 H     45  30  27     1.094368706006   111.36415187    67.55745831
 H     45  30  27     1.095263774493   110.81295178   307.47561615
 H     44  40  30     1.101345761198   107.35211820    61.72713921
 C     44  40  30     1.539865249469   114.22400051   302.80739504
 C     44  40  30     1.512865502718   113.34300583   179.10394650
 C     51  44  40     1.332676155932   127.68849547    24.18552008
 H     51  44  40     1.093859295712   114.39587397   200.16149139
 H     52  51  44     1.091310202587   119.71828317   357.37911752
 C     52  51  44     1.503270329632   124.50693728   176.48343271
 C     55  52  51     1.535706320669   110.28518569   241.35040895
 C     55  52  51     1.552500364343   112.55315836   115.65664453
 H     55  52  51     1.100432451475   107.67674546   358.80868196
 H     57  55  52     1.101098555072   105.92547938   179.37290936
 C     57  55  52     1.530971912781   113.59347329    61.22443447
 C     57  55  52     1.529514679185   110.96951083   296.31701287
 H     56  55  52     1.095555949816   111.53355434   303.55557719
 H     56  55  52     1.096491960539   110.86886820   183.09209093
 H     56  55  52     1.095027186332   110.40887654    63.01967957
 H     60  57  55     1.094630931479   112.25438609    55.72602489
 H     60  57  55     1.096406373866   111.04516309   294.52664319
 H     60  57  55     1.095653729176   110.13642473   175.67724490
 H     61  57  55     1.096323404747   111.32399445   305.37635975
 H     61  57  55     1.095792350934   110.84867784   184.97423848
 H     61  57  55     1.096656000329   110.60813102    65.16730983
 H     50  44  40     1.093108304300   112.11401007    68.03590861
 H     50  44  40     1.096392611608   110.31804734   306.94487472
 H     50  44  40     1.095819334678   110.29264914   187.99172412

---------------------------
INTERNAL COORDINATES (A.U.)
---------------------------
 C      0   0   0     0.000000000000     0.00000000     0.00000000
 C      1   0   0     2.854492861906     0.00000000     0.00000000
 C      2   1   0     2.899034202843   110.46486722     0.00000000
 H      2   1   3     2.070881421453   110.74339709   237.85610084
 H      2   1   3     2.078990460139   109.82450204   118.72896131
 C      1   2   3     2.796294074920   113.97895944   306.28542428
 C      6   1   2     2.858556545310   114.45780363    49.58652888
 C      3   2   1     2.890866577662   110.14905140    56.79871993
 H      7   6   1     2.069598442995   110.21497342   188.82993786
 H      7   6   1     2.080001080387   108.30340603    72.12589078
 H      8   3   2     2.075793595647   108.29588440    64.27803414
 H      8   3   2     2.071570270446   109.52104047   181.27483148
 O      3   2   1     2.716426847764   110.65944535   292.77535985
 H      3   2   1     2.073014521026   109.50848864   177.25789565
 C      1   2   3     2.559493662508   121.24427717   123.17946202
 C      6   1   2     2.527749419777   123.09674146   231.49665448
 H     16   6   1     2.053648642073   121.32056415   359.06005916
 H     16   6   1     2.055125540115   120.95275268   178.45523298
 C     15   1   2     2.730402731130   126.06034309   185.22770218
 H     15   1   2     2.058611290877   116.35494565     3.05553528
 C     19  15   1     2.551065706960   126.53216723   186.00906624
 H     19  15   1     2.055556084584   115.76614371     6.68139458
 C     21  19  15     2.849115663259   125.72445526     2.30125387
 C     23  21  19     2.912962903250   111.56644253   125.11569779
 H     23  21  19     2.066276292537   112.24326095     1.55549128
 H     23  21  19     2.081740012574   107.95251653   243.75251996
 C     24  23  21     2.900149688224   112.63110284    51.03043859
 H     24  23  21     2.073631476397   109.03936916   288.95232208
 H     24  23  21     2.072797127559   109.12496474   172.95439466
 C     27  24  23     2.901130219330   111.81571312   306.14073392
 H     27  24  23     2.069336976666   108.97760713   182.62235188
 H     27  24  23     2.079595822821   109.18680683    66.11853709
 C     21  19  15     2.829880066755   122.72911803   180.48922802
 H     33  21  19     2.089858392760   106.43904463   126.57955976
 C     33  21  19     2.881322835730   121.14815253     3.89448974
 H     13   3   2     1.828893734212   107.59260202    42.63077827
 C     35  33  21     2.924645029991   103.37490484   195.46038451
 H     35  33  21     2.069537792119   112.22937806    73.65500732
 H     35  33  21     2.070855337439   110.80902073   313.93628575
 C     30  27  24     2.940335804169   115.88479138   166.60990385
 H     37  35  33     2.066355128220   111.21862496   251.67241873
 H     37  35  33     2.072436304582   111.20676387   133.40330415
 H     40  30  27     2.081222579639   105.89577224   322.09602884
 C     40  30  27     2.901178586349   117.96660610    83.13757989
 C     30  27  24     2.901583563596   111.06133598   294.78343795
 H     45  30  27     2.068798502360   111.72283635   187.50204973
 H     45  30  27     2.068057143885   111.36415187    67.55745831
 H     45  30  27     2.069748578197   110.81295178   307.47561615
 H     44  40  30     2.081241867419   107.35211820    61.72713921
 C     44  40  30     2.909923604638   114.22400051   302.80739504
 C     44  40  30     2.858901477595   113.34300583   179.10394650
 C     51  44  40     2.518392959918   127.68849547    24.18552008
 H     51  44  40     2.067094497941   114.39587397   200.16149139
 H     52  51  44     2.062277410043   119.71828317   357.37911752
 C     52  51  44     2.840769228254   124.50693728   176.48343271
 C     55  52  51     2.902064368197   110.28518569   241.35040895
 C     55  52  51     2.933800511421   112.55315836   115.65664453
 H     55  52  51     2.079515962167   107.67674546   358.80868196
 H     57  55  52     2.080774715543   105.92547938   179.37290936
 C     57  55  52     2.893117633882   113.59347329    61.22443447
 C     57  55  52     2.890363861473   110.96951083   296.31701287
 H     56  55  52     2.070300709540   111.53355434   303.55557719
 H     56  55  52     2.072069513465   110.86886820   183.09209093
 H     56  55  52     2.069301491365   110.40887654    63.01967957
 H     60  57  55     2.068552678214   112.25438609    55.72602489
 H     60  57  55     2.071907778093   111.04516309   294.52664319
 H     60  57  55     2.070485485751   110.13642473   175.67724490
 H     61  57  55     2.071750989180   111.32399445   305.37635975
 H     61  57  55     2.070747442912   110.84867784   184.97423848
 H     61  57  55     2.072379503744   110.60813102    65.16730983
 H     50  44  40     2.065675329842   112.11401007    68.03590861
 H     50  44  40     2.071881771193   110.31804734   306.94487472
 H     50  44  40     2.070798434798   110.29264914   187.99172412

---------------------
BASIS SET INFORMATION
---------------------
There are 3 groups of distinct atoms

 Group   1 Type C   : 7s4p contracted to 4s3p pattern {4111/211}
 Group   2 Type H   : 5s contracted to 3s pattern {311}
 Group   3 Type O   : 7s4p contracted to 4s3p pattern {4111/211}

Atom   0C    basis set group =>   1
Atom   1C    basis set group =>   1
Atom   2C    basis set group =>   1
Atom   3H    basis set group =>   2
Atom   4H    basis set group =>   2
Atom   5C    basis set group =>   1
Atom   6C    basis set group =>   1
Atom   7C    basis set group =>   1
Atom   8H    basis set group =>   2
Atom   9H    basis set group =>   2
Atom  10H    basis set group =>   2
Atom  11H    basis set group =>   2
Atom  12O    basis set group =>   3
Atom  13H    basis set group =>   2
Atom  14C    basis set group =>   1
Atom  15C    basis set group =>   1
Atom  16H    basis set group =>   2
Atom  17H    basis set group =>   2
Atom  18C    basis set group =>   1
Atom  19H    basis set group =>   2
Atom  20C    basis set group =>   1
Atom  21H    basis set group =>   2
Atom  22C    basis set group =>   1
Atom  23C    basis set group =>   1
Atom  24H    basis set group =>   2
Atom  25H    basis set group =>   2
Atom  26C    basis set group =>   1
Atom  27H    basis set group =>   2
Atom  28H    basis set group =>   2
Atom  29C    basis set group =>   1
Atom  30H    basis set group =>   2
Atom  31H    basis set group =>   2
Atom  32C    basis set group =>   1
Atom  33H    basis set group =>   2
Atom  34C    basis set group =>   1
Atom  35H    basis set group =>   2
Atom  36C    basis set group =>   1
Atom  37H    basis set group =>   2
Atom  38H    basis set group =>   2
Atom  39C    basis set group =>   1
Atom  40H    basis set group =>   2
Atom  41H    basis set group =>   2
Atom  42H    basis set group =>   2
Atom  43C    basis set group =>   1
Atom  44C    basis set group =>   1
Atom  45H    basis set group =>   2
Atom  46H    basis set group =>   2
Atom  47H    basis set group =>   2
Atom  48H    basis set group =>   2
Atom  49C    basis set group =>   1
Atom  50C    basis set group =>   1
Atom  51C    basis set group =>   1
Atom  52H    basis set group =>   2
Atom  53H    basis set group =>   2
Atom  54C    basis set group =>   1
Atom  55C    basis set group =>   1
Atom  56C    basis set group =>   1
Atom  57H    basis set group =>   2
Atom  58H    basis set group =>   2
Atom  59C    basis set group =>   1
Atom  60C    basis set group =>   1
Atom  61H    basis set group =>   2
Atom  62H    basis set group =>   2
Atom  63H    basis set group =>   2
Atom  64H    basis set group =>   2
Atom  65H    basis set group =>   2
Atom  66H    basis set group =>   2
Atom  67H    basis set group =>   2
Atom  68H    basis set group =>   2
Atom  69H    basis set group =>   2
Atom  70H    basis set group =>   2
Atom  71H    basis set group =>   2
Atom  72H    basis set group =>   2

-------------------------
BASIS SET IN INPUT FORMAT
-------------------------

 # Basis set for element : H 
 NewGTO H 
 S 3 
   1    1357.7500000000      0.0012928364
   2      54.3100000000      0.0588280685
   3       4.3448000000      0.9761499708
 S 1 
   1       0.6604910000      1.0000000000
 S 1 
   1       0.1366870000      1.0000000000
  end;

 # Basis set for element : C 
 NewGTO C 
 S 4 
   1  139534.0000000000      0.0001655246
   2    5581.3600000000      0.0074486101
   3     446.5090000000      0.1285821065
   4      67.4620000000      0.9218029311
 S 1 
   1      15.0674000000      1.0000000000
 S 1 
   1       3.9387600000      1.0000000000
 S 1 
   1       0.2999150000      1.0000000000
 P 2 
   1      28.3900000000      0.0816325586
   2       4.3676900000      0.9660360576
 P 1 
   1       0.8698170000      1.0000000000
 P 1 
   1       0.1889340000      1.0000000000
  end;

 # Basis set for element : O 
 NewGTO O 
 S 4 
   1  253789.0000000000      0.0001641076
   2   10151.6000000000      0.0074010921
   3     812.1250000000      0.1277711901
   4     122.6930000000      0.9223372164
 S 1 
   1      27.5608000000      1.0000000000
 S 1 
   1       7.3172600000      1.0000000000
 S 1 
   1       0.5792400000      1.0000000000
 P 2 
   1      53.4157000000      0.0793786106
   2       8.2177900000      0.9670506337
 P 1 
   1       1.6754400000      1.0000000000
 P 1 
   1       0.3506720000      1.0000000000
  end;

---------------------------------
AUXILIARY/J BASIS SET INFORMATION
---------------------------------
There are 3 groups of distinct atoms

 Group   1 Type C   : 12s5p4d2f1g contracted to 6s4p3d1f1g pattern {711111/2111/211/2/1}
 Group   2 Type H   : 5s2p1d contracted to 3s1p1d pattern {311/2/1}
 Group   3 Type O   : 12s5p4d2f1g contracted to 6s4p3d1f1g pattern {711111/2111/211/2/1}

Atom   0C    basis set group =>   1
Atom   1C    basis set group =>   1
Atom   2C    basis set group =>   1
Atom   3H    basis set group =>   2
Atom   4H    basis set group =>   2
Atom   5C    basis set group =>   1
Atom   6C    basis set group =>   1
Atom   7C    basis set group =>   1
Atom   8H    basis set group =>   2
Atom   9H    basis set group =>   2
Atom  10H    basis set group =>   2
Atom  11H    basis set group =>   2
Atom  12O    basis set group =>   3
Atom  13H    basis set group =>   2
Atom  14C    basis set group =>   1
Atom  15C    basis set group =>   1
Atom  16H    basis set group =>   2
Atom  17H    basis set group =>   2
Atom  18C    basis set group =>   1
Atom  19H    basis set group =>   2
Atom  20C    basis set group =>   1
Atom  21H    basis set group =>   2
Atom  22C    basis set group =>   1
Atom  23C    basis set group =>   1
Atom  24H    basis set group =>   2
Atom  25H    basis set group =>   2
Atom  26C    basis set group =>   1
Atom  27H    basis set group =>   2
Atom  28H    basis set group =>   2
Atom  29C    basis set group =>   1
Atom  30H    basis set group =>   2
Atom  31H    basis set group =>   2
Atom  32C    basis set group =>   1
Atom  33H    basis set group =>   2
Atom  34C    basis set group =>   1
Atom  35H    basis set group =>   2
Atom  36C    basis set group =>   1
Atom  37H    basis set group =>   2
Atom  38H    basis set group =>   2
Atom  39C    basis set group =>   1
Atom  40H    basis set group =>   2
Atom  41H    basis set group =>   2
Atom  42H    basis set group =>   2
Atom  43C    basis set group =>   1
Atom  44C    basis set group =>   1
Atom  45H    basis set group =>   2
Atom  46H    basis set group =>   2
Atom  47H    basis set group =>   2
Atom  48H    basis set group =>   2
Atom  49C    basis set group =>   1
Atom  50C    basis set group =>   1
Atom  51C    basis set group =>   1
Atom  52H    basis set group =>   2
Atom  53H    basis set group =>   2
Atom  54C    basis set group =>   1
Atom  55C    basis set group =>   1
Atom  56C    basis set group =>   1
Atom  57H    basis set group =>   2
Atom  58H    basis set group =>   2
Atom  59C    basis set group =>   1
Atom  60C    basis set group =>   1
Atom  61H    basis set group =>   2
Atom  62H    basis set group =>   2
Atom  63H    basis set group =>   2
Atom  64H    basis set group =>   2
Atom  65H    basis set group =>   2
Atom  66H    basis set group =>   2
Atom  67H    basis set group =>   2
Atom  68H    basis set group =>   2
Atom  69H    basis set group =>   2
Atom  70H    basis set group =>   2
Atom  71H    basis set group =>   2
Atom  72H    basis set group =>   2

-------------------------------------
AUXILIARY/J BASIS SET IN INPUT FORMAT
-------------------------------------

 # Auxiliary/J basis set for element : H 
 NewAuxJGTO H 
 S 3 
   1      15.6752927000      0.1007184237
   2       3.6063578000      0.3404257499
   3       1.2080016000      0.6491996172
 S 1 
   1       0.4726794000      1.0000000000
 S 1 
   1       0.2018100000      1.0000000000
 P 2 
   1       2.0281365000      0.5596620919
   2       0.5358730000      0.5596620919
 D 1 
   1       2.2165124000      1.0000000000
  end;

 # Auxiliary/J basis set for element : C 
 NewAuxJGTO C 
 S 7 
   1    1861.0916331000      0.0134602335
   2     642.9939764000      0.0299160374
   3     235.1105725000      0.1008649584
   4      90.7028894000      0.2370970548
   5      36.7794552000      0.3924037254
   6      15.6046273000      0.3195862154
   7       6.8907294000      0.0530104441
 S 1 
   1       3.1478850000     -1.0000000000
 S 1 
   1       1.4777287000      1.0000000000
 S 1 
   1       0.7076466000      1.0000000000
 S 1 
   1       0.3430122000      1.0000000000
 S 1 
   1       0.1669453000      1.0000000000
 P 2 
   1      13.5472892000     -0.6769313712
   2       5.4669419000     -0.3779500978
 P 1 
   1       2.1751721000      1.0000000000
 P 1 
   1       0.8582194000      1.0000000000
 P 1 
   1       0.3376720000      1.0000000000
 D 2 
   1       5.9287253000     -0.3533329857
   2       1.9809209000     -0.7456525731
 D 1 
   1       0.8055417000     -1.0000000000
 D 1 
   1       0.3531244000     -1.0000000000
 F 2 
   1       1.6755626000      0.6311076882
   2       0.5997536000      0.4968166032
 G 1 
   1       1.0024600000     -1.0000000000
  end;

 # Auxiliary/J basis set for element : O 
 NewAuxJGTO O 
 S 7 
   1    2876.8216605000      0.0168151159
   2    1004.7443032000      0.0340137548
   3     369.7579954000      0.1194951309
   4     142.9442404000      0.2664627624
   5      57.8366425000      0.4202764046
   6      24.3864983000      0.2765077335
   7      10.6622662000      0.0057008815
 S 1 
   1       4.8070437000     -1.0000000000
 S 1 
   1       2.2210770000      1.0000000000
 S 1 
   1       1.0447795000      1.0000000000
 S 1 
   1       0.4968425000      1.0000000000
 S 1 
   1       0.2371384000      1.0000000000
 P 2 
   1      64.2613382000     -0.2731534179
   2      16.3006076000     -0.8168011598
 P 1 
   1       4.3550542000      1.0000000000
 P 1 
   1       1.2019554000      1.0000000000
 P 1 
   1       0.3354196000      1.0000000000
 D 2 
   1       9.2146611000     -0.4661230638
   2       2.8435251000     -0.6600908911
 D 1 
   1       0.9955759000     -1.0000000000
 D 1 
   1       0.3649441000     -1.0000000000
 F 2 
   1       2.6420115000      0.5931563945
   2       0.7345613000      0.5931563945
 G 1 
   1       1.3931000000     -1.0000000000
  end;


Checking for AutoStart:
The File: inpJ.gbw exists
Trying to determine its content:
     ... Fine, the file contains calculation information
     ... Fine, the calculation information was read
     ... Fine, the file contains a basis set
     ... Fine, the basis set was read
     ... Fine, the file contains a geometry
     ... Fine, the geometry was read
     ... Fine, the file contains a set of orbitals
     ... Fine, the orbitals can be read
     => possible old guess file was deleted
     => GBW file was renamed to GES file
     => GES file is set as startup file
     => Guess is set to MORead
     ... now leaving AutoStart



           ************************************************************
           *        Program running with 4 parallel MPI-processes     *
           *              working on a common directory               *
           ************************************************************
------------------------------------------------------------------------------
                             ORCA STARTUP CALCULATIONS
                           -- RI-GTO INTEGRALS CHOSEN --
------------------------------------------------------------------------------
------------------------------------------------------------------------------
                   ___                                                        
                  /   \      - P O W E R E D   B Y -                         
                 /     \                                                     
                 |  |  |   _    _      __       _____    __    __             
                 |  |  |  | |  | |    /  \     |  _  \  |  |  /  |          
                  \  \/   | |  | |   /    \    | | | |  |  | /  /          
                 / \  \   | |__| |  /  /\  \   | |_| |  |  |/  /          
                |  |  |   |  __  | /  /__\  \  |    /   |      \           
                |  |  |   | |  | | |   __   |  |    \   |  |\   \          
                \     /   | |  | | |  |  |  |  | |\  \  |  | \   \       
                 \___/    |_|  |_| |__|  |__|  |_| \__\ |__|  \__/        
                                                                              
                      - O R C A' S   B I G   F R I E N D -                    
                                      &                                       
                       - I N T E G R A L  F E E D E R -                       
                                                                              
 v1 FN, 2020, v2 2021, v3 2022-2024                                           
------------------------------------------------------------------------------


----------------------
SHARK INTEGRAL PACKAGE
----------------------

Number of atoms                             ...     73
Number of basis functions                   ...    509
Number of shells                            ...    335
Maximum angular momentum                    ...      1
Integral batch strategy                     ... SHARK/LIBINT Hybrid
RI-J (if used) integral strategy            ... SPLIT-RIJ (Revised 2003 algorithm where possible)
Printlevel                                  ...      1
Contraction scheme used                     ... SEGMENTED contraction
Prescreening option                         ... SCHWARTZ
   Thresh                                   ... 3.000e-11
   Tcut                                     ... 1.000e-12
   Tpresel                                  ... 1.000e-12 
Coulomb Range Separation                    ... NOT USED
Exchange Range Separation                   ... NOT USED
Multipole approximations                    ... NOT USED
Finite Nucleus Model                        ... NOT USED
CABS basis                                  ... NOT available
Auxiliary Coulomb fitting basis             ... AVAILABLE
   # of basis functions in Aux-J            ...   1905
   # of shells in Aux-J                     ...    655
   Maximum angular momentum in Aux-J        ...      4
Auxiliary J/K fitting basis                 ... NOT available
Auxiliary Correlation fitting basis         ... NOT available
Auxiliary 'external' fitting basis          ... NOT available

Checking pre-screening integrals            ... done (  0.0 sec) Dimension = 335
Check shell pair data                       ... done (  0.0 sec)
Shell pair information
Shell pair cut-off parameter TPreSel        ...   1.0e-12
Total number of shell pairs                 ...     56280
Shell pairs after pre-screening             ...     22387
Total number of primitive shell pairs       ...    145865
Primitive shell pairs kept                  ...     38431
          la=0 lb=0:  11262 shell pairs
          la=1 lb=0:   9215 shell pairs
          la=1 lb=1:   1910 shell pairs

Calculating one electron integrals          ... done (  0.0 sec)
Calculating RI/J V-Matrix + Cholesky decomp.... done (  0.2 sec)
Calculating Nuclear repulsion               ... done (  0.0 sec) ENN=   2819.000367923171 Eh

Diagonalization of the overlap matrix:
Smallest eigenvalue                        ... 7.583e-03
Time for diagonalization                   ...    0.031 sec
Threshold for overlap eigenvalues          ... 1.000e-07
Number of eigenvalues below threshold      ... 0
Time for construction of square roots      ...    0.016 sec
Total time needed                          ...    0.049 sec

-------------------
DFT GRID GENERATION
-------------------

General Integration Accuracy     IntAcc      ... 4.388
Radial Grid Type                 RadialGrid  ... OptM3 with GC (2021)
Angular Grid (max. ang.)         AngularGrid ... 4 (Lebedev-302)
Angular grid pruning method      GridPruning ... 4 (adaptive)
Weight generation scheme         WeightScheme... mBecke (2022)
Basis function cutoff            BFCut       ... 1.0000e-11
Integration weight cutoff        WCut        ... 1.0000e-14
Partially contracted basis set               ... off
Rotationally invariant grid construction     ... off
Angular grids for H and He will be reduced by one unit

Total number of grid points                  ...   309688
Total number of batches                      ...     4879
Average number of points per batch           ...       63
Average number of grid points per atom       ...     4242

--------------------
COSX GRID GENERATION
--------------------

GRIDX 1
-------
General Integration Accuracy     IntAcc      ... 3.816
Radial Grid Type                 RadialGrid  ... OptM3 with GC (2021)
Angular Grid (max. ang.)         AngularGrid ... 1 (Lebedev-50)
Angular grid pruning method      GridPruning ... 4 (adaptive)
Weight generation scheme         WeightScheme... mBecke (2022)
Basis function cutoff            BFCut       ... 1.0000e-11
Integration weight cutoff        WCut        ... 1.0000e-14
Partially contracted basis set               ... on
Rotationally invariant grid construction     ... off
Angular grids for H and He will be reduced by one unit

Total number of grid points                  ...    39381
Total number of batches                      ...      350
Average number of points per batch           ...      112
Average number of grid points per atom       ...      539
UseSFitting                                  ... on

GRIDX 2
-------
General Integration Accuracy     IntAcc      ... 4.020
Radial Grid Type                 RadialGrid  ... OptM3 with GC (2021)
Angular Grid (max. ang.)         AngularGrid ... 2 (Lebedev-110)
Angular grid pruning method      GridPruning ... 4 (adaptive)
Weight generation scheme         WeightScheme... mBecke (2022)
Basis function cutoff            BFCut       ... 1.0000e-11
Integration weight cutoff        WCut        ... 1.0000e-14
Partially contracted basis set               ... on
Rotationally invariant grid construction     ... off
Angular grids for H and He will be reduced by one unit

Total number of grid points                  ...    81319
Total number of batches                      ...      672
Average number of points per batch           ...      121
Average number of grid points per atom       ...     1114
UseSFitting                                  ... on

GRIDX 3
-------
General Integration Accuracy     IntAcc      ... 4.338
Radial Grid Type                 RadialGrid  ... OptM3 with GC (2021)
Angular Grid (max. ang.)         AngularGrid ... 3 (Lebedev-194)
Angular grid pruning method      GridPruning ... 4 (adaptive)
Weight generation scheme         WeightScheme... mBecke (2022)
Basis function cutoff            BFCut       ... 1.0000e-11
Integration weight cutoff        WCut        ... 1.0000e-14
Partially contracted basis set               ... on
Rotationally invariant grid construction     ... off
Angular grids for H and He will be reduced by one unit

Total number of grid points                  ...   176017
Total number of batches                      ...     1419
Average number of points per batch           ...      124
Average number of grid points per atom       ...     2411
UseSFitting                                  ... on
Initializing property integral containers    ... done (  0.0 sec)

SHARK setup successfully completed in   3.6 seconds

Maximum memory used throughout the entire STARTUP-calculation: 86.1 MB


           ************************************************************
           *        Program running with 4 parallel MPI-processes     *
           *              working on a common directory               *
           ************************************************************
-------------------------------------------------------------------------------
                                 ORCA GUESS
                   Start orbitals & Density for SCF / CASSCF
-------------------------------------------------------------------------------

------------
SCF SETTINGS
------------
Hamiltonian:
 Density Functional     Method          .... DFT(GTOs)
 Exchange Functional    Exchange        .... PBE
   PBE kappa parameter   XKappa         ....  0.804000
   PBE mue parameter    XMuePBE         ....  0.219520
 Correlation Functional Correlation     .... PBE
   PBE beta parameter  CBetaPBE         ....  0.066725
 LDA part of GGA corr.  LDAOpt          .... PW91-LDA
 Gradients option       PostSCFGGA      .... off
 Hybrid DFT is turned on
   Fraction HF Exchange ScalHFX         ....  0.250000
   Scaling of DF-GGA-X  ScalDFX         ....  0.750000
   Scaling of DF-GGA-C  ScalDFC         ....  1.000000
   Scaling of DF-LDA-C  ScalLDAC        ....  1.000000
   Perturbative correction              ....  0.000000
   NL short-range parameter             ....  6.900000
 RI-approximation to the Coulomb term is turned on
   Number of AuxJ basis functions       .... 1905
   RIJ-COSX (HFX calculated with COS-X)).... on


General Settings:
 Integral files         IntName         .... inpJ
 Hartree-Fock type      HFTyp           .... RHF
 Total Charge           Charge          ....    0
 Multiplicity           Mult            ....    1
 Number of Electrons    NEL             ....  220
 Basis Dimension        Dim             ....  509
 Nuclear Repulsion      ENuc            ....   2819.0003679232 Eh

Convergence Acceleration:
 AO-DIIS                CNVDIIS         .... on
   Start iteration      DIISMaxIt       ....    12
   Startup error        DIISStart       ....  0.200000
   # of expansion vecs  DIISMaxEq       ....     5
   Bias factor          DIISBfac        ....   1.050
   Max. coefficient     DIISMaxC        ....  10.000
 MO-DIIS                CNVKDIIS        .... off
 Trust-Rad. Augm. Hess. CNVTRAH         .... auto
   Auto Start mean grad. ratio tolernc. ....  1.125000
   Auto Start start iteration           ....     1
   Auto Start num. interpolation iter.  ....    10
   Max. Number of Micro iterations      ....    24
   Max. Number of Macro iterations      .... Maxiter - #DIIS iter
   Number of Davidson start vectors     ....     2
   Converg. threshold    (grad. norm)   ....   1.000e-04
   Grad. Scal. Fac. for Micro threshold ....   0.100
   Minimum threshold for Micro iter.    ....   1.000e-02
   NR start threshold (gradient norm)   ....   1.000e-04
   Initial trust radius                 ....   0.400
   Minimum AH scaling param. (alpha)    ....   1.000
   Maximum AH scaling param. (alpha)    .... 1000.000
   Quad. conv. algorithm                .... NR
   White noise on init. David. guess    .... on
   Maximum white noise                  ....   0.010
   Pseudo random numbers                .... off
   Inactive MOs                         .... canonical
   Orbital update algorithm             .... Taylor
   Preconditioner                       .... Diag
   Full preconditioner red. dimension   ....   250
 SOSCF                  CNVSOSCF        .... off
 Level Shifting         CNVShift        .... on
   Level shift para.    LevelShift      ....    0.2500
   Turn off err/grad.   ShiftErr        ....    0.0010
 Zerner damping         CNVZerner       .... off
 Static damping         CNVDamp         .... on
   Fraction old density DampFac         ....    0.7000
   Max. Damping (<1)    DampMax         ....    0.9800
   Min. Damping (>=0)   DampMin         ....    0.0000
   Turn off err/grad.   DampErr         ....    0.1000

SCF Procedure:
 Maximum # iterations   MaxIter         ....   125
 SCF integral mode      SCFMode         .... Direct
   Integral package                     .... SHARK and LIBINT hybrid scheme
 Reset frequency        DirectResetFreq ....    20
 Integral Threshold     Thresh          ....  3.000e-11 Eh
 Primitive CutOff       TCut            ....  1.000e-12 Eh

Convergence Tolerance:
 Convergence Check Mode ConvCheckMode   .... Total+1el-Energy
 Convergence forced     ConvForced      .... 0
 Energy Change          TolE            ....  1.000e-07 Eh
 1-El. energy change                    ....  1.000e-04 Eh
 DIIS Error             TolErr          ....  1.000e-07

---------------------
INITIAL GUESS: MOREAD
---------------------
Guess MOs are being read from file: inpJ.ges
Input Geometry matches current geometry (good)
Input basis set matches current basis set (good)
Occupation numbers will be reassigned to an Aufbau configuration
MOs were renormalized
MOs were reorthogonalized (Cholesky)
                      ------------------
                      INITIAL GUESS DONE (   0.1 sec)
                      ------------------
             **** ENERGY FILE WAS UPDATED (inpJ.en.tmp) ****
Finished Guess after   0.2 sec
Maximum memory used throughout the entire GUESS-calculation: 37.2 MB


           ************************************************************
           *        Program running with 4 parallel MPI-processes     *
           *              working on a common directory               *
           ************************************************************

-------------------------------------------------------------------------------------------
                                      ORCA LEAN-SCF
                              memory conserving SCF solver
-------------------------------------------------------------------------------------------

--------------------
CPCM SOLVATION MODEL
--------------------
CPCM parameters:
  Epsilon                                         ...       4.8030
  Refrac                                          ...       1.4459
  Rsolv                                           ...       1.3000
  Surface type                                    ... GAUSSIAN VDW
  Discretization scheme                           ... Constant charge density
    Threshold for H atoms                         ...       5.0000 (charges/Ang^2)
    Threshold for non-H atoms                     ...       5.0000 (charges/Ang^2)
  Epsilon function type                           ...         CPCM
Solvent:                                          ... CHLOROFORM
Radii:
  Scheme                                          ... Element-dependent radii
  Radius for C  used is    3.8550 Bohr (=   2.0400 Ang.)
  Radius for H  used is    2.4944 Bohr (=   1.3200 Ang.)
  Radius for O  used is    3.4469 Bohr (=   1.8240 Ang.)
Calculating surface                               ...        done! (  0.0s)
Cavity surface points                             ...         5368
Cavity Volume                                     ...    3603.0390
Cavity Surface-area                               ...    1787.3642
Calculating surface distance matrix               ...        done! (  0.2s)
Performing Cholesky decomposition & store         ...        done! (  0.9s)
Overall time for CPCM initialization              ...                 1.1s

----------------------------------------D-I-I-S--------------------------------------------
Iteration    Energy (Eh)           Delta-E    RMSDP     MaxDP     DIISErr   Damp  Time(sec)
-------------------------------------------------------------------------------------------
               ***  Starting incremental Fock matrix formation  ***
    1    -1165.5111658971368342     0.00e+00  4.58e-08  5.28e-06  6.80e-06  0.700   8.2

  HOMO= 109 E= -6.012 eV LUMO=  5.935 eV gap=  11.947 eV
    2    -1165.5111659132307977    -1.61e-08  3.07e-08  3.15e-06  3.17e-06  0.700   2.1
                 **** Energy Check signals convergence ****

  HOMO= 109 E= -6.012 eV LUMO=  5.935 eV gap=  11.947 eV

               *****************************************************
               *                     SUCCESS                       *
               *           SCF CONVERGED AFTER   2 CYCLES          *
               *****************************************************

Recomputing exchange energy using gridx3       ... done (    8.420 sec)
Old exchange energy                            :    -42.067350989 Eh
New exchange energy                            :    -42.067398909 Eh
Exchange energy change after final integration :     -0.000047920 Eh
Total energy after final integration           :  -1165.511213833 Eh
             **** ENERGY FILE WAS UPDATED (inpJ.en.tmp) ****

----------------
TOTAL SCF ENERGY
----------------

Total Energy       :      -1165.51121383296163 Eh          -31715.17250 eV

Components:
Nuclear Repulsion  :       2819.00036792317087 Eh           76708.89982 eV
Electronic Energy  :      -3984.49787679740575 Eh         -108423.69938 eV
One Electron Energy:      -7179.75552484351465 Eh         -195371.08030 eV
Two Electron Energy:       3195.25764804610890 Eh           86947.38092 eV
CPCM Dielectric    :         -0.01365703899613 Eh              -0.37163 eV

Virial components:
Potential Energy   :      -2322.40465408378805 Eh          -63195.84345 eV
Kinetic Energy     :       1156.89344025082619 Eh           31480.67096 eV
Virial Ratio       :          2.00744906426323

DFT components:
N(Alpha)           :      110.000392249870 electrons
N(Beta)            :      110.000392249870 electrons
N(Total)           :      220.000784499739 electrons
E(X)               :     -125.744691105380 Eh       
E(C)               :       -7.328484946369 Eh       
E(XC)              :     -133.073176051748 Eh       

CPCM Solvation Model Properties:
Surface-charge          :         -0.03296564554829
Corrected charge        :          0.00000000000000
Outlying charge corr.   :          0.00003853917951 Eh               0.00105 eV
Free-energy (cav+disp)  :  This term is not implemented in the current solvation scheme

---------------
SCF CONVERGENCE
---------------

  Last Energy change         ...    1.6094e-08  Tolerance :   1.0000e-07
  Last MAX-Density change    ...    3.1473e-06  Tolerance :   1.0000e-05
  Last RMS-Density change    ...    3.0654e-08  Tolerance :   1.0000e-06
  Last DIIS Error            ...    3.1695e-06  Tolerance :   1.0000e-07


----------------
ORBITAL ENERGIES
----------------

  NO   OCC          E(Eh)            E(eV) 
   0   2.0000     -19.212530      -522.7995 
   1   2.0000     -10.300523      -280.2915 
   2   2.0000     -10.270543      -279.4757 
   3   2.0000     -10.268420      -279.4179 
   4   2.0000     -10.263707      -279.2897 
   5   2.0000     -10.257561      -279.1224 
   6   2.0000     -10.257249      -279.1139 
   7   2.0000     -10.251938      -278.9694 
   8   2.0000     -10.249192      -278.8947 
   9   2.0000     -10.248184      -278.8673 
  10   2.0000     -10.248117      -278.8654 
  11   2.0000     -10.247682      -278.8536 
  12   2.0000     -10.246166      -278.8124 
  13   2.0000     -10.245214      -278.7864 
  14   2.0000     -10.244813      -278.7755 
  15   2.0000     -10.244634      -278.7707 
  16   2.0000     -10.243056      -278.7277 
  17   2.0000     -10.241842      -278.6947 
  18   2.0000     -10.241737      -278.6918 
  19   2.0000     -10.241565      -278.6872 
  20   2.0000     -10.240241      -278.6511 
  21   2.0000     -10.234329      -278.4902 
  22   2.0000     -10.234208      -278.4870 
  23   2.0000     -10.233065      -278.4559 
  24   2.0000     -10.227370      -278.3009 
  25   2.0000     -10.226716      -278.2831 
  26   2.0000     -10.223978      -278.2086 
  27   2.0000     -10.222187      -278.1599 
  28   2.0000     -10.220874      -278.1241 
  29   2.0000      -1.043245       -28.3881 
  30   2.0000      -0.901704       -24.5366 
  31   2.0000      -0.882274       -24.0079 
  32   2.0000      -0.860035       -23.4027 
  33   2.0000      -0.845753       -23.0141 
  34   2.0000      -0.822373       -22.3779 
  35   2.0000      -0.814325       -22.1589 
  36   2.0000      -0.795922       -21.6581 
  37   2.0000      -0.795115       -21.6362 
  38   2.0000      -0.776373       -21.1262 
  39   2.0000      -0.758513       -20.6402 
  40   2.0000      -0.740899       -20.1609 
  41   2.0000      -0.736366       -20.0375 
  42   2.0000      -0.715366       -19.4661 
  43   2.0000      -0.703027       -19.1303 
  44   2.0000      -0.702045       -19.1036 
  45   2.0000      -0.696104       -18.9420 
  46   2.0000      -0.670689       -18.2504 
  47   2.0000      -0.656934       -17.8761 
  48   2.0000      -0.632568       -17.2131 
  49   2.0000      -0.622487       -16.9387 
  50   2.0000      -0.613225       -16.6867 
  51   2.0000      -0.608566       -16.5599 
  52   2.0000      -0.596826       -16.2405 
  53   2.0000      -0.583032       -15.8651 
  54   2.0000      -0.565804       -15.3963 
  55   2.0000      -0.542920       -14.7736 
  56   2.0000      -0.539274       -14.6744 
  57   2.0000      -0.529491       -14.4082 
  58   2.0000      -0.515401       -14.0248 
  59   2.0000      -0.508880       -13.8473 
  60   2.0000      -0.500887       -13.6298 
  61   2.0000      -0.487739       -13.2721 
  62   2.0000      -0.483266       -13.1503 
  63   2.0000      -0.480368       -13.0715 
  64   2.0000      -0.472340       -12.8530 
  65   2.0000      -0.467718       -12.7272 
  66   2.0000      -0.464949       -12.6519 
  67   2.0000      -0.460260       -12.5243 
  68   2.0000      -0.459137       -12.4938 
  69   2.0000      -0.451533       -12.2868 
  70   2.0000      -0.449575       -12.2336 
  71   2.0000      -0.443195       -12.0599 
  72   2.0000      -0.436731       -11.8840 
  73   2.0000      -0.432899       -11.7798 
  74   2.0000      -0.428017       -11.6469 
  75   2.0000      -0.426243       -11.5987 
  76   2.0000      -0.421139       -11.4598 
  77   2.0000      -0.415416       -11.3040 
  78   2.0000      -0.410027       -11.1574 
  79   2.0000      -0.403229       -10.9724 
  80   2.0000      -0.401564       -10.9271 
  81   2.0000      -0.397274       -10.8104 
  82   2.0000      -0.395242       -10.7551 
  83   2.0000      -0.389629       -10.6023 
  84   2.0000      -0.387131       -10.5344 
  85   2.0000      -0.381340       -10.3768 
  86   2.0000      -0.375537       -10.2189 
  87   2.0000      -0.374161       -10.1814 
  88   2.0000      -0.371714       -10.1149 
  89   2.0000      -0.363621        -9.8946 
  90   2.0000      -0.360961        -9.8223 
  91   2.0000      -0.356365        -9.6972 
  92   2.0000      -0.355260        -9.6671 
  93   2.0000      -0.344883        -9.3848 
  94   2.0000      -0.340884        -9.2759 
  95   2.0000      -0.338728        -9.2173 
  96   2.0000      -0.337949        -9.1961 
  97   2.0000      -0.333118        -9.0646 
  98   2.0000      -0.331494        -9.0204 
  99   2.0000      -0.329155        -8.9568 
 100   2.0000      -0.327844        -8.9211 
 101   2.0000      -0.321873        -8.7586 
 102   2.0000      -0.319438        -8.6924 
 103   2.0000      -0.315802        -8.5934 
 104   2.0000      -0.310444        -8.4476 
 105   2.0000      -0.300835        -8.1861 
 106   2.0000      -0.276680        -7.5288 
 107   2.0000      -0.275202        -7.4886 
 108   2.0000      -0.256887        -6.9902 
 109   2.0000      -0.220950        -6.0123 
 110   0.0000      -0.031900        -0.8680 
 111   0.0000       0.019369         0.5271 
 112   0.0000       0.026025         0.7082 
 113   0.0000       0.079006         2.1499 
 114   0.0000       0.087107         2.3703 
 115   0.0000       0.099551         2.7089 
 116   0.0000       0.103377         2.8130 
 117   0.0000       0.107340         2.9209 
 118   0.0000       0.110556         3.0084 
 119   0.0000       0.112478         3.0607 
 120   0.0000       0.117810         3.2058 
*Only the first 10 virtual orbitals were printed.

                    ********************************
                    * MULLIKEN POPULATION ANALYSIS *
                    ********************************

-----------------------
MULLIKEN ATOMIC CHARGES
-----------------------
   0 C :    0.078637
   1 C :   -0.500585
   2 C :   -0.074411
   3 H :    0.222950
   4 H :    0.219656
   5 C :    0.138937
   6 C :   -0.480068
   7 C :   -0.440148
   8 H :    0.225406
   9 H :    0.207411
  10 H :    0.208934
  11 H :    0.227833
  12 O :   -0.488057
  13 H :    0.247385
  14 C :   -0.279993
  15 C :   -0.514088
  16 H :    0.201225
  17 H :    0.197022
  18 C :   -0.259736
  19 H :    0.219795
  20 C :    0.152679
  21 H :    0.220141
  22 C :   -0.479257
  23 C :   -0.428050
  24 H :    0.211632
  25 H :    0.206990
  26 C :   -0.396874
  27 H :    0.208756
  28 H :    0.217515
  29 C :    0.003560
  30 H :    0.222874
  31 H :    0.194625
  32 C :   -0.229910
  33 H :    0.227808
  34 C :   -0.432918
  35 H :    0.341266
  36 C :   -0.424909
  37 H :    0.207770
  38 H :    0.198136
  39 C :   -0.198101
  40 H :    0.214217
  41 H :    0.207073
  42 H :    0.210088
  43 C :   -0.242058
  44 C :   -0.630325
  45 H :    0.205152
  46 H :    0.210330
  47 H :    0.202037
  48 H :    0.220484
  49 C :   -0.619227
  50 C :   -0.178283
  51 C :   -0.185242
  52 H :    0.210458
  53 H :    0.214914
  54 C :   -0.239569
  55 C :   -0.616005
  56 C :   -0.198675
  57 H :    0.224270
  58 H :    0.218120
  59 C :   -0.623994
  60 C :   -0.608151
  61 H :    0.199062
  62 H :    0.201514
  63 H :    0.204057
  64 H :    0.207492
  65 H :    0.200069
  66 H :    0.203455
  67 H :    0.197835
  68 H :    0.200908
  69 H :    0.199962
  70 H :    0.207999
  71 H :    0.195669
  72 H :    0.204525
Sum of atomic charges:   -0.0000000

--------------------------------
MULLIKEN REDUCED ORBITAL CHARGES
--------------------------------
  0 C s       :     3.354203  s :     3.354203
      pz      :     0.977690  p :     2.567160
      px      :     0.807019
      py      :     0.782451

  1 C s       :     3.378110  s :     3.378110
      pz      :     1.161533  p :     3.122475
      px      :     0.872625
      py      :     1.088317

  2 C s       :     3.312640  s :     3.312640
      pz      :     0.701994  p :     2.761771
      px      :     1.137125
      py      :     0.922651

  3 H s       :     0.777050  s :     0.777050

  4 H s       :     0.780344  s :     0.780344

  5 C s       :     3.341494  s :     3.341494
      pz      :     0.875008  p :     2.519569
      px      :     0.865537
      py      :     0.779024

  6 C s       :     3.367288  s :     3.367288
      pz      :     1.160486  p :     3.112780
      px      :     0.885139
      py      :     1.067155

  7 C s       :     3.338561  s :     3.338561
      pz      :     1.157112  p :     3.101587
      px      :     0.972285
      py      :     0.972189

  8 H s       :     0.774594  s :     0.774594

  9 H s       :     0.792589  s :     0.792589

 10 H s       :     0.791066  s :     0.791066

 11 H s       :     0.772167  s :     0.772167

 12 O s       :     3.685082  s :     3.685082
      pz      :     1.429202  p :     4.802975
      px      :     1.456036
      py      :     1.917737

 13 H s       :     0.752615  s :     0.752615

 14 C s       :     3.394333  s :     3.394333
      pz      :     0.981242  p :     2.885660
      px      :     0.819105
      py      :     1.085314

 15 C s       :     3.385562  s :     3.385562
      pz      :     0.981062  p :     3.128526
      px      :     0.995873
      py      :     1.151592

 16 H s       :     0.798775  s :     0.798775

 17 H s       :     0.802978  s :     0.802978

 18 C s       :     3.396925  s :     3.396925
      pz      :     1.012745  p :     2.862811
      px      :     0.757901
      py      :     1.092165

 19 H s       :     0.780205  s :     0.780205

 20 C s       :     3.351052  s :     3.351052
      pz      :     0.935140  p :     2.496269
      px      :     0.757215
      py      :     0.803914

 21 H s       :     0.779859  s :     0.779859

 22 C s       :     3.372798  s :     3.372798
      pz      :     1.117679  p :     3.106459
      px      :     1.104882
      py      :     0.883898

 23 C s       :     3.327593  s :     3.327593
      pz      :     1.117653  p :     3.100458
      px      :     0.888523
      py      :     1.094281

 24 H s       :     0.788368  s :     0.788368

 25 H s       :     0.793010  s :     0.793010

 26 C s       :     3.349543  s :     3.349543
      pz      :     1.163999  p :     3.047332
      px      :     0.971806
      py      :     0.911526

 27 H s       :     0.791244  s :     0.791244

 28 H s       :     0.782485  s :     0.782485

 29 C s       :     3.317517  s :     3.317517
      pz      :     0.873274  p :     2.678923
      px      :     0.905250
      py      :     0.900398

 30 H s       :     0.777126  s :     0.777126

 31 H s       :     0.805375  s :     0.805375

 32 C s       :     3.362410  s :     3.362410
      pz      :     1.097966  p :     2.867499
      px      :     0.866916
      py      :     0.902617

 33 H s       :     0.772192  s :     0.772192

 34 C s       :     3.343993  s :     3.343993
      pz      :     1.186001  p :     3.088925
      px      :     0.940030
      py      :     0.962894

 35 H s       :     0.658734  s :     0.658734

 36 C s       :     3.338888  s :     3.338888
      pz      :     1.182760  p :     3.086021
      px      :     0.926371
      py      :     0.976889

 37 H s       :     0.792230  s :     0.792230

 38 H s       :     0.801864  s :     0.801864

 39 C s       :     3.342393  s :     3.342393
      pz      :     1.084384  p :     2.855708
      px      :     0.864115
      py      :     0.907210

 40 H s       :     0.785783  s :     0.785783

 41 H s       :     0.792927  s :     0.792927

 42 H s       :     0.789912  s :     0.789912

 43 C s       :     3.348119  s :     3.348119
      pz      :     1.073928  p :     2.893939
      px      :     0.884818
      py      :     0.935193

 44 C s       :     3.366176  s :     3.366176
      pz      :     0.945985  p :     3.264150
      px      :     1.162840
      py      :     1.155325

 45 H s       :     0.794848  s :     0.794848

 46 H s       :     0.789670  s :     0.789670

 47 H s       :     0.797963  s :     0.797963

 48 H s       :     0.779516  s :     0.779516

 49 C s       :     3.348341  s :     3.348341
      pz      :     1.159672  p :     3.270886
      px      :     1.147971
      py      :     0.963243

 50 C s       :     3.341465  s :     3.341465
      pz      :     0.900408  p :     2.836819
      px      :     0.972488
      py      :     0.963923

 51 C s       :     3.347942  s :     3.347942
      pz      :     0.901559  p :     2.837299
      px      :     0.962610
      py      :     0.973130

 52 H s       :     0.789542  s :     0.789542

 53 H s       :     0.785086  s :     0.785086

 54 C s       :     3.336726  s :     3.336726
      pz      :     1.050391  p :     2.902843
      px      :     0.965866
      py      :     0.886586

 55 C s       :     3.343531  s :     3.343531
      pz      :     1.070282  p :     3.272474
      px      :     1.104846
      py      :     1.097346

 56 C s       :     3.311676  s :     3.311676
      pz      :     0.897753  p :     2.886999
      px      :     1.076095
      py      :     0.913151

 57 H s       :     0.775730  s :     0.775730

 58 H s       :     0.781880  s :     0.781880

 59 C s       :     3.344603  s :     3.344603
      pz      :     1.026614  p :     3.279391
      px      :     1.088290
      py      :     1.164486

 60 C s       :     3.340822  s :     3.340822
      pz      :     1.051805  p :     3.267329
      px      :     1.134644
      py      :     1.080880

 61 H s       :     0.800938  s :     0.800938

 62 H s       :     0.798486  s :     0.798486

 63 H s       :     0.795943  s :     0.795943

 64 H s       :     0.792508  s :     0.792508

 65 H s       :     0.799931  s :     0.799931

 66 H s       :     0.796545  s :     0.796545

 67 H s       :     0.802165  s :     0.802165

 68 H s       :     0.799092  s :     0.799092

 69 H s       :     0.800038  s :     0.800038

 70 H s       :     0.792001  s :     0.792001

 71 H s       :     0.804331  s :     0.804331

 72 H s       :     0.795475  s :     0.795475


------------------------
MULLIKEN OVERLAP CHARGES
------------------------
B(  0-C ,  1-C ) :   0.5241 B(  0-C ,  2-C ) :  -0.1800 B(  0-C ,  3-H ) :  -0.0795 
B(  0-C ,  4-H ) :  -0.0864 B(  0-C ,  5-C ) :   0.4163 B(  0-C ,  6-C ) :  -0.1413 
B(  0-C , 14-C ) :   0.9506 B(  0-C , 15-C ) :  -0.2024 B(  0-C , 18-C ) :  -0.1866 
B(  0-C , 19-H ) :  -0.0751 B(  1-C ,  2-C ) :   0.5266 B(  1-C ,  3-H ) :   0.8091 
B(  1-C ,  4-H ) :   0.7736 B(  1-C ,  5-C ) :  -0.1405 B(  1-C ,  7-C ) :  -0.1581 
B(  1-C , 12-O ) :  -0.1101 B(  1-C , 13-H ) :  -0.0573 B(  1-C , 14-C ) :  -0.1134 
B(  2-C ,  3-H ) :  -0.0591 B(  2-C ,  4-H ) :  -0.0536 B(  2-C ,  6-C ) :  -0.1585 
B(  2-C ,  7-C ) :   0.5147 B(  2-C , 10-H ) :  -0.0624 B(  2-C , 11-H ) :  -0.0696 
B(  2-C , 12-O ) :   0.6965 B(  2-C , 13-H ) :   0.8218 B(  2-C , 35-H ) :  -0.1153 
B(  5-C ,  6-C ) :   0.5297 B(  5-C ,  7-C ) :  -0.1578 B(  5-C ,  8-H ) :  -0.0731 
B(  5-C ,  9-H ) :  -0.0938 B(  5-C , 14-C ) :  -0.1991 B(  5-C , 15-C ) :   1.0612 
B(  5-C , 16-H ) :  -0.0997 B(  5-C , 17-H ) :  -0.0952 B(  6-C ,  7-C ) :   0.5524 
B(  6-C ,  8-H ) :   0.8229 B(  6-C ,  9-H ) :   0.7936 B(  6-C , 10-H ) :  -0.0740 
B(  6-C , 11-H ) :  -0.0562 B(  6-C , 15-C ) :  -0.1299 B(  7-C ,  9-H ) :  -0.0778 
B(  7-C , 10-H ) :   0.7764 B(  7-C , 11-H ) :   0.8046 B(  7-C , 12-O ) :  -0.1079 
B(  7-C , 13-H ) :  -0.0824 B( 12-O , 35-H ) :   0.6665 B( 14-C , 18-C ) :   0.6123 
B( 14-C , 19-H ) :   0.8216 B( 14-C , 20-C ) :  -0.1939 B( 14-C , 21-H ) :  -0.0741 
B( 15-C , 16-H ) :   0.8137 B( 15-C , 17-H ) :   0.8066 B( 18-C , 19-H ) :  -0.0603 
B( 18-C , 20-C ) :   0.9201 B( 18-C , 21-H ) :   0.8331 B( 18-C , 22-C ) :  -0.1508 
B( 18-C , 32-C ) :  -0.1498 B( 20-C , 21-H ) :  -0.0833 B( 20-C , 22-C ) :   0.5334 
B( 20-C , 23-C ) :  -0.1716 B( 20-C , 24-H ) :  -0.0678 B( 20-C , 25-H ) :  -0.0918 
B( 20-C , 29-C ) :  -0.1252 B( 20-C , 32-C ) :   0.5184 B( 20-C , 33-H ) :  -0.0916 
[...]
        0.0000         2.8746        0.0000
        0.0000         0.0000        2.8746

 Diagonalized JT*J matrix:
 
 J[55,60](FC)             2.875            2.875            2.875  iso=      2.875
                ---------------  ---------------  ---------------  ---------------
 J[55,60](Total)          2.875            2.875            2.875  iso=      2.875



-----------------------------------------------------------
 NUCLEUS A = C   56 NUCLEUS B = C   59 
 ( 13C  gnA =  1.405  13C  gnB =  1.405) r(AB) =     1.5310
-----------------------------------------------------------

Fermi-contact contribution to J (Hz):
       26.2231         0.0000        0.0000
        0.0000        26.2231        0.0000
        0.0000         0.0000       26.2231

Total spin-spin coupling tensor J (Hz):
       26.2231         0.0000        0.0000
        0.0000        26.2231        0.0000
        0.0000         0.0000       26.2231

 Diagonalized JT*J matrix:
 
 J[56,59](FC)            26.223           26.223           26.223  iso=     26.223
                ---------------  ---------------  ---------------  ---------------
 J[56,59](Total)         26.223           26.223           26.223  iso=     26.223



-----------------------------------------------------------
 NUCLEUS A = C   56 NUCLEUS B = C   60 
 ( 13C  gnA =  1.405  13C  gnB =  1.405) r(AB) =     1.5295
-----------------------------------------------------------

Fermi-contact contribution to J (Hz):
       27.2954         0.0000        0.0000
        0.0000        27.2954        0.0000
        0.0000         0.0000       27.2954

Total spin-spin coupling tensor J (Hz):
       27.2954         0.0000        0.0000
        0.0000        27.2954        0.0000
        0.0000         0.0000       27.2954

 Diagonalized JT*J matrix:
 
 J[56,60](FC)            27.295           27.295           27.295  iso=     27.295
                ---------------  ---------------  ---------------  ---------------
 J[56,60](Total)         27.295           27.295           27.295  iso=     27.295



-----------------------------------------------------------
 NUCLEUS A = C   59 NUCLEUS B = C   60 
 ( 13C  gnA =  1.405  13C  gnB =  1.405) r(AB) =     2.5111
-----------------------------------------------------------

Fermi-contact contribution to J (Hz):
       -0.9140         0.0000        0.0000
        0.0000        -0.9140        0.0000
        0.0000         0.0000       -0.9140

Total spin-spin coupling tensor J (Hz):
       -0.9140         0.0000        0.0000
        0.0000        -0.9140        0.0000
        0.0000         0.0000       -0.9140

 Diagonalized JT*J matrix:
 
 J[59,60](FC)            -0.914           -0.914           -0.914  iso=     -0.914
                ---------------  ---------------  ---------------  ---------------
 J[59,60](Total)         -0.914           -0.914           -0.914  iso=     -0.914



-----------------------------------------------------------------------------
                SUMMARY OF ISOTROPIC COUPLING CONSTANTS J (Hz)                
-----------------------------------------------------------------------------
                  0 C        1 C        2 C        5 C        6 C        7 C  
      0 C        0.000     33.209     -3.768     41.384     -0.902      2.287
      1 C       33.209      0.000     23.503     -1.233      1.440     -0.675
      2 C       -3.768     23.503      0.000      2.307     -2.795     25.930
      5 C       41.384     -1.233      2.307      0.000     30.472     -2.788
      6 C       -0.902      1.440     -2.795     30.472      0.000     24.876
      7 C        2.287     -0.675     25.930     -2.788     24.876      0.000
     14 C       69.384     -0.401      2.847     -3.023      2.186     -0.624
     15 C       -3.423      2.425     -0.866     64.560     -1.119      2.605
     18 C       -2.398      4.170     -1.094      3.214     -0.817      0.194
     20 C        6.821     -1.103      1.082     -1.391      0.607     -0.104
     22 C       -0.926      0.327     -0.329      0.425     -0.183      0.037
     23 C        0.822     -0.286      0.279     -0.342      0.153      0.000
     26 C       -0.093      0.039      0.000      0.048      0.000      0.000
     29 C        1.154     -0.361      0.000     -0.445      0.206      0.000
     32 C       -1.127      0.546     -0.374      0.476     -0.216      0.044
     34 C        0.021     -0.014      0.013     -0.014      0.006     -0.001
     36 C       -0.015      0.000      0.000      0.017     -0.008      0.000
     39 C       -0.070      0.000      0.000      0.030      0.000      0.000
     43 C        0.000      0.000      0.000      0.000      0.000      0.000
     44 C        0.012     -0.004      0.000     -0.003     -0.004      0.000
     49 C        0.000      0.000      0.000      0.000      0.000      0.000
     50 C        0.000      0.000      0.000      0.000      0.000      0.000
     51 C        0.000      0.000      0.000      0.000      0.000      0.000
     54 C        0.000      0.000      0.000      0.000      0.000      0.000
     55 C        0.000      0.000      0.000      0.000      0.000      0.000
     56 C        0.000      0.000      0.000      0.000      0.000      0.000
     59 C        0.000      0.000      0.000      0.000      0.000      0.000
     60 C        0.000      0.000      0.000      0.000      0.000      0.000
                 14 C       15 C       18 C       20 C       22 C       23 C  
      0 C       69.384     -3.423     -2.398      6.821     -0.926      0.822
      1 C       -0.401      2.425      4.170     -1.103      0.327     -0.286
      2 C        2.847     -0.866     -1.094      1.082     -0.329      0.279
      5 C       -3.023     64.560      3.214     -1.391      0.425     -0.342
      6 C        2.186     -1.119     -0.817      0.607     -0.183      0.153
      7 C       -0.624      2.605      0.194     -0.104      0.037      0.000
     14 C        0.000      3.126     54.087     -2.657      3.769     -0.920
     15 C        3.126      0.000     -1.129      1.016     -0.272      0.253
     18 C       54.087     -1.129      0.000     70.001     -2.157      2.363
     20 C       -2.657      1.016     70.001      0.000     32.104     -2.956
     22 C        3.769     -0.272     -2.157     32.104      0.000     24.301
     23 C       -0.920      0.253      2.363     -2.956     24.301      0.000
     26 C        0.135     -0.033     -0.352      1.035     -1.937     25.483
     29 C       -1.114      0.320      2.279     -2.419      1.068     -2.224
     32 C        4.390     -0.316     -1.294     36.933     -0.258      1.528
     34 C        0.075      0.003      2.466     -1.347      1.593     -0.268
     36 C        0.016     -0.014     -0.154      3.546      0.058      0.163
     39 C        0.256     -0.023     -0.038      2.916     -0.335      2.558
     43 C        0.005      0.017      0.279      0.171      0.003     -0.111
     44 C        0.003      0.031     -0.043      0.700     -0.141      0.612
     49 C       -0.001      0.000     -0.009     -0.036      0.138      0.038
     50 C        0.000      0.000      0.030      0.146     -0.009      0.139
     51 C        0.000      0.000     -0.006      0.044     -0.002     -0.007
     54 C        0.000      0.000      0.000      0.000      0.000      0.000
     55 C        0.000      0.000      0.000      0.000      0.000      0.000
     56 C        0.000      0.000      0.000      0.000      0.000      0.000
     59 C        0.000      0.000      0.000      0.000      0.000      0.000
     60 C        0.000      0.000      0.000      0.000      0.000      0.000
                 26 C       29 C       32 C       34 C       36 C       39 C  
      0 C       -0.093      1.154     -1.127      0.021     -0.015     -0.070
      1 C        0.039     -0.361      0.546     -0.014      0.000      0.000
      2 C        0.000      0.000     -0.374      0.013      0.000      0.000
      5 C        0.048     -0.445      0.476     -0.014      0.017      0.030
      6 C        0.000      0.206     -0.216      0.006     -0.008      0.000
      7 C        0.000      0.000      0.044     -0.001      0.000      0.000
     14 C        0.135     -1.114      4.390      0.075      0.016      0.256
     15 C       -0.033      0.320     -0.316      0.003     -0.014     -0.023
     18 C       -0.352      2.279     -1.294      2.466     -0.154     -0.038
     20 C        1.035     -2.419     36.933     -1.347      3.546      2.916
     22 C       -1.937      1.068     -0.258      1.593      0.058     -0.335
     23 C       25.483     -2.224      1.528     -0.268      0.163      2.558
     26 C        0.000     27.847     -0.935      2.295      3.033     -0.587
     29 C       27.847      0.000     23.151      0.990      0.556     28.892
     32 C       -0.935     23.151      0.000     27.893      1.340      3.499
     34 C        2.295      0.990     27.893      0.000     25.819      0.061
     36 C        3.033      0.556      1.340     25.819      0.000     26.286
     39 C       -0.587     28.892      3.499      0.061     26.286      0.000
     43 C       -0.010     -0.682      2.691      1.641      0.256     30.413
     44 C       -0.562     27.312     -0.920      0.849      0.242     -1.232
     49 C        0.348      0.195      0.003     -0.007      3.162     -1.017
     50 C       -0.090      3.352      0.006     -0.050      0.597     -1.658
     51 C        0.018     -0.106      0.046      0.005      0.085      2.050
     54 C        0.004      0.026     -0.004     -0.001      0.042     -0.191
     55 C        0.002     -0.028      0.004      0.002     -0.046      0.072
     56 C        0.000     -0.002      0.003      0.002      0.002      0.070
     59 C       -0.000     -0.001      0.002     -0.003      0.000     -0.002
     60 C        0.001      0.011      0.004      0.002     -0.020      0.021
                 43 C       44 C       49 C       50 C       51 C       54 C  
      0 C        0.000      0.012      0.000      0.000      0.000      0.000
      1 C        0.000     -0.004      0.000      0.000      0.000      0.000
      2 C        0.000      0.000      0.000      0.000      0.000      0.000
      5 C        0.000     -0.003      0.000      0.000      0.000      0.000
      6 C        0.000     -0.004      0.000      0.000      0.000      0.000
      7 C        0.000      0.000      0.000      0.000      0.000      0.000
     14 C        0.005      0.003     -0.001      0.000      0.000      0.000
     15 C        0.017      0.031      0.000      0.000      0.000      0.000
     18 C        0.279     -0.043     -0.009      0.030     -0.006      0.000
     20 C        0.171      0.700     -0.036      0.146      0.044      0.000
     22 C        0.003     -0.141      0.138     -0.009     -0.002      0.000
     23 C       -0.111      0.612      0.038      0.139     -0.007      0.000
     26 C       -0.010     -0.562      0.348     -0.090      0.018      0.004
     29 C       -0.682     27.312      0.195      3.352     -0.106      0.026
     32 C        2.691     -0.920      0.003      0.006      0.046     -0.004
     34 C        1.641      0.849     -0.007     -0.050      0.005     -0.001
     36 C        0.256      0.242      3.162      0.597      0.085      0.042
     39 C       30.413     -1.232     -1.017     -1.658      2.050     -0.191
     43 C        0.000      1.541     24.955     35.197     -1.691      3.727
     44 C        1.541      0.000     -0.095     -0.143      0.136      0.022
     49 C       24.955     -0.095      0.000     -3.498      3.435     -1.050
     50 C       35.197     -0.143     -3.498      0.000     68.421     -0.460
     51 C       -1.691      0.136      3.435     68.421      0.000     36.049
     54 C        3.727      0.022     -1.050     -0.460     36.049      0.000
     55 C       -0.601      0.017      1.394      3.750     -2.289     26.772
     56 C       -0.531      0.019      1.096      2.972     -2.678     25.479
     59 C        0.002     -0.001     -0.028     -0.077      1.670     -1.616
     60 C       -0.014     -0.001      0.020     -0.072      0.582     -0.328
                 55 C       56 C       59 C       60 C  
      0 C        0.000      0.000      0.000      0.000
      1 C        0.000      0.000      0.000      0.000
      2 C        0.000      0.000      0.000      0.000
      5 C        0.000      0.000      0.000      0.000
      6 C        0.000      0.000      0.000      0.000
      7 C        0.000      0.000      0.000      0.000
     14 C        0.000      0.000      0.000      0.000
     15 C        0.000      0.000      0.000      0.000
     18 C        0.000      0.000      0.000      0.000
     20 C        0.000      0.000      0.000      0.000
     22 C        0.000      0.000      0.000      0.000
     23 C        0.000      0.000      0.000      0.000
     26 C        0.002      0.000     -0.000      0.001
     29 C       -0.028     -0.002     -0.001      0.011
     32 C        0.004      0.003      0.002      0.004
     34 C        0.002      0.002     -0.003      0.002
     36 C       -0.046      0.002      0.000     -0.020
     39 C        0.072      0.070     -0.002      0.021
     43 C       -0.601     -0.531      0.002     -0.014
     44 C        0.017      0.019     -0.001     -0.001
     49 C        1.394      1.096     -0.028      0.020
     50 C        3.750      2.972     -0.077     -0.072
     51 C       -2.289     -2.678      1.670      0.582
     54 C       26.772     25.479     -1.616     -0.328
     55 C        0.000     -0.809      1.024      2.875
     56 C       -0.809      0.000     26.223     27.295
     59 C        1.024     26.223      0.000     -0.914
     60 C        2.875     27.295     -0.914      0.000

NMR spin-spin coupling calculation done in   0.3 sec 

Maximum memory used throughout the entire PROP-calculation: 34.7 MB

--------------------------------
SUGGESTED CITATIONS FOR THIS RUN
--------------------------------

Below you find a list of papers that are relevant to this ORCA run
We neither can nor want to force you to cite these papers, but we appreciate if you do
You receive ORCA, which is the product of decades of hard work by many enthusiastic individuals, for free
The only thing we kindly ask in return is that you cite our papers,
We deeply appreciate it, if you show your appreciation for ORCA by not just citing the generic ORCA reference.

Please note that relegating all ORCA citations to the supporting information does *not* help us.
SI sections are not indexed - citations you put there will not count into any citation statistics
But we need these citations in order to attract the funding resources that allow us to do what we are doing

Therefore, if you are a happy ORCA user, please consider citing a few of the papers listed below in the main body of your paper

In addition to the list printed below, the program has created the file inpJ.bibtex that contains the list in bibtex format
You can import this file easily into all common literature databanks and citation aid programs


List of essential papers. We consider these as the minimum necessary citations

  1. Neese,F.
     Software update: the ORCA program system, version 5.0
     WIRES Comput. Molec. Sci., 2022 12(1)e1606
     doi.org/10.1002/wcms.1606

List of papers to cite with high priority. The work reported in these papers was absolutely
necessary for this run to complete.
Our perspective: the developers of density functionals and basis sets usually get cited in chemistry papers
Good! But without the algorithms to do something with them, the functionals or basis sets would not do anything.
Hence, in our opinion, the algorithm design and method developments papers are equally worthy of getting cited

  1. Neese,F.
     An improvement of the resolution of the identity approximation for the formation of the Coulomb matrix
     J. Comp. Chem., 2003 24(14)1740-1747
     doi.org/10.1002/jcc.10318
  2. Neese,F.; Wennmohs,F.; Hansen,A.; Becker,U.
     Efficient, approximate and parallel Hartree-Fock and hybrid DFT calculations. A 'chain-of-spheres' algorithm for the Hartree-Fock exchange
     Chem. Phys., 2009 356(1-3)98-109
     doi.org/10.1016/j.chemphys.2008.10.036
  3. Stoychev,G.L.; Auer,A.A.; Izsak,R.; Neese,F.
     Self-Consistent Field Calculation of Nuclear Magnetic Resonance Chemical Shielding Constants Using Gauge-Including Atomic Orbitals and Approximate Two-Electron Integrals
     J. Chem. Theory Comput., 2018 14(2)619-637
     doi.org/10.1021/acs.jctc.7b01006
  4. Garcia-Rates,M.; Neese,F.
     Effect of the Solute Cavity on the Solvation Energy and its Derivatives within the Framework of the Gaussian Charge Scheme
     J. Comput. Chem., 2020 41 922-939
     doi.org/10.1002/jcc.26139
  5. Helmich-Paris,B.; de Souza,B.; Neese,F.; Izsák,R.
     An improved chain of spheres for exchange algorithm
     J. Chem. Phys., 2021 155 104109
     doi.org/doi: 10.1063/5.0058766.
  6. Neese,F.
     The SHARK Integral Generation and Digestion System
     J. Comp. Chem., 2022  1-16
     doi.org/10.1002/jcc.26942
  7. Grimme,S.; Bannwarth,C.; Dohm,S.; Hansen,A.; Pisarek,J.; Pracht,P.; Seibert,J.; Neese,F.
     Fully Automated Quantum-Chemistry-Based Computation of Spin-Spin-Coupled Nuclear Magnetic Resonance Spectra
     Angew. Chem., Int. Ed., 2017 56 14763-14769
     doi.org/10.1002/anie.201708266
  8. Caldeweyher,E.; Bannwarth,C.; Grimme,S.
     Extension of the D3 dispersion coefficient model
     J. Chem. Phys., 2017 147 034112-XXXX
     doi.org/10.1063/1.4993215
  9. Caldeweyher,E.; Ehlert,S.; Hansen,A.; Neugebauer,H.; Spicher,S.; Bannwarth,C.; Grimme,S.
     A generally applicable atomic-charge dependent London dispersion correction
     J. Chem. Phys., 2019 150 154122-XXXX
     doi.org/10.1063/1.5090222
 10. Caldeweyher,E.; Mewes,J.; Ehlert,S.; Grimme,S.
     Extension and evaluation of the D4 London-dispersion model for periodic systems
     Phys. Chem. Chem. Phys., 2020 22(16)8499-8512
     doi.org/10.1039/D0CP00502A

List of suggested additional citations. These are papers that are important in the 'surrounding' of 
of this run, or papers that preceded the highly important papers. If you like your results we are grateful for a citation.

  1. Izsak,R.; Neese,F.
     An overlap fitted chain of spheres exchange method
     J. Chem. Phys., 2011 135 144105
     doi.org/10.1063/1.3646921
  2. Izsak,R.; Hansen,A.; Neese,F.
     The resolution of identity and chain of spheres approximations for the LPNO-CCSD singles Fock term
     Molec. Phys., 2012 110 2413-2417
     doi.org/10.1080/00268976.2012.687466
  3. Neese,F.
     The ORCA program system
     WIRES Comput. Molec. Sci., 2012 2(1)73-78
     doi.org/10.1002/wcms.81
  4. Izsak,R.; Neese,F.; Klopper,W.
     Robust fitting techniques in the chain of spheres approximation to the Fock exchange: The role of the complementary space
     J. Chem. Phys., 2013 139 
     doi.org/10.1063/1.4819264
  5. Neese,F.
     Software update: the ORCA program system, version 4.0
     WIRES Comput. Molec. Sci., 2018 8(1)1-6
     doi.org/10.1002/wcms.1327
  6. Neese,F.; Wennmohs,F.; Becker,U.; Riplinger,C.
     The ORCA quantum chemistry program package
     J. Chem. Phys., 2020 152 Art. No. L224108
     doi.org/10.1063/5.0004608

Timings for individual modules:

Sum of individual times          ...      139.845 sec (=   2.331 min)
Startup calculation              ...        3.806 sec (=   0.063 min)   2.7 %
SCF iterations                   ...       21.097 sec (=   0.352 min)  15.1 %
Property integrals               ...        0.723 sec (=   0.012 min)   0.5 %
SCF Response                     ...      113.707 sec (=   1.895 min)  81.3 %
Property calculations            ...        0.514 sec (=   0.009 min)   0.4 %
                             ****ORCA TERMINATED NORMALLY****
TOTAL RUN TIME: 0 days 0 hours 2 minutes 20 seconds 118 msec
