
                                 *****************
                                 * O   R   C   A *
                                 *****************

                                            #,                                       
                                            ###                                      
                                            ####                                     
                                            #####                                    
                                            ######                                   
                                           ########,                                 
                                     ,,################,,,,,                         
                               ,,#################################,,                 
                          ,,##########################################,,             
                       ,#########################################, ''#####,          
                    ,#############################################,,   '####,        
                  ,##################################################,,,,####,       
                ,###########''''           ''''###############################       
              ,#####''   ,,,,##########,,,,          '''####'''          '####       
            ,##' ,,,,###########################,,,                        '##       
           ' ,,###''''                  '''############,,,                           
         ,,##''                                '''############,,,,        ,,,,,,###''
      ,#''                                            '''#######################'''  
     '                                                          ''''####''''         
             ,#######,   #######,   ,#######,      ##                                
            ,#'     '#,  ##    ##  ,#'     '#,    #''#        ,####,   ,####,        
            ##       ##  ##   ,#'  ##            #'  '#       #'       #'  '#        
            ##       ##  #######   ##           ,######,      #####,   #    #        
            '#,     ,#'  ##    ##  '#,     ,#' ,#      #,     #,   #   #,  ,#        
             '#######'   ##     ##  '#######'  #'      '#     '####' # '####'        



                #########################################################
                #                        -***-                          #
                #          Department of theory and spectroscopy        #
                #                                                       #
                #                      Frank Neese                      #
                #                                                       #
                #     Directorship, Architecture, Infrastructure        #
                #                    SHARK, DRIVERS                     #
                #        Core code/Algorithms in most modules           #
                #                                                       #
                #        Max Planck Institute fuer Kohlenforschung      #
                #                Kaiser Wilhelm Platz 1                 #
                #                 D-45470 Muelheim/Ruhr                 #
                #                      Germany                          #
                #                                                       #
                #                  All rights reserved                  #
                #                        -***-                          #
                #########################################################


                         Program Version 6.0.0  -   RELEASE  -


 With contributions from (in alphabetic order):
   Daniel Aravena         : Magnetic Suceptibility
   Michael Atanasov       : Ab Initio Ligand Field Theory (pilot matlab implementation)
   Alexander A. Auer      : GIAO ZORA, VPT2 properties, NMR spectrum
   Ute Becker             : All parallelization in ORCA, NUMFREQ, NUMCALC
   Giovanni Bistoni       : ED, misc. LED, open-shell LED, HFLD
   Martin Brehm           : Molecular dynamics
   Dmytro Bykov           : pre 5.0 version of the SCF Hessian
   Marcos Casanova-Páez   : Triplet and SCS-CIS(D). UHF-(DLPNO)-IP/EA/STEOM-CCSD. UHF-CVS-IP/STEOM-CCSD
   Vijay G. Chilkuri      : MRCI spin determinant printing, contributions to CSF-ICE
   Pauline Colinet        : FMM embedding
   Dipayan Datta          : RHF DLPNO-CCSD density
   Achintya Kumar Dutta   : EOM-CC, STEOM-CC
   Nicolas Foglia         : Exact transition moments, OPA infrastructure, MCD improvements
   Dmitry Ganyushin       : Spin-Orbit,Spin-Spin,Magnetic field MRCI
   Miquel Garcia          : C-PCM and meta-GGA Hessian, CCSD/C-PCM, Gaussian charge scheme
   Tiago L. C. Gouveia    : GS-ROHF, GS-ROCIS
   Yang Guo               : DLPNO-NEVPT2, F12-NEVPT2, CIM, IAO-localization
   Andreas Hansen         : Spin unrestricted coupled pair/coupled cluster methods
   Ingolf Harden          : AUTO-CI MPn and infrastructure 
   Benjamin Helmich-Paris : MC-RPA, TRAH-(SCF,CASSCF), AVAS, COSX integrals, SCF dyn. polar.
   Lee Huntington         : MR-EOM, pCC
   Robert Izsak           : Overlap fitted RIJCOSX, COSX-SCS-MP3, EOM
   Riya Kayal             : Wick's Theorem for AUTO-CI, AUTO-CI UHF-CCSDT
   Emily Kempfer          : AUTO-CI, RHF CISDT and CCSDT
   Christian Kollmar      : KDIIS, OOCD, Brueckner-CCSD(T), CCSD density, CASPT2, CASPT2-K, improved NEVPT2
   Axel Koslowski         : Symmetry handling
   Simone Kossmann        : Meta GGA functionals, TD-DFT gradient, OOMP2, (MP2 Hessian; deprecated post 5.0)
   Lucas Lang             : DCDCAS
   Marvin Lechner         : AUTO-CI (C++ implementation), FIC-MRCC
   Spencer Leger          : CASSCF response
   Dagmar Lenk            : GEPOL surface, SMD, ORCA-2-JSON
   Dimitrios Liakos       : Extrapolation schemes; Compound Job, initial MDCI parallelization
   Dimitrios Manganas     : Further ROCIS development; embedding schemes. LFT, Crystal Embedding
   Dimitrios Pantazis     : SARC Basis sets
   Anastasios Papadopoulos: AUTO-CI, single reference methods and gradients
   Taras Petrenko         : pre 6.0 DFT Hessian and TD-DFT gradient, (ASA, deprecated), ECA, 1-Electron XAS/XES, NRVS
   Peter Pinski           : DLPNO-MP2, DLPNO-MP2 Gradient
   Christoph Reimann      : Effective Core Potentials
   Marius Retegan         : Local ZFS, SOC
   Christoph Riplinger    : Optimizer, TS searches, QM/MM, DLPNO-CCSD(T), (RO)-DLPNO pert. Triples
   Michael Roemelt        : Original ROCIS implementation
   Masaaki Saitow         : Open-shell DLPNO-CCSD energy and density
   Barbara Sandhoefer     : DKH picture change effects
   Kantharuban Sivalingam : CASSCF convergence/infrastructure, NEVPT2 and variants, FIC-MRCI
   Bernardo de Souza      : ESD, SOC TD-DFT
   Georgi Stoychev        : AutoAux, RI-MP2 NMR, DLPNO-MP2 response, X2C
   Van Anh Tran           : RI-MP2 g-tensors
   Willem Van den Heuvel  : Paramagnetic NMR
   Zikuan Wang            : NOTCH, Electric field optimization 
   Frank Wennmohs         : Technical directorship and infrastructure
   Hang Xu                : AUTO-CI-Response properties 


 We gratefully acknowledge several colleagues who have allowed us to
 interface, adapt or use parts of their codes:
   Stefan Grimme, W. Hujo, H. Kruse, P. Pracht,  : VdW corrections, initial TS optimization,
                  C. Bannwarth, S. Ehlert,         DFT functionals, gCP, sTDA/sTD-DF
                  L. Wittmann, M. Mueller
   Ed Valeev, F. Pavosevic, A. Kumar             : LibInt (2-el integral package), F12 methods
   Garnet Chan, S. Sharma, J. Yang, R. Olivares  : DMRG
   Ulf Ekstrom                                   : XCFun DFT Library
   Mihaly Kallay                                 : mrcc  (arbitrary order and MRCC methods)
   Frank Weinhold                                : gennbo (NPA and NBO analysis)
   Simon Mueller                                 : openCOSMO-RS
   Christopher J. Cramer and Donald G. Truhlar   : smd solvation model
   Lars Goerigk                                  : TD-DFT with DH, B97 family of functionals
   V. Asgeirsson, H. Jonsson                     : NEB implementation
   FAccTs GmbH                                   : IRC, NEB, NEB-TS, DLPNO-Multilevel, CI-OPT
                                                   MM, QMMM, 2- and 3-layer-ONIOM, Crystal-QMMM,
                                                   LR-CPCM, SF, NACMEs, symmetry and pop. for TD-DFT,
                                                   nearIR, NL-DFT gradient (VV10), updates on ESD,
                                                   ML-optimized integration grids, MBIS, APM,
                                                   GOAT, DOCKER, SOLVATOR, interface openCOSMO-RS
   S Lehtola, MJT Oliveira, MAL Marques          : LibXC Library
   Liviu Ungur et al                             : ANISO software


 Your calculation uses the libint2 library for the computation of 2-el integrals
 For citations please refer to: http://libint.valeyev.net

 Your ORCA version has been built with support for libXC version: 6.2.2
 For citations please refer to: https://libxc.gitlab.io

 This ORCA versions uses:
   CBLAS   interface :  Fast vector & matrix operations
   LAPACKE interface :  Fast linear algebra routines
   SCALAPACK package :  Parallel linear algebra routines
   Shared memory     :  Shared parallel matrices
   BLAS/LAPACK       :  OpenBLAS 0.3.27  USE64BITINT DYNAMIC_ARCH NO_AFFINITY Zen SINGLE_THREADED
        Core in use  :  Zen
   Copyright (c) 2011-2014, The OpenBLAS Project


NOTE: MaxCore=8000 MB was set to SCF,MP2,MDCI,CIPSI,MRCI and CIS
      => If you want to overwrite this, your respective input block should be placed after the MaxCore statement
Your calculation utilizes the atom-pairwise dispersion correction
based on EEQ partial charges (D4)


================================================================================

----- Orbital basis set information -----
Your calculation utilizes the basis: def2-SVP
   F. Weigend and R. Ahlrichs, Phys. Chem. Chem. Phys. 7, 3297 (2005).

----- AuxJ basis set information -----
Your calculation utilizes the auxiliary basis: def2/J
   F. Weigend, Phys. Chem. Chem. Phys. 8, 1057 (2006).

================================================================================
                                        WARNINGS
                       Please study these warnings very carefully!
================================================================================

WARNING: Old DensityContainer found on disk!
         Will remove this file - 
         If you want to keep old densities, please start your calculation with a different basename. 


================================================================================
                                       INPUT FILE
================================================================================
NAME = inpS
|  1> ! wb97x-d4
|  2> ! def2-svp
|  3> ! def2/J RIJCOSX
|  4> ! DEFGRID2
|  5> ! scfconv7
|  6> ! smallprint printgap noloewdin
|  7> ! NOSOSCF
|  8> %MaxCore 8000
|  9> %output
| 10>        print[P_BondOrder_M] 1
| 11>        print[P_Mayer] 1
| 12>        print[P_basis] 2
| 13> end
| 14> %pal
| 15>     nprocs 4
| 16> end
| 17> ! CPCM(chloroform)
| 18> *xyz 0 1
| 19> C   -5.1923445600   0.0870798100  -0.5682693100
| 20> C   -6.6229940800  -0.3888938300  -0.6599190300
| 21> C   -7.5620389400   0.5946777100   0.0501888900
| 22> H   -6.7280225300  -1.3888898900  -0.2241517000
| 23> H   -6.9307862900  -0.4447371100  -1.7146631300
| 24> C   -4.9871579100   1.4713977900  -1.0490791600
| 25> C   -5.9531898800   2.4836589600  -0.4743450200
| 26> C   -7.4064234900   1.9951414400  -0.5453899700
| 27> H   -5.8444661000   3.4446830600  -0.9881937600
| 28> H   -5.6900328100   2.6521222400   0.5810625400
| 29> H   -7.7332528100   1.9623615900  -1.5935923800
| 30> H   -8.0647353600   2.6936357700  -0.0158179900
| 31> O   -7.3234689400   0.5900643000   1.4677171800
| 32> H   -8.6001025500   0.2601671200  -0.0677862600
| 33> C   -4.2262779400  -0.6916843600  -0.0253967100
| 34> C   -4.0529981700   1.8015715500  -1.9477325300
| 35> H   -3.3796082100   1.0562112500  -2.3624572900
| 36> H   -3.9488991000   2.8267415900  -2.2954417400
| 37> C   -2.8544965600  -0.3043990300   0.2109637400
| 38> H   -4.5295487200  -1.6894885400   0.2894699800
| 39> C   -1.8571959900  -1.1038940900   0.6452527700
| 40> H   -2.6198119700   0.7414585200   0.0257269900
| 41> C   -1.9713695600  -2.5811006000   0.9244402200
| 42> C   -0.9220884200  -3.3895159200   0.1360148600
| 43> H   -2.9714823500  -2.9669813200   0.7089139000
| 44> H   -1.7880514800  -2.7386975300   1.9991964200
| 45> C    0.5005818100  -2.8419255400   0.3133201100
| 46> H   -1.1914477300  -3.3842631500  -0.9277172000
| 47> H   -0.9561614800  -4.4364300800   0.4615128100
| 48> C    0.5823741600  -1.3463773600  -0.0236094200
| 49> H    1.1875468100  -3.4281267500  -0.3060125100
| 50> H    0.8136746200  -2.9803754800   1.3591925200
| 51> C   -0.4625060400  -0.6080164900   0.8721352500
| 52> H   -0.1929996900  -0.8938788400   1.9059030500
| 53> C   -0.1126793900   0.8665316600   0.7044099300
| 54> H   -6.3652486600   0.5775949200   1.6030406400
| 55> C    1.4332565100   0.8616810700   0.6316350200
| 56> H   -0.4964697100   1.4795380400   1.5267763800
| 57> H   -0.5405885800   1.2651901500  -0.2223322900
| 58> C    1.8826588600  -0.6191101200   0.4251104400
| 59> H    1.8736088800   1.2778603400   1.5418860600
| 60> H    1.7933632700   1.4836549000  -0.1967320400
| 61> H    2.1467627100  -1.0497627400   1.4037459600
| 62> C    3.1143040200  -0.7187117900  -0.4859791000
| 63> C    0.2922622700  -1.0991782500  -1.5110031800
| 64> H    0.4758825200  -0.0571253100  -1.7919141200
| 65> H   -0.7504752000  -1.3230745300  -1.7563842900
| 66> H    0.9287011400  -1.7291895100  -2.1415855400
| 67> H    2.8476395900  -0.2583156600  -1.4502860900
| 68> C    3.5710493500  -2.1604855500  -0.7755600300
| 69> C    4.3113523400   0.0431272300   0.0388434000
| 70> C    4.5739714600   0.3785308400   1.3016028200
| 71> H    5.0632820500   0.2810158700  -0.7191400200
| 72> H    3.8567108100   0.1336087900   2.0867832500
| 73> C    5.8272741700   1.0738409000   1.7550318900
| 74> C    6.5963306700   0.1907834100   2.7485888700
| 75> C    5.5480624900   2.4871947900   2.3335895800
| 76> H    6.4655665900   1.2222334200   0.8709990700
| 77> H    6.5273390200   2.8876330900   2.6386873900
| 78> C    4.6415949000   2.4761851600   3.5673117100
| 79> C    4.9724247000   3.4136604200   1.2613406700
| 80> H    5.9733111500  -0.0863254200   3.6060853500
| 81> H    7.4840688100   0.7109905200   3.1275350100
| 82> H    6.9207846100  -0.7360068200   2.2639508100
| 83> H    5.0332070500   1.8354720400   4.3637685500
| 84> H    3.6340201000   2.1269607400   3.3124739900
| 85> H    4.5445159300   3.4892881600   3.9730888400
| 86> H    5.6214121500   3.4534666800   0.3786426700
| 87> H    4.8584615200   4.4330056100   1.6469682800
| 88> H    3.9861025300   3.0615506800   0.9360074700
| 89> H    2.8507605200  -2.7042996100  -1.3922739300
| 90> H    3.7124837700  -2.7106339200   0.1622085100
| 91> H    4.5284896200  -2.1560208000  -1.3085780500
| 92> *
| 93> %eprnmr
| 94>  Nuclei = all C { shift }
| 95>  origin giao
| 96>  giao_2el giao_2el_same_as_scf
| 97>  giao_1el giao_1el_analytic
| 98> end
| 99> 
|100>                          ****END OF INPUT****
================================================================================

                       ****************************
                       * Single Point Calculation *
                       ****************************

---------------------------------
CARTESIAN COORDINATES (ANGSTROEM)
---------------------------------
  C     -5.192345    0.087080   -0.568269
  C     -6.622994   -0.388894   -0.659919
  C     -7.562039    0.594678    0.050189
  H     -6.728023   -1.388890   -0.224152
  H     -6.930786   -0.444737   -1.714663
  C     -4.987158    1.471398   -1.049079
  C     -5.953190    2.483659   -0.474345
  C     -7.406423    1.995141   -0.545390
  H     -5.844466    3.444683   -0.988194
  H     -5.690033    2.652122    0.581063
  H     -7.733253    1.962362   -1.593592
  H     -8.064735    2.693636   -0.015818
  O     -7.323469    0.590064    1.467717
  H     -8.600103    0.260167   -0.067786
  C     -4.226278   -0.691684   -0.025397
  C     -4.052998    1.801572   -1.947733
  H     -3.379608    1.056211   -2.362457
  H     -3.948899    2.826742   -2.295442
  C     -2.854497   -0.304399    0.210964
  H     -4.529549   -1.689489    0.289470
  C     -1.857196   -1.103894    0.645253
  H     -2.619812    0.741459    0.025727
  C     -1.971370   -2.581101    0.924440
  C     -0.922088   -3.389516    0.136015
  H     -2.971482   -2.966981    0.708914
  H     -1.788051   -2.738698    1.999196
  C      0.500582   -2.841926    0.313320
  H     -1.191448   -3.384263   -0.927717
  H     -0.956161   -4.436430    0.461513
  C      0.582374   -1.346377   -0.023609
  H      1.187547   -3.428127   -0.306013
  H      0.813675   -2.980375    1.359193
  C     -0.462506   -0.608016    0.872135
  H     -0.193000   -0.893879    1.905903
  C     -0.112679    0.866532    0.704410
  H     -6.365249    0.577595    1.603041
  C      1.433257    0.861681    0.631635
  H     -0.496470    1.479538    1.526776
  H     -0.540589    1.265190   -0.222332
  C      1.882659   -0.619110    0.425110
  H      1.873609    1.277860    1.541886
  H      1.793363    1.483655   -0.196732
  H      2.146763   -1.049763    1.403746
  C      3.114304   -0.718712   -0.485979
  C      0.292262   -1.099178   -1.511003
  H      0.475883   -0.057125   -1.791914
  H     -0.750475   -1.323075   -1.756384
  H      0.928701   -1.729190   -2.141586
  H      2.847640   -0.258316   -1.450286
  C      3.571049   -2.160486   -0.775560
  C      4.311352    0.043127    0.038843
  C      4.573971    0.378531    1.301603
  H      5.063282    0.281016   -0.719140
  H      3.856711    0.133609    2.086783
  C      5.827274    1.073841    1.755032
  C      6.596331    0.190783    2.748589
  C      5.548062    2.487195    2.333590
  H      6.465567    1.222233    0.870999
  H      6.527339    2.887633    2.638687
  C      4.641595    2.476185    3.567312
  C      4.972425    3.413660    1.261341
  H      5.973311   -0.086325    3.606085
  H      7.484069    0.710991    3.127535
  H      6.920785   -0.736007    2.263951
  H      5.033207    1.835472    4.363769
  H      3.634020    2.126961    3.312474
  H      4.544516    3.489288    3.973089
  H      5.621412    3.453467    0.378643
  H      4.858462    4.433006    1.646968
  H      3.986103    3.061551    0.936007
  H      2.850761   -2.704300   -1.392274
  H      3.712484   -2.710634    0.162209
  H      4.528490   -2.156021   -1.308578

----------------------------
CARTESIAN COORDINATES (A.U.)
----------------------------
  NO LB      ZA    FRAG     MASS         X           Y           Z
   0 C     6.0000    0    12.011   -9.812109    0.164557   -1.073873
   1 C     6.0000    0    12.011  -12.515645   -0.734903   -1.247066
   2 C     6.0000    0    12.011  -14.290183    1.123778    0.094843
   3 H     1.0000    0     1.008  -12.714120   -2.624622   -0.423585
   4 H     1.0000    0     1.008  -13.097288   -0.840431   -3.240244
   5 C     6.0000    0    12.011   -9.424363    2.780539   -1.982472
   6 C     6.0000    0    12.011  -11.249898    4.693435   -0.896382
   7 C     6.0000    0    12.011  -13.996112    3.770271   -1.030638
   8 H     1.0000    0     1.008  -11.044440    6.509508   -1.867416
   9 H     1.0000    0     1.008  -10.752604    5.011785    1.098049
  10 H     1.0000    0     1.008  -14.613730    3.708326   -3.011453
  11 H     1.0000    0     1.008  -15.240141    5.090234   -0.029892
  12 O     8.0000    0    15.999  -13.839351    1.115060    2.773584
  13 H     1.0000    0     1.008  -16.251839    0.491645   -0.128097
  14 C     6.0000    0    12.011   -7.986508   -1.307094   -0.047993
  15 C     6.0000    0    12.011   -7.659057    3.404477   -3.680681
  16 H     1.0000    0     1.008   -6.386534    1.995950   -4.464397
  17 H     1.0000    0     1.008   -7.462338    5.341767   -4.337756
  18 C     6.0000    0    12.011   -5.394217   -0.575231    0.398664
  19 H     1.0000    0     1.008   -8.559607   -3.192671    0.547019
  20 C     6.0000    0    12.011   -3.509592   -2.086058    1.219351
  21 H     1.0000    0     1.008   -4.950727    1.401154    0.048617
  22 C     6.0000    0    12.011   -3.725349   -4.877573    1.746939
  23 C     6.0000    0    12.011   -1.742495   -6.405257    0.257031
  24 H     1.0000    0     1.008   -5.615288   -5.606782    1.339653
  25 H     1.0000    0     1.008   -3.378928   -5.175388    3.777934
  26 C     6.0000    0    12.011    0.945963   -5.370461    0.592089
  27 H     1.0000    0     1.008   -2.251510   -6.395331   -1.753131
  28 H     1.0000    0     1.008   -1.806883   -8.383638    0.872133
  29 C     6.0000    0    12.011    1.100528   -2.544284   -0.044615
  30 H     1.0000    0     1.008    2.244138   -6.478221   -0.578280
  31 H     1.0000    0     1.008    1.537622   -5.632093    2.568502
  32 C     6.0000    0    12.011   -0.874010   -1.148985    1.648097
  33 H     1.0000    0     1.008   -0.364717   -1.689186    3.601635
  34 C     6.0000    0    12.011   -0.212933    1.637508    1.331142
  35 H     1.0000    0     1.008  -12.028577    1.091496    3.029308
  36 C     6.0000    0    12.011    2.708462    1.628341    1.193617
  37 H     1.0000    0     1.008   -0.938192    2.795922    2.885189
  38 H     1.0000    0     1.008   -1.021564    2.390863   -0.420147
  39 C     6.0000    0    12.011    3.557710   -1.169949    0.803342
  40 H     1.0000    0     1.008    3.540608    2.414806    2.913742
  41 H     1.0000    0     1.008    3.388965    2.803701   -0.371770
  42 H     1.0000    0     1.008    4.056794   -1.983764    2.652695
  43 C     6.0000    0    12.011    5.885182   -1.358168   -0.918367
  44 C     6.0000    0    12.011    0.552296   -2.077146   -2.855382
  45 H     1.0000    0     1.008    0.899288   -0.107951   -3.386227
  46 H     1.0000    0     1.008   -1.418193   -2.500249   -3.319085
  47 H     1.0000    0     1.008    1.754991   -3.267695   -4.047010
  48 H     1.0000    0     1.008    5.381259   -0.488146   -2.740644
  49 C     6.0000    0    12.011    6.748305   -4.082726   -1.465596
  50 C     6.0000    0    12.011    8.147275    0.081499    0.073403
  51 C     6.0000    0    12.011    8.643553    0.715320    2.459673
  52 H     1.0000    0     1.008    9.568216    0.531043   -1.358978
  53 H     1.0000    0     1.008    7.288127    0.252484    3.943449
  54 C     6.0000    0    12.011   11.011952    2.029265    3.316530
  55 C     6.0000    0    12.011   12.465258    0.360528    5.194080
  56 C     6.0000    0    12.011   10.484319    4.700117    4.409845
  57 H     1.0000    0     1.008   12.218150    2.309686    1.645950
  58 H     1.0000    0     1.008   12.334883    5.456836    4.986397
  59 C     6.0000    0    12.011    8.771343    4.679312    6.741242
  60 C     6.0000    0    12.011    9.396521    6.450883    2.383588
  61 H     1.0000    0     1.008   11.287922   -0.163131    6.814514
  62 H     1.0000    0     1.008   14.142840    1.343577    5.910185
  63 H     1.0000    0     1.008   13.078388   -1.390851    4.278247
  64 H     1.0000    0     1.008    9.511383    3.468539    8.246327
  65 H     1.0000    0     1.008    6.867303    4.019373    6.259669
  66 H     1.0000    0     1.008    8.587891    6.593799    7.508050
  67 H     1.0000    0     1.008   10.622929    6.526106    0.715531
  68 H     1.0000    0     1.008    9.181162    8.377167    3.112319
  69 H     1.0000    0     1.008    7.532642    5.785492    1.768798
  70 H     1.0000    0     1.008    5.387157   -5.110386   -2.631016
  71 H     1.0000    0     1.008    7.015578   -5.122356    0.306530
  72 H     1.0000    0     1.008    8.557605   -4.074289   -2.472854

--------------------------------
INTERNAL COORDINATES (ANGSTROEM)
--------------------------------
 C      0   0   0     0.000000000000     0.00000000     0.00000000
 C      1   0   0     1.510532563776     0.00000000     0.00000000
 C      2   1   0     1.534102826227   110.46486722     0.00000000
 H      2   1   3     1.095863249325   110.74339709   237.85610084
 H      2   1   3     1.100154367779   109.82450204   118.72896131
 C      1   2   3     1.479735092152   113.97895944   306.28542428
 C      6   1   2     1.512682972415   114.45780363    49.58652888
 C      3   2   1     1.529780705135   110.14905140    56.79871993
 H      7   6   1     1.095184326366   110.21497342   188.82993786
 H      7   6   1     1.100689164980   108.30340603    72.12589078
 H      8   3   2     1.098462659951   108.29588440    64.27803414
 H      8   3   2     1.096227772512   109.52104047   181.27483148
 O      3   2   1     1.437471175851   110.65944535   292.77535985
 H      3   2   1     1.096992037002   109.50848864   177.25789565
 C      1   2   3     1.354425710988   121.24427717   123.17946202
 C      6   1   2     1.337627381240   123.09674146   231.49665448
 H     16   6   1     1.086744055241   121.32056415   359.06005916
 H     16   6   1     1.087525596024   120.95275268   178.45523298
 C     15   1   2     1.444866894794   126.06034309   185.22770218
 H     15   1   2     1.089370175881   116.35494565     3.05553528
 C     19  15   1     1.349965828999   126.53216723   186.00906624
 H     19  15   1     1.087753430344   115.76614371     6.68139458
 C     21  19  15     1.507687072807   125.72445526     2.30125387
 C     23  21  19     1.541473577023   111.56644253   125.11569779
 H     23  21  19     1.093426320061   112.24326095     1.55549128
 H     23  21  19     1.101609368260   107.95251653   243.75251996
 C     24  23  21     1.534693115667   112.63110284    51.03043859
 H     24  23  21     1.097318515723   109.03936916   288.95232208
 H     24  23  21     1.096876997334   109.12496474   172.95439466
 C     27  24  23     1.535211990380   111.81571312   306.14073392
 H     27  24  23     1.095045964344   108.97760713   182.62235188
 H     27  24  23     1.100474711913   109.18680683    66.11853709
 C     21  19  15     1.497508033549   122.72911803   180.48922802
 H     33  21  19     1.105905430023   106.43904463   126.57955976
 C     33  21  19     1.524730374423   121.14815253     3.89448974
 H     13   3   2     0.967808880548   107.59260202    42.63077827
 C     35  33  21     1.547655492239   103.37490484   195.46038451
 H     35  33  21     1.095152231305   112.22937806    73.65500732
 H     35  33  21     1.095849446259   110.80902073   313.93628575
 C     30  27  24     1.555958692315   115.88479138   166.60990385
 H     37  35  33     1.093468038108   111.21862496   251.67241873
 H     37  35  33     1.096686058038   111.20676387   133.40330415
 H     40  30  27     1.101335554544   105.89577224   322.09602884
 C     40  30  27     1.535237585104   117.96660610    83.13757989
 C     30  27  24     1.535451889833   111.06133598   294.78343795
 H     45  30  27     1.094761016014   111.72283635   187.50204973
 H     45  30  27     1.094368706006   111.36415187    67.55745831
 H     45  30  27     1.095263774493   110.81295178   307.47561615
 H     44  40  30     1.101345761198   107.35211820    61.72713921
 C     44  40  30     1.539865249469   114.22400051   302.80739504
 C     44  40  30     1.512865502718   113.34300583   179.10394650
 C     51  44  40     1.332676155932   127.68849547    24.18552008
 H     51  44  40     1.093859295712   114.39587397   200.16149139
 H     52  51  44     1.091310202587   119.71828317   357.37911752
 C     52  51  44     1.503270329632   124.50693728   176.48343271
 C     55  52  51     1.535706320669   110.28518569   241.35040895
 C     55  52  51     1.552500364343   112.55315836   115.65664453
 H     55  52  51     1.100432451475   107.67674546   358.80868196
 H     57  55  52     1.101098555072   105.92547938   179.37290936
 C     57  55  52     1.530971912781   113.59347329    61.22443447
 C     57  55  52     1.529514679185   110.96951083   296.31701287
 H     56  55  52     1.095555949816   111.53355434   303.55557719
 H     56  55  52     1.096491960539   110.86886820   183.09209093
 H     56  55  52     1.095027186332   110.40887654    63.01967957
 H     60  57  55     1.094630931479   112.25438609    55.72602489
 H     60  57  55     1.096406373866   111.04516309   294.52664319
 H     60  57  55     1.095653729176   110.13642473   175.67724490
 H     61  57  55     1.096323404747   111.32399445   305.37635975
 H     61  57  55     1.095792350934   110.84867784   184.97423848
 H     61  57  55     1.096656000329   110.60813102    65.16730983
 H     50  44  40     1.093108304300   112.11401007    68.03590861
 H     50  44  40     1.096392611608   110.31804734   306.94487472
 H     50  44  40     1.095819334678   110.29264914   187.99172412

---------------------------
INTERNAL COORDINATES (A.U.)
---------------------------
 C      0   0   0     0.000000000000     0.00000000     0.00000000
 C      1   0   0     2.854492861906     0.00000000     0.00000000
 C      2   1   0     2.899034202843   110.46486722     0.00000000
 H      2   1   3     2.070881421453   110.74339709   237.85610084
 H      2   1   3     2.078990460139   109.82450204   118.72896131
 C      1   2   3     2.796294074920   113.97895944   306.28542428
 C      6   1   2     2.858556545310   114.45780363    49.58652888
 C      3   2   1     2.890866577662   110.14905140    56.79871993
 H      7   6   1     2.069598442995   110.21497342   188.82993786
 H      7   6   1     2.080001080387   108.30340603    72.12589078
 H      8   3   2     2.075793595647   108.29588440    64.27803414
 H      8   3   2     2.071570270446   109.52104047   181.27483148
 O      3   2   1     2.716426847764   110.65944535   292.77535985
 H      3   2   1     2.073014521026   109.50848864   177.25789565
 C      1   2   3     2.559493662508   121.24427717   123.17946202
 C      6   1   2     2.527749419777   123.09674146   231.49665448
 H     16   6   1     2.053648642073   121.32056415   359.06005916
 H     16   6   1     2.055125540115   120.95275268   178.45523298
 C     15   1   2     2.730402731130   126.06034309   185.22770218
 H     15   1   2     2.058611290877   116.35494565     3.05553528
 C     19  15   1     2.551065706960   126.53216723   186.00906624
 H     19  15   1     2.055556084584   115.76614371     6.68139458
 C     21  19  15     2.849115663259   125.72445526     2.30125387
 C     23  21  19     2.912962903250   111.56644253   125.11569779
 H     23  21  19     2.066276292537   112.24326095     1.55549128
 H     23  21  19     2.081740012574   107.95251653   243.75251996
 C     24  23  21     2.900149688224   112.63110284    51.03043859
 H     24  23  21     2.073631476397   109.03936916   288.95232208
 H     24  23  21     2.072797127559   109.12496474   172.95439466
 C     27  24  23     2.901130219330   111.81571312   306.14073392
 H     27  24  23     2.069336976666   108.97760713   182.62235188
 H     27  24  23     2.079595822821   109.18680683    66.11853709
 C     21  19  15     2.829880066755   122.72911803   180.48922802
 H     33  21  19     2.089858392760   106.43904463   126.57955976
 C     33  21  19     2.881322835730   121.14815253     3.89448974
 H     13   3   2     1.828893734212   107.59260202    42.63077827
 C     35  33  21     2.924645029991   103.37490484   195.46038451
 H     35  33  21     2.069537792119   112.22937806    73.65500732
 H     35  33  21     2.070855337439   110.80902073   313.93628575
 C     30  27  24     2.940335804169   115.88479138   166.60990385
 H     37  35  33     2.066355128220   111.21862496   251.67241873
 H     37  35  33     2.072436304582   111.20676387   133.40330415
 H     40  30  27     2.081222579639   105.89577224   322.09602884
 C     40  30  27     2.901178586349   117.96660610    83.13757989
 C     30  27  24     2.901583563596   111.06133598   294.78343795
 H     45  30  27     2.068798502360   111.72283635   187.50204973
 H     45  30  27     2.068057143885   111.36415187    67.55745831
 H     45  30  27     2.069748578197   110.81295178   307.47561615
 H     44  40  30     2.081241867419   107.35211820    61.72713921
 C     44  40  30     2.909923604638   114.22400051   302.80739504
 C     44  40  30     2.858901477595   113.34300583   179.10394650
 C     51  44  40     2.518392959918   127.68849547    24.18552008
 H     51  44  40     2.067094497941   114.39587397   200.16149139
 H     52  51  44     2.062277410043   119.71828317   357.37911752
 C     52  51  44     2.840769228254   124.50693728   176.48343271
 C     55  52  51     2.902064368197   110.28518569   241.35040895
 C     55  52  51     2.933800511421   112.55315836   115.65664453
 H     55  52  51     2.079515962167   107.67674546   358.80868196
 H     57  55  52     2.080774715543   105.92547938   179.37290936
 C     57  55  52     2.893117633882   113.59347329    61.22443447
 C     57  55  52     2.890363861473   110.96951083   296.31701287
 H     56  55  52     2.070300709540   111.53355434   303.55557719
 H     56  55  52     2.072069513465   110.86886820   183.09209093
 H     56  55  52     2.069301491365   110.40887654    63.01967957
 H     60  57  55     2.068552678214   112.25438609    55.72602489
 H     60  57  55     2.071907778093   111.04516309   294.52664319
 H     60  57  55     2.070485485751   110.13642473   175.67724490
 H     61  57  55     2.071750989180   111.32399445   305.37635975
 H     61  57  55     2.070747442912   110.84867784   184.97423848
 H     61  57  55     2.072379503744   110.60813102    65.16730983
 H     50  44  40     2.065675329842   112.11401007    68.03590861
 H     50  44  40     2.071881771193   110.31804734   306.94487472
 H     50  44  40     2.070798434798   110.29264914   187.99172412

---------------------
BASIS SET INFORMATION
---------------------
There are 3 groups of distinct atoms

 Group   1 Type C   : 7s4p1d contracted to 3s2p1d pattern {511/31/1}
 Group   2 Type H   : 4s1p contracted to 2s1p pattern {31/1}
 Group   3 Type O   : 7s4p1d contracted to 3s2p1d pattern {511/31/1}

Atom   0C    basis set group =>   1
Atom   1C    basis set group =>   1
Atom   2C    basis set group =>   1
Atom   3H    basis set group =>   2
Atom   4H    basis set group =>   2
Atom   5C    basis set group =>   1
Atom   6C    basis set group =>   1
Atom   7C    basis set group =>   1
Atom   8H    basis set group =>   2
Atom   9H    basis set group =>   2
Atom  10H    basis set group =>   2
Atom  11H    basis set group =>   2
Atom  12O    basis set group =>   3
Atom  13H    basis set group =>   2
Atom  14C    basis set group =>   1
Atom  15C    basis set group =>   1
Atom  16H    basis set group =>   2
Atom  17H    basis set group =>   2
Atom  18C    basis set group =>   1
Atom  19H    basis set group =>   2
Atom  20C    basis set group =>   1
Atom  21H    basis set group =>   2
Atom  22C    basis set group =>   1
Atom  23C    basis set group =>   1
Atom  24H    basis set group =>   2
Atom  25H    basis set group =>   2
Atom  26C    basis set group =>   1
Atom  27H    basis set group =>   2
Atom  28H    basis set group =>   2
Atom  29C    basis set group =>   1
Atom  30H    basis set group =>   2
Atom  31H    basis set group =>   2
Atom  32C    basis set group =>   1
Atom  33H    basis set group =>   2
Atom  34C    basis set group =>   1
Atom  35H    basis set group =>   2
Atom  36C    basis set group =>   1
Atom  37H    basis set group =>   2
Atom  38H    basis set group =>   2
Atom  39C    basis set group =>   1
Atom  40H    basis set group =>   2
Atom  41H    basis set group =>   2
Atom  42H    basis set group =>   2
Atom  43C    basis set group =>   1
Atom  44C    basis set group =>   1
Atom  45H    basis set group =>   2
Atom  46H    basis set group =>   2
Atom  47H    basis set group =>   2
Atom  48H    basis set group =>   2
Atom  49C    basis set group =>   1
Atom  50C    basis set group =>   1
Atom  51C    basis set group =>   1
Atom  52H    basis set group =>   2
Atom  53H    basis set group =>   2
Atom  54C    basis set group =>   1
Atom  55C    basis set group =>   1
Atom  56C    basis set group =>   1
Atom  57H    basis set group =>   2
Atom  58H    basis set group =>   2
Atom  59C    basis set group =>   1
Atom  60C    basis set group =>   1
Atom  61H    basis set group =>   2
Atom  62H    basis set group =>   2
Atom  63H    basis set group =>   2
Atom  64H    basis set group =>   2
Atom  65H    basis set group =>   2
Atom  66H    basis set group =>   2
Atom  67H    basis set group =>   2
Atom  68H    basis set group =>   2
Atom  69H    basis set group =>   2
Atom  70H    basis set group =>   2
Atom  71H    basis set group =>   2
Atom  72H    basis set group =>   2

-------------------------
BASIS SET IN INPUT FORMAT
-------------------------

 # Basis set for element : H 
 NewGTO H 
 S 3 
   1      13.0107010000      0.0334854848
   2       1.9622572000      0.2347218709
   3       0.4445379600      0.8137702853
 S 1 
   1       0.1219496200      1.0000000000
 P 1 
   1       0.8000000000      1.0000000000
  end;

 # Basis set for element : C 
 NewGTO C 
 S 5 
   1    1238.4016938000      0.0055173650
   2     186.2900499200      0.0410888285
   3      42.2511763460      0.1822538213
   4      11.6765579320      0.4682845944
   5       3.5930506482      0.4457581734
 S 1 
   1       0.4024514736      1.0000000000
 S 1 
   1       0.1309018267      1.0000000000
 P 3 
   1       9.4680970621      0.0568883320
   2       2.0103545142      0.3129405934
   3       0.5477100471      0.7606501651
 P 1 
   1       0.1526861379      1.0000000000
 D 1 
   1       0.8000000000      1.0000000000
  end;

 # Basis set for element : O 
 NewGTO O 
 S 5 
   1    2266.1767785000     -0.0053893504
   2     340.8701019100     -0.0402347214
   3      77.3631351670     -0.1800818421
   4      21.4796449400     -0.4682885766
   5       6.6589433124     -0.4469261716
 S 1 
   1       0.8097597567      1.0000000000
 S 1 
   1       0.2553077223      1.0000000000
 P 3 
   1      17.7215043170      0.0626302488
   2       3.8635505440      0.3333113849
   3       1.0480920883      0.7414863830
 P 1 
   1       0.2764154441      1.0000000000
 D 1 
   1       1.2000000000      1.0000000000
  end;

---------------------------------
AUXILIARY/J BASIS SET INFORMATION
---------------------------------
There are 3 groups of distinct atoms

 Group   1 Type C   : 12s5p4d2f1g contracted to 6s4p3d1f1g pattern {711111/2111/211/2/1}
 Group   2 Type H   : 5s2p1d contracted to 3s1p1d pattern {311/2/1}
 Group   3 Type O   : 12s5p4d2f1g contracted to 6s4p3d1f1g pattern {711111/2111/211/2/1}

Atom   0C    basis set group =>   1
Atom   1C    basis set group =>   1
Atom   2C    basis set group =>   1
Atom   3H    basis set group =>   2
Atom   4H    basis set group =>   2
Atom   5C    basis set group =>   1
Atom   6C    basis set group =>   1
Atom   7C    basis set group =>   1
Atom   8H    basis set group =>   2
Atom   9H    basis set group =>   2
Atom  10H    basis set group =>   2
Atom  11H    basis set group =>   2
Atom  12O    basis set group =>   3
Atom  13H    basis set group =>   2
Atom  14C    basis set group =>   1
Atom  15C    basis set group =>   1
Atom  16H    basis set group =>   2
Atom  17H    basis set group =>   2
Atom  18C    basis set group =>   1
Atom  19H    basis set group =>   2
Atom  20C    basis set group =>   1
Atom  21H    basis set group =>   2
Atom  22C    basis set group =>   1
Atom  23C    basis set group =>   1
Atom  24H    basis set group =>   2
Atom  25H    basis set group =>   2
Atom  26C    basis set group =>   1
Atom  27H    basis set group =>   2
Atom  28H    basis set group =>   2
Atom  29C    basis set group =>   1
Atom  30H    basis set group =>   2
Atom  31H    basis set group =>   2
Atom  32C    basis set group =>   1
Atom  33H    basis set group =>   2
Atom  34C    basis set group =>   1
Atom  35H    basis set group =>   2
Atom  36C    basis set group =>   1
Atom  37H    basis set group =>   2
Atom  38H    basis set group =>   2
Atom  39C    basis set group =>   1
Atom  40H    basis set group =>   2
Atom  41H    basis set group =>   2
Atom  42H    basis set group =>   2
Atom  43C    basis set group =>   1
Atom  44C    basis set group =>   1
Atom  45H    basis set group =>   2
Atom  46H    basis set group =>   2
Atom  47H    basis set group =>   2
Atom  48H    basis set group =>   2
Atom  49C    basis set group =>   1
Atom  50C    basis set group =>   1
Atom  51C    basis set group =>   1
Atom  52H    basis set group =>   2
Atom  53H    basis set group =>   2
Atom  54C    basis set group =>   1
Atom  55C    basis set group =>   1
Atom  56C    basis set group =>   1
Atom  57H    basis set group =>   2
Atom  58H    basis set group =>   2
Atom  59C    basis set group =>   1
Atom  60C    basis set group =>   1
Atom  61H    basis set group =>   2
Atom  62H    basis set group =>   2
Atom  63H    basis set group =>   2
Atom  64H    basis set group =>   2
Atom  65H    basis set group =>   2
Atom  66H    basis set group =>   2
Atom  67H    basis set group =>   2
Atom  68H    basis set group =>   2
Atom  69H    basis set group =>   2
Atom  70H    basis set group =>   2
Atom  71H    basis set group =>   2
Atom  72H    basis set group =>   2

-------------------------------------
AUXILIARY/J BASIS SET IN INPUT FORMAT
-------------------------------------

 # Auxiliary/J basis set for element : H 
 NewAuxJGTO H 
 S 3 
   1      15.6752927000      0.1007184237
   2       3.6063578000      0.3404257499
   3       1.2080016000      0.6491996172
 S 1 
   1       0.4726794000      1.0000000000
 S 1 
   1       0.2018100000      1.0000000000
 P 2 
   1       2.0281365000      0.5596620919
   2       0.5358730000      0.5596620919
 D 1 
   1       2.2165124000      1.0000000000
  end;

 # Auxiliary/J basis set for element : C 
 NewAuxJGTO C 
 S 7 
   1    1861.0916331000      0.0134602335
   2     642.9939764000      0.0299160374
   3     235.1105725000      0.1008649584
   4      90.7028894000      0.2370970548
   5      36.7794552000      0.3924037254
   6      15.6046273000      0.3195862154
   7       6.8907294000      0.0530104441
 S 1 
   1       3.1478850000     -1.0000000000
 S 1 
   1       1.4777287000      1.0000000000
 S 1 
   1       0.7076466000      1.0000000000
 S 1 
   1       0.3430122000      1.0000000000
 S 1 
   1       0.1669453000      1.0000000000
 P 2 
   1      13.5472892000     -0.6769313712
   2       5.4669419000     -0.3779500978
 P 1 
   1       2.1751721000      1.0000000000
 P 1 
   1       0.8582194000      1.0000000000
 P 1 
   1       0.3376720000      1.0000000000
 D 2 
   1       5.9287253000     -0.3533329857
   2       1.9809209000     -0.7456525731
 D 1 
   1       0.8055417000     -1.0000000000
 D 1 
   1       0.3531244000     -1.0000000000
 F 2 
   1       1.6755626000      0.6311076882
   2       0.5997536000      0.4968166032
 G 1 
   1       1.0024600000     -1.0000000000
  end;

 # Auxiliary/J basis set for element : O 
 NewAuxJGTO O 
 S 7 
   1    2876.8216605000      0.0168151159
   2    1004.7443032000      0.0340137548
   3     369.7579954000      0.1194951309
   4     142.9442404000      0.2664627624
   5      57.8366425000      0.4202764046
   6      24.3864983000      0.2765077335
   7      10.6622662000      0.0057008815
 S 1 
   1       4.8070437000     -1.0000000000
 S 1 
   1       2.2210770000      1.0000000000
 S 1 
   1       1.0447795000      1.0000000000
 S 1 
   1       0.4968425000      1.0000000000
 S 1 
   1       0.2371384000      1.0000000000
 P 2 
   1      64.2613382000     -0.2731534179
   2      16.3006076000     -0.8168011598
 P 1 
   1       4.3550542000      1.0000000000
 P 1 
   1       1.2019554000      1.0000000000
 P 1 
   1       0.3354196000      1.0000000000
 D 2 
   1       9.2146611000     -0.4661230638
   2       2.8435251000     -0.6600908911
 D 1 
   1       0.9955759000     -1.0000000000
 D 1 
   1       0.3649441000     -1.0000000000
 F 2 
   1       2.6420115000      0.5931563945
   2       0.7345613000      0.5931563945
 G 1 
   1       1.3931000000     -1.0000000000
  end;


Checking for AutoStart:
The File: inpS.gbw exists
Trying to determine its content:
     ... Fine, the file contains calculation information
     ... Fine, the calculation information was read
     ... Fine, the file contains a basis set
     ... Fine, the basis set was read
     ... Fine, the file contains a geometry
     ... Fine, the geometry was read
     ... Fine, the file contains a set of orbitals
     ... Fine, the orbitals can be read
     => possible old guess file was deleted
     => GBW file was renamed to GES file
     => GES file is set as startup file
     => Guess is set to MORead
     ... now leaving AutoStart



           ************************************************************
           *        Program running with 4 parallel MPI-processes     *
           *              working on a common directory               *
           ************************************************************
------------------------------------------------------------------------------
                             ORCA STARTUP CALCULATIONS
                           -- RI-GTO INTEGRALS CHOSEN --
------------------------------------------------------------------------------
------------------------------------------------------------------------------
                   ___                                                        
                  /   \      - P O W E R E D   B Y -                         
                 /     \                                                     
                 |  |  |   _    _      __       _____    __    __             
                 |  |  |  | |  | |    /  \     |  _  \  |  |  /  |          
                  \  \/   | |  | |   /    \    | | | |  |  | /  /          
                 / \  \   | |__| |  /  /\  \   | |_| |  |  |/  /          
                |  |  |   |  __  | /  /__\  \  |    /   |      \           
                |  |  |   | |  | | |   __   |  |    \   |  |\   \          
                \     /   | |  | | |  |  |  |  | |\  \  |  | \   \       
                 \___/    |_|  |_| |__|  |__|  |_| \__\ |__|  \__/        
                                                                              
                      - O R C A' S   B I G   F R I E N D -                    
                                      &                                       
                       - I N T E G R A L  F E E D E R -                       
                                                                              
 v1 FN, 2020, v2 2021, v3 2022-2024                                           
------------------------------------------------------------------------------


----------------------
SHARK INTEGRAL PACKAGE
----------------------

Number of atoms                             ...     73
Number of basis functions                   ...    626
Number of shells                            ...    306
Maximum angular momentum                    ...      2
Integral batch strategy                     ... SHARK/LIBINT Hybrid
RI-J (if used) integral strategy            ... SPLIT-RIJ (Revised 2003 algorithm where possible)
Printlevel                                  ...      1
Contraction scheme used                     ... SEGMENTED contraction
Prescreening option                         ... SCHWARTZ
   Thresh                                   ... 3.000e-11
   Tcut                                     ... 1.000e-12
   Tpresel                                  ... 1.000e-12 
Coulomb Range Separation                    ... NOT USED
Exchange Range Separation                   ... Long Range
   Mu parameter                             ... 3.000e-01
   Scaling (regular/separated)              ... 1.670e-01 8.330e-01
Multipole approximations                    ... NOT USED
Finite Nucleus Model                        ... NOT USED
CABS basis                                  ... NOT available
Auxiliary Coulomb fitting basis             ... AVAILABLE
   # of basis functions in Aux-J            ...   1905
   # of shells in Aux-J                     ...    655
   Maximum angular momentum in Aux-J        ...      4
Auxiliary J/K fitting basis                 ... NOT available
Auxiliary Correlation fitting basis         ... NOT available
Auxiliary 'external' fitting basis          ... NOT available

Checking pre-screening integrals            ... done (  0.0 sec) Dimension = 306
Check shell pair data                       ... done (  0.0 sec)
Shell pair information
Shell pair cut-off parameter TPreSel        ...   1.0e-12
Total number of shell pairs                 ...     46971
Shell pairs after pre-screening             ...     28256
Total number of primitive shell pairs       ...    162105
Primitive shell pairs kept                  ...     62189
          la=0 lb=0:   9922 shell pairs
          la=1 lb=0:  10827 shell pairs
          la=1 lb=1:   2994 shell pairs
          la=2 lb=0:   2816 shell pairs
          la=2 lb=1:   1498 shell pairs
          la=2 lb=2:    199 shell pairs

Calculating one electron integrals          ... done (  0.1 sec)
Calculating RI/J V-Matrix + Cholesky decomp.... done (  0.2 sec)
Calculating Nuclear repulsion               ... done (  0.0 sec) ENN=   2819.000367923171 Eh

Diagonalization of the overlap matrix:
Smallest eigenvalue                        ... 4.360e-04
Time for diagonalization                   ...    0.042 sec
Threshold for overlap eigenvalues          ... 1.000e-07
Number of eigenvalues below threshold      ... 0
Time for construction of square roots      ...    0.025 sec
Total time needed                          ...    0.070 sec

-------------------
DFT GRID GENERATION
-------------------

General Integration Accuracy     IntAcc      ... 4.388
Radial Grid Type                 RadialGrid  ... OptM3 with GC (2021)
Angular Grid (max. ang.)         AngularGrid ... 4 (Lebedev-302)
Angular grid pruning method      GridPruning ... 4 (adaptive)
Weight generation scheme         WeightScheme... mBecke (2022)
Basis function cutoff            BFCut       ... 1.0000e-11
Integration weight cutoff        WCut        ... 1.0000e-14
Partially contracted basis set               ... off
Rotationally invariant grid construction     ... off
Angular grids for H and He will be reduced by one unit

Total number of grid points                  ...   309688
Total number of batches                      ...     4879
Average number of points per batch           ...       63
Average number of grid points per atom       ...     4242

--------------------
COSX GRID GENERATION
--------------------

GRIDX 1
-------
General Integration Accuracy     IntAcc      ... 3.816
Radial Grid Type                 RadialGrid  ... OptM3 with GC (2021)
Angular Grid (max. ang.)         AngularGrid ... 1 (Lebedev-50)
Angular grid pruning method      GridPruning ... 4 (adaptive)
Weight generation scheme         WeightScheme... mBecke (2022)
Basis function cutoff            BFCut       ... 1.0000e-11
Integration weight cutoff        WCut        ... 1.0000e-14
Partially contracted basis set               ... on
Rotationally invariant grid construction     ... off
Angular grids for H and He will be reduced by one unit

Total number of grid points                  ...    39381
Total number of batches                      ...      350
Average number of points per batch           ...      112
Average number of grid points per atom       ...      539
UseSFitting                                  ... on

GRIDX 2
-------
General Integration Accuracy     IntAcc      ... 4.020
Radial Grid Type                 RadialGrid  ... OptM3 with GC (2021)
Angular Grid (max. ang.)         AngularGrid ... 2 (Lebedev-110)
Angular grid pruning method      GridPruning ... 4 (adaptive)
Weight generation scheme         WeightScheme... mBecke (2022)
Basis function cutoff            BFCut       ... 1.0000e-11
Integration weight cutoff        WCut        ... 1.0000e-14
Partially contracted basis set               ... on
Rotationally invariant grid construction     ... off
Angular grids for H and He will be reduced by one unit

Total number of grid points                  ...    81319
Total number of batches                      ...      672
Average number of points per batch           ...      121
Average number of grid points per atom       ...     1114
UseSFitting                                  ... on

GRIDX 3
-------
General Integration Accuracy     IntAcc      ... 4.338
Radial Grid Type                 RadialGrid  ... OptM3 with GC (2021)
Angular Grid (max. ang.)         AngularGrid ... 3 (Lebedev-194)
Angular grid pruning method      GridPruning ... 4 (adaptive)
Weight generation scheme         WeightScheme... mBecke (2022)
Basis function cutoff            BFCut       ... 1.0000e-11
Integration weight cutoff        WCut        ... 1.0000e-14
Partially contracted basis set               ... on
Rotationally invariant grid construction     ... off
Angular grids for H and He will be reduced by one unit

Total number of grid points                  ...   176017
Total number of batches                      ...     1419
Average number of points per batch           ...      124
Average number of grid points per atom       ...     2411
UseSFitting                                  ... on
Initializing property integral containers    ... done (  0.0 sec)

SHARK setup successfully completed in   4.4 seconds

Maximum memory used throughout the entire STARTUP-calculation: 96.6 MB


           ************************************************************
           *        Program running with 4 parallel MPI-processes     *
           *              working on a common directory               *
           ************************************************************
-------------------------------------------------------------------------------
                                 ORCA GUESS
                   Start orbitals & Density for SCF / CASSCF
-------------------------------------------------------------------------------

------------
SCF SETTINGS
------------
Hamiltonian:
 Density Functional     Method          .... DFT(GTOs)
 Exchange Functional    Exchange        .... WB97X-V
 Correlation Functional Correlation     .... WB97X-V
 Gradients option       PostSCFGGA      .... off
 Hybrid DFT is turned on
   Fraction HF Exchange ScalHFX         ....  0.167000
   Scaling of DF-GGA-X  ScalDFX         ....  0.000000
   Scaling of DF-GGA-C  ScalDFC         ....  1.000000
   Scaling of DF-LDA-C  ScalLDAC        ....  1.000000
   Perturbative correction              ....  0.000000
 Long-range corrected/Screened/Range-Separated Hybrid DFT is turned on
   Amount of maximum screened exact exchange              ....  0.833000
   Range separation parameter mu (erf(mu*r12)/r12)        ....  0.300000
 RI-approximation to the Coulomb term is turned on
   Number of AuxJ basis functions       .... 1905
   RIJ-COSX (HFX calculated with COS-X)).... on


General Settings:
 Integral files         IntName         .... inpS
 Hartree-Fock type      HFTyp           .... RHF
 Total Charge           Charge          ....    0
 Multiplicity           Mult            ....    1
 Number of Electrons    NEL             ....  220
 Basis Dimension        Dim             ....  626
 Nuclear Repulsion      ENuc            ....   2819.0003679232 Eh

Convergence Acceleration:
 AO-DIIS                CNVDIIS         .... on
   Start iteration      DIISMaxIt       ....    12
   Startup error        DIISStart       ....  0.200000
   # of expansion vecs  DIISMaxEq       ....     5
   Bias factor          DIISBfac        ....   1.050
   Max. coefficient     DIISMaxC        ....  10.000
 MO-DIIS                CNVKDIIS        .... off
 Trust-Rad. Augm. Hess. CNVTRAH         .... auto
   Auto Start mean grad. ratio tolernc. ....  1.125000
   Auto Start start iteration           ....     1
   Auto Start num. interpolation iter.  ....    10
   Max. Number of Micro iterations      ....    24
   Max. Number of Macro iterations      .... Maxiter - #DIIS iter
   Number of Davidson start vectors     ....     2
   Converg. threshold    (grad. norm)   ....   1.000e-04
   Grad. Scal. Fac. for Micro threshold ....   0.100
   Minimum threshold for Micro iter.    ....   1.000e-02
   NR start threshold (gradient norm)   ....   1.000e-04
   Initial trust radius                 ....   0.400
   Minimum AH scaling param. (alpha)    ....   1.000
   Maximum AH scaling param. (alpha)    .... 1000.000
   Quad. conv. algorithm                .... NR
   White noise on init. David. guess    .... on
   Maximum white noise                  ....   0.010
   Pseudo random numbers                .... off
   Inactive MOs                         .... canonical
   Orbital update algorithm             .... Taylor
   Preconditioner                       .... Diag
   Full preconditioner red. dimension   ....   250
 SOSCF                  CNVSOSCF        .... off
 Level Shifting         CNVShift        .... on
   Level shift para.    LevelShift      ....    0.2500
   Turn off err/grad.   ShiftErr        ....    0.0010
 Zerner damping         CNVZerner       .... off
 Static damping         CNVDamp         .... on
   Fraction old density DampFac         ....    0.7000
   Max. Damping (<1)    DampMax         ....    0.9800
   Min. Damping (>=0)   DampMin         ....    0.0000
   Turn off err/grad.   DampErr         ....    0.1000

SCF Procedure:
 Maximum # iterations   MaxIter         ....   125
 SCF integral mode      SCFMode         .... Direct
   Integral package                     .... SHARK and LIBINT hybrid scheme
 Reset frequency        DirectResetFreq ....    20
 Integral Threshold     Thresh          ....  3.000e-11 Eh
 Primitive CutOff       TCut            ....  1.000e-12 Eh

Convergence Tolerance:
 Convergence Check Mode ConvCheckMode   .... Total+1el-Energy
 Convergence forced     ConvForced      .... 0
 Energy Change          TolE            ....  1.000e-07 Eh
 1-El. energy change                    ....  1.000e-04 Eh
 DIIS Error             TolErr          ....  1.000e-07

---------------------
INITIAL GUESS: MOREAD
---------------------
Guess MOs are being read from file: inpS.ges
Input Geometry matches current geometry (good)
Input basis set matches current basis set (good)
Occupation numbers will be reassigned to an Aufbau configuration
MOs were renormalized
MOs were reorthogonalized (Cholesky)
                      ------------------
                      INITIAL GUESS DONE (   0.2 sec)
                      ------------------
             **** ENERGY FILE WAS UPDATED (inpS.en.tmp) ****
Finished Guess after   0.3 sec
Maximum memory used throughout the entire GUESS-calculation: 53.2 MB


           ************************************************************
           *        Program running with 4 parallel MPI-processes     *
           *              working on a common directory               *
           ************************************************************

-------------------------------------------------------------------------------------------
                                      ORCA LEAN-SCF
                              memory conserving SCF solver
-------------------------------------------------------------------------------------------

--------------------
CPCM SOLVATION MODEL
--------------------
CPCM parameters:
  Epsilon                                         ...       4.8030
  Refrac                                          ...       1.4459
  Rsolv                                           ...       1.3000
  Surface type                                    ... GAUSSIAN VDW
  Discretization scheme                           ... Constant charge density
    Threshold for H atoms                         ...       5.0000 (charges/Ang^2)
    Threshold for non-H atoms                     ...       5.0000 (charges/Ang^2)
  Epsilon function type                           ...         CPCM
Solvent:                                          ... CHLOROFORM
Radii:
  Scheme                                          ... Element-dependent radii
  Radius for C  used is    3.8550 Bohr (=   2.0400 Ang.)
  Radius for H  used is    2.4944 Bohr (=   1.3200 Ang.)
  Radius for O  used is    3.4469 Bohr (=   1.8240 Ang.)
Calculating surface                               ...        done! (  0.0s)
Cavity surface points                             ...         5368
Cavity Volume                                     ...    3603.0390
Cavity Surface-area                               ...    1787.3642
Calculating surface distance matrix               ...        done! (  0.3s)
Performing Cholesky decomposition & store         ...        done! (  0.9s)
Overall time for CPCM initialization              ...                 1.2s

----------------------------------------D-I-I-S--------------------------------------------
Iteration    Energy (Eh)           Delta-E    RMSDP     MaxDP     DIISErr   Damp  Time(sec)
-------------------------------------------------------------------------------------------
               ***  Starting incremental Fock matrix formation  ***
    1    -1168.3616178763900280     0.00e+00  3.02e-08  1.94e-06  4.39e-06  0.700  24.1

  HOMO= 109 E= -7.960 eV LUMO=  8.069 eV gap=  16.028 eV
    2    -1168.3616178569450312     1.94e-08  2.65e-08  1.38e-06  2.27e-06  0.700   4.8
                 **** Energy Check signals convergence ****

  HOMO= 109 E= -7.960 eV LUMO=  8.069 eV gap=  16.028 eV

               *****************************************************
               *                     SUCCESS                       *
               *           SCF CONVERGED AFTER   2 CYCLES          *
               *****************************************************

Recomputing exchange energy using gridx3       ... done (   42.041 sec)
Old exchange energy                            :    -56.782652185 Eh
New exchange energy                            :    -56.782545613 Eh
Exchange energy change after final integration :      0.000106571 Eh
Total energy after final integration           :  -1168.361511286 Eh
             **** ENERGY FILE WAS UPDATED (inpS.en.tmp) ****

----------------
TOTAL SCF ENERGY
----------------

Total Energy       :      -1168.36151128559368 Eh          -31792.73303 eV

Components:
Nuclear Repulsion  :       2819.00036792317087 Eh           76708.89982 eV
Electronic Energy  :      -3987.35272337328570 Eh         -108501.38371 eV
One Electron Energy:      -7183.01175216132651 Eh         -195459.68675 eV
Two Electron Energy:       3195.65902878804081 Eh           86958.30305 eV
CPCM Dielectric    :         -0.00926240683036 Eh              -0.25204 eV

Virial components:
Potential Energy   :      -2321.64820314711415 Eh          -63175.25938 eV
Kinetic Energy     :       1153.28669186152047 Eh           31382.52634 eV
Virial Ratio       :          2.01307118128602

DFT components:
N(Alpha)           :      110.000310589744 electrons
N(Beta)            :      110.000310589744 electrons
N(Total)           :      220.000621179487 electrons
E(X)               :     -111.767852768101 Eh       
E(C)               :       -8.952408334454 Eh       
E(XC)              :     -120.720261102555 Eh       

CPCM Solvation Model Properties:
Surface-charge          :         -0.04147983174585
Corrected charge        :         -0.00000000000000
Outlying charge corr.   :          0.00006101733946 Eh               0.00166 eV
Free-energy (cav+disp)  :  This term is not implemented in the current solvation scheme

---------------
SCF CONVERGENCE
---------------

  Last Energy change         ...   -1.9445e-08  Tolerance :   1.0000e-07
  Last MAX-Density change    ...    1.3811e-06  Tolerance :   1.0000e-05
  Last RMS-Density change    ...    2.6463e-08  Tolerance :   1.0000e-06
  Last DIIS Error            ...    2.2697e-06  Tolerance :   1.0000e-07


----------------
ORBITAL ENERGIES
----------------

  NO   OCC          E(Eh)            E(eV) 
   0   2.0000     -19.212393      -522.7958 
   1   2.0000     -10.330301      -281.1018 
   2   2.0000     -10.294210      -280.1197 
   3   2.0000     -10.292035      -280.0605 
   4   2.0000     -10.287376      -279.9337 
   5   2.0000     -10.286750      -279.9167 
   6   2.0000     -10.285406      -279.8801 
   7   2.0000     -10.284079      -279.8440 
   8   2.0000     -10.283225      -279.8208 
   9   2.0000     -10.282938      -279.8130 
  10   2.0000     -10.280785      -279.7544 
  11   2.0000     -10.280558      -279.7482 
  12   2.0000     -10.279306      -279.7141 
  13   2.0000     -10.278054      -279.6801 
  14   2.0000     -10.277481      -279.6645 
  15   2.0000     -10.277351      -279.6609 
  16   2.0000     -10.276997      -279.6513 
  17   2.0000     -10.276991      -279.6511 
  18   2.0000     -10.274624      -279.5867 
  19   2.0000     -10.272956      -279.5413 
  20   2.0000     -10.272054      -279.5168 
  21   2.0000     -10.271773      -279.5092 
  22   2.0000     -10.271058      -279.4897 
  23   2.0000     -10.270534      -279.4754 
  24   2.0000     -10.270257      -279.4679 
  25   2.0000     -10.270107      -279.4638 
  26   2.0000     -10.268128      -279.4100 
  27   2.0000     -10.267126      -279.3827 
  28   2.0000     -10.266315      -279.3606 
  29   2.0000      -1.130864       -30.7724 
  30   2.0000      -0.998715       -27.1764 
  31   2.0000      -0.977253       -26.5924 
  32   2.0000      -0.957395       -26.0520 
  33   2.0000      -0.942430       -25.6448 
  34   2.0000      -0.917416       -24.9642 
  35   2.0000      -0.910856       -24.7856 
  36   2.0000      -0.889844       -24.2139 
  37   2.0000      -0.888058       -24.1653 
  38   2.0000      -0.872313       -23.7368 
  39   2.0000      -0.853703       -23.2304 
  40   2.0000      -0.834365       -22.7042 
  41   2.0000      -0.831045       -22.6139 
  42   2.0000      -0.809467       -22.0267 
  43   2.0000      -0.800004       -21.7692 
  44   2.0000      -0.797363       -21.6974 
  45   2.0000      -0.791590       -21.5403 
  46   2.0000      -0.760420       -20.6921 
  47   2.0000      -0.751256       -20.4427 
  48   2.0000      -0.725916       -19.7532 
  49   2.0000      -0.713136       -19.4054 
  50   2.0000      -0.705415       -19.1953 
  51   2.0000      -0.700636       -19.0653 
  52   2.0000      -0.689074       -18.7507 
  53   2.0000      -0.673678       -18.3317 
  54   2.0000      -0.657610       -17.8945 
  55   2.0000      -0.632520       -17.2117 
  56   2.0000      -0.630798       -17.1649 
  57   2.0000      -0.619778       -16.8650 
  58   2.0000      -0.607455       -16.5297 
  59   2.0000      -0.600412       -16.3380 
  60   2.0000      -0.591453       -16.0943 
  61   2.0000      -0.580162       -15.7870 
  62   2.0000      -0.572836       -15.5877 
  63   2.0000      -0.569105       -15.4861 
  64   2.0000      -0.561764       -15.2864 
  65   2.0000      -0.557454       -15.1691 
  66   2.0000      -0.555493       -15.1157 
  67   2.0000      -0.551814       -15.0156 
  68   2.0000      -0.549759       -14.9597 
  69   2.0000      -0.539886       -14.6910 
  70   2.0000      -0.537878       -14.6364 
  71   2.0000      -0.532992       -14.5034 
  72   2.0000      -0.526448       -14.3254 
  73   2.0000      -0.519747       -14.1430 
  74   2.0000      -0.518056       -14.0970 
  75   2.0000      -0.514722       -14.0063 
  76   2.0000      -0.508355       -13.8330 
  77   2.0000      -0.502815       -13.6823 
  78   2.0000      -0.498537       -13.5659 
  79   2.0000      -0.491852       -13.3840 
  80   2.0000      -0.489378       -13.3167 
  81   2.0000      -0.486744       -13.2450 
  82   2.0000      -0.483612       -13.1597 
  83   2.0000      -0.478984       -13.0338 
  84   2.0000      -0.474957       -12.9242 
  85   2.0000      -0.467484       -12.7209 
  86   2.0000      -0.462551       -12.5867 
  87   2.0000      -0.461574       -12.5601 
  88   2.0000      -0.458734       -12.4828 
  89   2.0000      -0.451646       -12.2899 
  90   2.0000      -0.449176       -12.2227 
  91   2.0000      -0.443697       -12.0736 
  92   2.0000      -0.442445       -12.0395 
  93   2.0000      -0.434383       -11.8202 
  94   2.0000      -0.427788       -11.6407 
  95   2.0000      -0.423816       -11.5326 
  96   2.0000      -0.421851       -11.4791 
  97   2.0000      -0.418976       -11.4009 
  98   2.0000      -0.416801       -11.3417 
  99   2.0000      -0.414237       -11.2720 
 100   2.0000      -0.410761       -11.1774 
 101   2.0000      -0.406296       -11.0559 
 102   2.0000      -0.405372       -11.0307 
 103   2.0000      -0.400551       -10.8995 
 104   2.0000      -0.392001       -10.6669 
 105   2.0000      -0.380879       -10.3642 
 106   2.0000      -0.372617       -10.1394 
 107   2.0000      -0.355562        -9.6753 
 108   2.0000      -0.337324        -9.1790 
 109   2.0000      -0.292507        -7.9595 
 110   0.0000       0.046521         1.2659 
 111   0.0000       0.099475         2.7069 
 112   0.0000       0.106538         2.8991 
 113   0.0000       0.133764         3.6399 
 114   0.0000       0.141198         3.8422 
 115   0.0000       0.143827         3.9137 
 116   0.0000       0.148136         4.0310 
 117   0.0000       0.154843         4.2135 
 118   0.0000       0.162234         4.4146 
 119   0.0000       0.164561         4.4779 
 120   0.0000       0.168944         4.5972 
*Only the first 10 virtual orbitals were printed.

                    ********************************
                    * MULLIKEN POPULATION ANALYSIS *
                    ********************************

-----------------------
MULLIKEN ATOMIC CHARGES
-----------------------
   0 C :   -0.173054
   1 C :    0.142939
   2 C :    0.067871
   3 H :    0.016955
   4 H :    0.030782
   5 C :   -0.170852
   6 C :    0.096383
   7 C :    0.024128
   8 H :    0.013308
   9 H :    0.027426
  10 H :    0.019668
  11 H :    0.022551
  12 O :   -0.359398
  13 H :    0.018019
  14 C :   -0.008995
  15 C :   -0.047112
  16 H :    0.035605
  17 H :    0.029446
  18 C :   -0.063011
  19 H :   -0.001865
  20 C :   -0.114773
  21 H :    0.004265
  22 C :    0.115488
  23 C :   -0.002767
  24 H :    0.013894
  25 H :    0.017054
  26 C :    0.107665
  27 H :    0.013115
  28 H :    0.015531
  29 C :   -0.419788
  30 H :    0.008837
  31 H :   -0.002008
  32 C :   -0.040438
  33 H :    0.009891
  34 C :    0.119662
  35 H :    0.179279
  36 C :    0.050282
  37 H :    0.006067
  38 H :    0.014560
  39 C :   -0.034732
  40 H :    0.018750
  41 H :    0.007674
  42 H :   -0.001371
  43 C :   -0.014369
  44 C :    0.092021
  45 H :    0.020718
  46 H :    0.025366
  47 H :    0.017175
  48 H :    0.008112
  49 C :    0.054385
  50 C :   -0.077541
  51 C :   -0.060701
  52 H :    0.005524
  53 H :    0.018678
  54 C :   -0.072749
  55 C :    0.042650
  56 C :   -0.147190
  57 H :    0.004637
  58 H :    0.010325
  59 C :    0.009960
  60 C :    0.035525
  61 H :    0.020188
  62 H :    0.018562
  63 H :    0.018764
  64 H :    0.019476
  65 H :    0.020510
  66 H :    0.019226
  67 H :    0.013310
  68 H :    0.017385
  69 H :    0.016176
  70 H :    0.030463
  71 H :    0.012976
  72 H :    0.013507
Sum of atomic charges:   -0.0000000

--------------------------------
MULLIKEN REDUCED ORBITAL CHARGES
--------------------------------
  0 C s       :     3.102106  s :     3.102106
      pz      :     1.015268  p :     3.027938
      px      :     1.002264
      py      :     1.010406
      dz2     :     0.005902  d :     0.043010
      dxz     :     0.006878
      dyz     :     0.005751
      dx2y2   :     0.013132
      dxy     :     0.011346

  1 C s       :     2.939094  s :     2.939094
      pz      :     0.989551  p :     2.883583
      px      :     0.930134
      py      :     0.963898
      dz2     :     0.007693  d :     0.034384
      dxz     :     0.006107
      dyz     :     0.004499
      dx2y2   :     0.009347
      dxy     :     0.006739

  2 C s       :     3.085619  s :     3.085619
      pz      :     0.735704  p :     2.775880
      px      :     1.044400
      py      :     0.995776
      dz2     :     0.023272  d :     0.070631
      dxz     :     0.011094
      dyz     :     0.017988
      dx2y2   :     0.010257
      dxy     :     0.008019

  3 H s       :     0.960386  s :     0.960386
      pz      :     0.006030  p :     0.022659
      px      :     0.003608
      py      :     0.013021

  4 H s       :     0.945903  s :     0.945903
      pz      :     0.014334  p :     0.023315
      px      :     0.004638
      py      :     0.004343

  5 C s       :     3.109096  s :     3.109096
      pz      :     0.972903  p :     3.016966
      px      :     0.988809
      py      :     1.055254
      dz2     :     0.009695  d :     0.044789
      dxz     :     0.005536
      dyz     :     0.009116
      dx2y2   :     0.010591
      dxy     :     0.009852

  6 C s       :     2.954658  s :     2.954658
      pz      :     1.001637  p :     2.913499
      px      :     0.943707
      py      :     0.968154
      dz2     :     0.008138  d :     0.035461
      dxz     :     0.005654
      dyz     :     0.005464
      dx2y2   :     0.008307
      dxy     :     0.007896

  7 C s       :     3.002609  s :     3.002609
      pz      :     0.983039  p :     2.938468
      px      :     0.982724
      py      :     0.972705
      dz2     :     0.007487  d :     0.034796
      dxz     :     0.005835
      dyz     :     0.005163
      dx2y2   :     0.007854
      dxy     :     0.008456

  8 H s       :     0.963854  s :     0.963854
      pz      :     0.006821  p :     0.022839
      px      :     0.003681
      py      :     0.012337

  9 H s       :     0.949170  s :     0.949170
      pz      :     0.014230  p :     0.023404
      px      :     0.004533
      py      :     0.004641

 10 H s       :     0.957501  s :     0.957501
      pz      :     0.014135  p :     0.022831
      px      :     0.004697
      py      :     0.003999

 11 H s       :     0.954821  s :     0.954821
      pz      :     0.007012  p :     0.022629
      px      :     0.007623
      py      :     0.007994

 12 O s       :     3.713631  s :     3.713631
      pz      :     1.394957  p :     4.633631
      px      :     1.339382
      py      :     1.899292
      dz2     :     0.005504  d :     0.012136
      dxz     :     0.001383
      dyz     :     0.001533
      dx2y2   :     0.003170
      dxy     :     0.000547

 13 H s       :     0.961631  s :     0.961631
      pz      :     0.001720  p :     0.020351
      px      :     0.013908
      py      :     0.004723

 14 C s       :     3.195120  s :     3.195120
      pz      :     0.992273  p :     2.777533
      px      :     0.875702
      py      :     0.909558
      dz2     :     0.004435  d :     0.036343
      dxz     :     0.007895
      dyz     :     0.003283
      dx2y2   :     0.010719
      dxy     :     0.010009

 15 C s       :     3.124810  s :     3.124810
      pz      :     1.010465  p :     2.896044
      px      :     0.980189
      py      :     0.905390
      dz2     :     0.005566  d :     0.026258
      dxz     :     0.004096
      dyz     :     0.004828
      dx2y2   :     0.005970
      dxy     :     0.005799

 16 H s       :     0.939858  s :     0.939858
      pz      :     0.005929  p :     0.024538
      px      :     0.008814
      py      :     0.009795

 17 H s       :     0.945944  s :     0.945944
      pz      :     0.005560  p :     0.024610
      px      :     0.004305
      py      :     0.014745

 18 C s       :     3.199816  s :     3.199816
      pz      :     1.032842  p :     2.828002
      px      :     0.886414
      py      :     0.908746
      dz2     :     0.003877  d :     0.035193
      dxz     :     0.006922
      dyz     :     0.003021
      dx2y2   :     0.011878
      dxy     :     0.009495

 19 H s       :     0.977560  s :     0.977560
      pz      :     0.005324  p :     0.024304
      px      :     0.004557
      py      :     0.014423

 20 C s       :     3.099760  s :     3.099760
      pz      :     0.959866  p :     2.970892
      px      :     0.980951
      py      :     1.030074
      dz2     :     0.005126  d :     0.044121
      dxz     :     0.007246
      dyz     :     0.006479
      dx2y2   :     0.013614
      dxy     :     0.011656

 21 H s       :     0.971175  s :     0.971175
      pz      :     0.004953  p :     0.024560
      px      :     0.004122
      py      :     0.015485

 22 C s       :     2.925323  s :     2.925323
      pz      :     1.005303  p :     2.923698
      px      :     0.975096
      py      :     0.943300
      dz2     :     0.010165  d :     0.035491
      dxz     :     0.003783
      dyz     :     0.005106
      dx2y2   :     0.009343
      dxy     :     0.007094

 23 C s       :     3.001637  s :     3.001637
      pz      :     1.008390  p :     2.964686
      px      :     0.963686
      py      :     0.992610
      dz2     :     0.009780  d :     0.036444
      dxz     :     0.006876
      dyz     :     0.003474
      dx2y2   :     0.009825
      dxy     :     0.006489

 24 H s       :     0.962910  s :     0.962910
      pz      :     0.004849  p :     0.023197
      px      :     0.013182
      py      :     0.005165

 25 H s       :     0.959682  s :     0.959682
      pz      :     0.014345  p :     0.023264
      px      :     0.004724
      py      :     0.004195

 26 C s       :     2.968944  s :     2.968944
      pz      :     0.970968  p :     2.888074
      px      :     0.977075
      py      :     0.940031
      dz2     :     0.007897  d :     0.035317
      dxz     :     0.006087
      dyz     :     0.005047
      dx2y2   :     0.008107
      dxy     :     0.008179

 27 H s       :     0.964030  s :     0.964030
      pz      :     0.014124  p :     0.022855
      px      :     0.004236
      py      :     0.004495

 28 H s       :     0.961827  s :     0.961827
      pz      :     0.005331  p :     0.022641
      px      :     0.003725
      py      :     0.013585

 29 C s       :     3.259509  s :     3.259509
      pz      :     1.054958  p :     3.109314
      px      :     1.002381
      py      :     1.051975
      dz2     :     0.012247  d :     0.050966
      dxz     :     0.009976
      dyz     :     0.009160
      dx2y2   :     0.010145
      dxy     :     0.009437

 30 H s       :     0.968136  s :     0.968136
      pz      :     0.007942  p :     0.023027
      px      :     0.008301
      py      :     0.006785

 31 H s       :     0.979481  s :     0.979481
      pz      :     0.013760  p :     0.022527
      px      :     0.004825
      py      :     0.003942

 32 C s       :     3.033383  s :     3.033383
      pz      :     0.993661  p :     2.963255
      px      :     0.943637
      py      :     1.025957
      dz2     :     0.009770  d :     0.043800
      dxz     :     0.006774
      dyz     :     0.006677
      dx2y2   :     0.010991
      dxy     :     0.009588

 33 H s       :     0.968839  s :     0.968839
      pz      :     0.013339  p :     0.021270
      px      :     0.004148
      py      :     0.003784

 34 C s       :     2.897393  s :     2.897393
      pz      :     0.988963  p :     2.947972
      px      :     0.985251
      py      :     0.973758
      dz2     :     0.005674  d :     0.034972
      dxz     :     0.006254
      dyz     :     0.007663
      dx2y2   :     0.009274
      dxy     :     0.006106

 35 H s       :     0.751948  s :     0.751948
[...]
 Total          137.946          176.367          188.817  iso=     167.710

 Orientation: 
  X           0.2409251   -0.4959617    0.8342524
  Y           0.0252458   -0.8560789   -0.5162283
  Z           0.9702153    0.1454337   -0.1937299

 --------------
 Nucleus  39C :
 --------------

Diamagnetic contribution to the shielding tensor (ppm) : 
           265.880          3.351        -6.217
             1.338        270.911         5.079
            -5.770          3.784       253.093

Paramagnetic contribution to the shielding tensor (ppm): 
          -101.896         -3.482         9.174
             9.829       -122.732         3.250
            15.379          0.031      -125.074

Total shielding tensor (ppm): 
           163.983         -0.131         2.957
            11.167        148.179         8.329
             9.609          3.814       128.019


 Diagonalized sT*s matrix:
 
 sDSO           253.762          270.481          265.640  iso=     263.295
 sPSO          -128.007         -123.349          -98.346  iso=    -116.567
        ---------------  ---------------  ---------------
 Total          125.755          147.132          167.294  iso=     146.727

 Orientation: 
  X          -0.1192868   -0.3450776   -0.9309630
  Y          -0.2374595    0.9203614   -0.3107216
  Z           0.9640455    0.1840010   -0.1917289

 --------------
 Nucleus  43C :
 --------------

Diamagnetic contribution to the shielding tensor (ppm) : 
           260.055          0.000        -5.287
            -5.203        257.743         6.287
            -0.331          7.299       236.432

Paramagnetic contribution to the shielding tensor (ppm): 
           -90.129         -8.047        -1.247
             1.950        -96.865        -3.569
            -1.702         -8.638       -87.262

Total shielding tensor (ppm): 
           169.926         -8.047        -6.535
            -3.253        160.878         2.718
            -2.034         -1.339       149.170


 Diagonalized sT*s matrix:
 
 sDSO           236.685          254.794          262.751  iso=     251.410
 sPSO           -88.378          -96.482          -89.396  iso=     -91.419
        ---------------  ---------------  ---------------
 Total          148.307          158.312          173.356  iso=     159.991

 Orientation: 
  X           0.2097829   -0.4056883    0.8896113
  Y           0.0285694   -0.9069255   -0.4203211
  Z           0.9773305    0.1135918   -0.1786672

 --------------
 Nucleus  44C :
 --------------

Diamagnetic contribution to the shielding tensor (ppm) : 
           250.266          0.304         1.226
            -0.874        257.293        -0.016
             1.426          4.547       268.635

Paramagnetic contribution to the shielding tensor (ppm): 
           -71.084         -4.222        -1.364
            -2.140        -78.639        -1.130
            -0.870         -5.903       -74.791

Total shielding tensor (ppm): 
           179.182         -3.919        -0.138
            -3.015        178.654        -1.146
             0.556         -1.356       193.844


 Diagonalized sT*s matrix:
 
 sDSO           254.036          253.944          268.213  iso=     258.731
 sPSO           -78.628          -71.636          -74.250  iso=     -74.838
        ---------------  ---------------  ---------------
 Total          175.408          182.308          193.963  iso=     183.893

 Orientation: 
  X           0.6756128   -0.7363851    0.0358378
  Y           0.7360647    0.6709603   -0.0895602
  Z           0.0419050    0.0868870    0.9953364

 --------------
 Nucleus  49C :
 --------------

Diamagnetic contribution to the shielding tensor (ppm) : 
           244.508         -6.746        -2.717
           -19.837        258.556         1.382
            -2.625          5.203       239.353

Paramagnetic contribution to the shielding tensor (ppm): 
           -75.245          0.719         1.119
            17.903        -71.829         6.529
             3.961          0.268       -69.314

Total shielding tensor (ppm): 
           169.263         -6.027        -1.598
            -1.934        186.727         7.911
             1.335          5.471       170.039


 Diagonalized sT*s matrix:
 
 sDSO           238.547          241.102          262.769  iso=     247.472
 sPSO           -71.679          -71.724          -72.986  iso=     -72.129
        ---------------  ---------------  ---------------
 Total          166.868          169.378          189.783  iso=     175.343

 Orientation: 
  X           0.5608161    0.8090070   -0.1760482
  Y           0.3625352   -0.0487868    0.9306923
  Z          -0.7443477    0.5857709    0.3206539

 --------------
 Nucleus  50C :
 --------------

Diamagnetic contribution to the shielding tensor (ppm) : 
           266.007         11.570         2.573
            16.948        234.353         2.635
             2.409         10.119       265.070

Paramagnetic contribution to the shielding tensor (ppm): 
          -259.890        -74.279        49.418
           -81.905       -113.810         7.631
            42.237          6.484      -209.419

Total shielding tensor (ppm): 
             6.117        -62.709        51.991
           -64.957        120.543        10.265
            44.646         16.603        55.651


 Diagonalized sT*s matrix:
 
 sDSO           267.166          269.713          228.551  iso=     255.143
 sPSO          -313.190         -191.071          -78.856  iso=    -194.373
        ---------------  ---------------  ---------------
 Total          -46.024           78.641          149.695  iso=      60.771

 Orientation: 
  X          -0.8525084    0.2993889    0.4284806
  Y          -0.3588879    0.2607309   -0.8962248
  Z           0.3800379    0.9178157    0.1148282

 --------------
 Nucleus  51C :
 --------------

Diamagnetic contribution to the shielding tensor (ppm) : 
           267.982         13.881         1.275
             5.574        258.126         0.794
             7.026         -3.199       276.982

Paramagnetic contribution to the shielding tensor (ppm): 
          -251.632        -89.583        47.498
           -86.843       -134.196        -4.596
            34.598         -0.291      -214.803

Total shielding tensor (ppm): 
            16.349        -75.701        48.773
           -81.269        123.930        -3.802
            41.624         -3.490        62.178


 Diagonalized sT*s matrix:
 
 sDSO           272.484          275.568          255.037  iso=     267.696
 sPSO          -310.889         -205.785          -83.957  iso=    -200.211
        ---------------  ---------------  ---------------
 Total          -38.405           69.783          171.080  iso=      67.486

 Orientation: 
  X           0.8574772    0.1096324    0.5027063
  Y           0.4442528    0.3351318   -0.8308587
  Z          -0.2595619    0.9357710    0.2386633

 --------------
 Nucleus  54C :
 --------------

Diamagnetic contribution to the shielding tensor (ppm) : 
           249.760          0.035         6.017
             3.986        241.681         3.475
             6.426          4.197       244.747

Paramagnetic contribution to the shielding tensor (ppm): 
           -92.076          4.579        -6.135
            -4.894        -85.592         1.420
            -7.388          2.607       -95.316

Total shielding tensor (ppm): 
           157.683          4.614        -0.118
            -0.908        156.089         4.894
            -0.962          6.804       149.432


 Diagonalized sT*s matrix:
 
 sDSO           241.773          244.182          250.233  iso=     245.396
 sPSO           -95.910          -87.067          -90.007  iso=     -90.995
        ---------------  ---------------  ---------------
 Total          145.864          157.115          160.225  iso=     154.401

 Orientation: 
  X           0.1212778   -0.8707759   -0.4764883
  Y          -0.5048278    0.3592051   -0.7849335
  Z           0.8546581    0.3357396   -0.3960283

 --------------
 Nucleus  55C :
 --------------

Diamagnetic contribution to the shielding tensor (ppm) : 
           247.629         -1.218         6.697
           -13.272        224.725       -11.783
             9.180         -5.905       247.182

Paramagnetic contribution to the shielding tensor (ppm): 
           -68.654         -1.502         9.957
             5.098        -47.963         7.192
             9.808          0.865       -73.961

Total shielding tensor (ppm): 
           178.976         -2.719        16.654
            -8.173        176.762        -4.591
            18.988         -5.040       173.221


 Diagonalized sT*s matrix:
 
 sDSO           239.533          221.069          258.934  iso=     239.845
 sPSO           -81.487          -46.944          -62.148  iso=     -63.526
        ---------------  ---------------  ---------------
 Total          158.047          174.125          196.786  iso=     176.319

 Orientation: 
  X          -0.6443837   -0.2589687    0.7195171
  Y           0.0026159   -0.9416523   -0.3365769
  Z           0.7646979   -0.2150025    0.6074628

 --------------
 Nucleus  56C :
 --------------

Diamagnetic contribution to the shielding tensor (ppm) : 
           241.680         -4.133        -5.184
             5.843        248.978         6.684
            -8.914         -0.242       252.850

Paramagnetic contribution to the shielding tensor (ppm): 
           -79.566          1.322         9.455
            -3.991        -73.524        -4.981
            11.261          6.536       -94.995

Total shielding tensor (ppm): 
           162.114         -2.811         4.271
             1.852        175.455         1.703
             2.347          6.294       157.855


 Diagonalized sT*s matrix:
 
 sDSO           255.167          237.923          250.418  iso=     247.836
 sPSO           -99.820          -74.169          -74.095  iso=     -82.695
        ---------------  ---------------  ---------------
 Total          155.347          163.754          176.323  iso=     165.141

 Orientation: 
  X          -0.4452759    0.8951162    0.0222813
  Y          -0.1757714   -0.1117836    0.9780638
  Z           0.8779714    0.4315918    0.2071103

 --------------
 Nucleus  59C :
 --------------

Diamagnetic contribution to the shielding tensor (ppm) : 
           241.686         -1.618        -9.521
             8.704        247.052         6.568
             2.483          2.189       260.349

Paramagnetic contribution to the shielding tensor (ppm): 
           -61.989          4.398        -1.239
            -7.991        -72.312        -7.422
            -8.191         -7.193       -69.465

Total shielding tensor (ppm): 
           179.697          2.780       -10.760
             0.713        174.740        -0.854
            -5.708         -5.004       190.884


 Diagonalized sT*s matrix:
 
 sDSO           246.461          244.457          258.168  iso=     249.695
 sPSO           -72.296          -69.095          -62.374  iso=     -67.922
        ---------------  ---------------  ---------------
 Total          174.165          175.361          195.794  iso=     181.773

 Orientation: 
  X           0.1921138    0.8686412   -0.4566780
  Y          -0.9776844    0.1290994   -0.1657306
  Z          -0.0850036    0.4783261    0.8740587

 --------------
 Nucleus  60C :
 --------------

Diamagnetic contribution to the shielding tensor (ppm) : 
           242.330         -4.163         0.120
            15.149        255.976         1.473
            -4.155         -5.408       252.587

Paramagnetic contribution to the shielding tensor (ppm): 
           -78.175         -5.120         1.844
           -20.319        -79.011       -14.746
             2.390         -7.042       -69.689

Total shielding tensor (ppm): 
           164.155         -9.283         1.964
            -5.170        176.965       -13.273
            -1.764        -12.449       182.898


 Diagonalized sT*s matrix:
 
 sDSO           250.155          246.614          254.124  iso=     250.298
 sPSO           -90.836          -75.777          -60.261  iso=     -75.625
        ---------------  ---------------  ---------------
 Total          159.319          170.837          193.862  iso=     174.673

 Orientation: 
  X           0.7948245   -0.5878558    0.1505972
  Y           0.5315396    0.5546879   -0.6401461
  Z           0.2927791    0.5888522    0.7533482



--------------------------------
CHEMICAL SHIELDING SUMMARY (ppm)
--------------------------------


  Nucleus  Element    Isotropic     Anisotropy
  -------  -------  ------------   ------------
      0       C           61.376        152.004 
      1       C          154.582         12.164 
      2       C          132.297         51.039 
      5       C           50.833        177.758 
      6       C          168.089         31.859 
      7       C          164.915         17.263 
     14       C           71.730        133.335 
     15       C           83.603        119.817 
     18       C           79.821        133.639 
     20       C           52.190        175.666 
     22       C          169.201          7.159 
     23       C          174.222         12.838 
     26       C          158.731         24.298 
     29       C          154.413         16.668 
     32       C          143.020         27.345 
     34       C          174.233         23.755 
     36       C          167.710         31.661 
     39       C          146.727         30.851 
     43       C          159.991         20.046 
     44       C          183.893         15.105 
     49       C          175.343         21.660 
     50       C           60.771        133.386 
     51       C           67.486        155.391 
     54       C          154.401          8.736 
     55       C          176.319         30.700 
     56       C          165.141         16.772 
     59       C          181.773         21.031 
     60       C          174.673         28.784 


NMR shielding tensor and spin rotation calculation done in   1.0 sec 

Maximum memory used throughout the entire PROP-calculation: 52.7 MB

--------------------------------
SUGGESTED CITATIONS FOR THIS RUN
--------------------------------

Below you find a list of papers that are relevant to this ORCA run
We neither can nor want to force you to cite these papers, but we appreciate if you do
You receive ORCA, which is the product of decades of hard work by many enthusiastic individuals, for free
The only thing we kindly ask in return is that you cite our papers,
We deeply appreciate it, if you show your appreciation for ORCA by not just citing the generic ORCA reference.

Please note that relegating all ORCA citations to the supporting information does *not* help us.
SI sections are not indexed - citations you put there will not count into any citation statistics
But we need these citations in order to attract the funding resources that allow us to do what we are doing

Therefore, if you are a happy ORCA user, please consider citing a few of the papers listed below in the main body of your paper

In addition to the list printed below, the program has created the file inpS.bibtex that contains the list in bibtex format
You can import this file easily into all common literature databanks and citation aid programs


List of essential papers. We consider these as the minimum necessary citations

  1. Neese,F.
     Software update: the ORCA program system, version 5.0
     WIRES Comput. Molec. Sci., 2022 12(1)e1606
     doi.org/10.1002/wcms.1606

List of papers to cite with high priority. The work reported in these papers was absolutely
necessary for this run to complete.
Our perspective: the developers of density functionals and basis sets usually get cited in chemistry papers
Good! But without the algorithms to do something with them, the functionals or basis sets would not do anything.
Hence, in our opinion, the algorithm design and method developments papers are equally worthy of getting cited

  1. Neese,F.
     An improvement of the resolution of the identity approximation for the formation of the Coulomb matrix
     J. Comp. Chem., 2003 24(14)1740-1747
     doi.org/10.1002/jcc.10318
  2. Neese,F.; Wennmohs,F.; Hansen,A.; Becker,U.
     Efficient, approximate and parallel Hartree-Fock and hybrid DFT calculations. A 'chain-of-spheres' algorithm for the Hartree-Fock exchange
     Chem. Phys., 2009 356(1-3)98-109
     doi.org/10.1016/j.chemphys.2008.10.036
  3. Stoychev,G.L.; Auer,A.A.; Izsak,R.; Neese,F.
     Self-Consistent Field Calculation of Nuclear Magnetic Resonance Chemical Shielding Constants Using Gauge-Including Atomic Orbitals and Approximate Two-Electron Integrals
     J. Chem. Theory Comput., 2018 14(2)619-637
     doi.org/10.1021/acs.jctc.7b01006
  4. Garcia-Rates,M.; Neese,F.
     Effect of the Solute Cavity on the Solvation Energy and its Derivatives within the Framework of the Gaussian Charge Scheme
     J. Comput. Chem., 2020 41 922-939
     doi.org/10.1002/jcc.26139
  5. Helmich-Paris,B.; de Souza,B.; Neese,F.; Izsák,R.
     An improved chain of spheres for exchange algorithm
     J. Chem. Phys., 2021 155 104109
     doi.org/doi: 10.1063/5.0058766.
  6. Neese,F.
     The SHARK Integral Generation and Digestion System
     J. Comp. Chem., 2022  1-16
     doi.org/10.1002/jcc.26942
  7. Caldeweyher,E.; Bannwarth,C.; Grimme,S.
     Extension of the D3 dispersion coefficient model
     J. Chem. Phys., 2017 147 034112-XXXX
     doi.org/10.1063/1.4993215
  8. Caldeweyher,E.; Ehlert,S.; Hansen,A.; Neugebauer,H.; Spicher,S.; Bannwarth,C.; Grimme,S.
     A generally applicable atomic-charge dependent London dispersion correction
     J. Chem. Phys., 2019 150 154122-XXXX
     doi.org/10.1063/1.5090222
  9. Caldeweyher,E.; Mewes,J.; Ehlert,S.; Grimme,S.
     Extension and evaluation of the D4 London-dispersion model for periodic systems
     Phys. Chem. Chem. Phys., 2020 22(16)8499-8512
     doi.org/10.1039/D0CP00502A

List of suggested additional citations. These are papers that are important in the 'surrounding' of 
of this run, or papers that preceded the highly important papers. If you like your results we are grateful for a citation.

  1. Izsak,R.; Neese,F.
     An overlap fitted chain of spheres exchange method
     J. Chem. Phys., 2011 135 144105
     doi.org/10.1063/1.3646921
  2. Izsak,R.; Hansen,A.; Neese,F.
     The resolution of identity and chain of spheres approximations for the LPNO-CCSD singles Fock term
     Molec. Phys., 2012 110 2413-2417
     doi.org/10.1080/00268976.2012.687466
  3. Neese,F.
     The ORCA program system
     WIRES Comput. Molec. Sci., 2012 2(1)73-78
     doi.org/10.1002/wcms.81
  4. Izsak,R.; Neese,F.; Klopper,W.
     Robust fitting techniques in the chain of spheres approximation to the Fock exchange: The role of the complementary space
     J. Chem. Phys., 2013 139 
     doi.org/10.1063/1.4819264
  5. Neese,F.
     Software update: the ORCA program system, version 4.0
     WIRES Comput. Molec. Sci., 2018 8(1)1-6
     doi.org/10.1002/wcms.1327
  6. Neese,F.; Wennmohs,F.; Becker,U.; Riplinger,C.
     The ORCA quantum chemistry program package
     J. Chem. Phys., 2020 152 Art. No. L224108
     doi.org/10.1063/5.0004608

Timings for individual modules:

Sum of individual times          ...      184.181 sec (=   3.070 min)
Startup calculation              ...        4.612 sec (=   0.077 min)   2.5 %
SCF iterations                   ...       73.593 sec (=   1.227 min)  40.0 %
Property integrals               ...       64.750 sec (=   1.079 min)  35.2 %
SCF Response                     ...       39.874 sec (=   0.665 min)  21.6 %
Property calculations            ...        1.352 sec (=   0.023 min)   0.7 %
                             ****ORCA TERMINATED NORMALLY****
TOTAL RUN TIME: 0 days 0 hours 3 minutes 4 seconds 458 msec
