
                                 *****************
                                 * O   R   C   A *
                                 *****************

                                            #,                                       
                                            ###                                      
                                            ####                                     
                                            #####                                    
                                            ######                                   
                                           ########,                                 
                                     ,,################,,,,,                         
                               ,,#################################,,                 
                          ,,##########################################,,             
                       ,#########################################, ''#####,          
                    ,#############################################,,   '####,        
                  ,##################################################,,,,####,       
                ,###########''''           ''''###############################       
              ,#####''   ,,,,##########,,,,          '''####'''          '####       
            ,##' ,,,,###########################,,,                        '##       
           ' ,,###''''                  '''############,,,                           
         ,,##''                                '''############,,,,        ,,,,,,###''
      ,#''                                            '''#######################'''  
     '                                                          ''''####''''         
             ,#######,   #######,   ,#######,      ##                                
            ,#'     '#,  ##    ##  ,#'     '#,    #''#        ######   ,####,        
            ##       ##  ##   ,#'  ##            #'  '#       #        #'  '#        
            ##       ##  #######   ##           ,######,      #####,   #    #        
            '#,     ,#'  ##    ##  '#,     ,#' ,#      #,         ##   #,  ,#        
             '#######'   ##     ##  '#######'  #'      '#     #####' # '####'        



                  #######################################################
                  #                        -***-                        #
                  #          Department of theory and spectroscopy      #
                  #    Directorship and core code : Frank Neese         #
                  #        Max Planck Institute fuer Kohlenforschung    #
                  #                Kaiser Wilhelm Platz 1               #
                  #                 D-45470 Muelheim/Ruhr               #
                  #                      Germany                        #
                  #                                                     #
                  #                  All rights reserved                #
                  #                        -***-                        #
                  #######################################################


                         Program Version 5.0.2 -  RELEASE  -


 With contributions from (in alphabetic order):
   Daniel Aravena         : Magnetic Suceptibility
   Michael Atanasov       : Ab Initio Ligand Field Theory (pilot matlab implementation)
   Alexander A. Auer      : GIAO ZORA, VPT2 properties, NMR spectrum
   Ute Becker             : Parallelization
   Giovanni Bistoni       : ED, misc. LED, open-shell LED, HFLD
   Martin Brehm           : Molecular dynamics
   Dmytro Bykov           : SCF Hessian
   Vijay G. Chilkuri      : MRCI spin determinant printing, contributions to CSF-ICE
   Dipayan Datta          : RHF DLPNO-CCSD density
   Achintya Kumar Dutta   : EOM-CC, STEOM-CC
   Dmitry Ganyushin       : Spin-Orbit,Spin-Spin,Magnetic field MRCI
   Miquel Garcia          : C-PCM and meta-GGA Hessian, CC/C-PCM, Gaussian charge scheme
   Yang Guo               : DLPNO-NEVPT2, F12-NEVPT2, CIM, IAO-localization
   Andreas Hansen         : Spin unrestricted coupled pair/coupled cluster methods
   Benjamin Helmich-Paris : MC-RPA, TRAH-SCF, COSX integrals
   Lee Huntington         : MR-EOM, pCC
   Robert Izsak           : Overlap fitted RIJCOSX, COSX-SCS-MP3, EOM
   Marcus Kettner         : VPT2
   Christian Kollmar      : KDIIS, OOCD, Brueckner-CCSD(T), CCSD density, CASPT2, CASPT2-K
   Simone Kossmann        : Meta GGA functionals, TD-DFT gradient, OOMP2, MP2 Hessian
   Martin Krupicka        : Initial AUTO-CI
   Lucas Lang             : DCDCAS
   Marvin Lechner         : AUTO-CI (C++ implementation), FIC-MRCC
   Dagmar Lenk            : GEPOL surface, SMD
   Dimitrios Liakos       : Extrapolation schemes; Compound Job, initial MDCI parallelization
   Dimitrios Manganas     : Further ROCIS development; embedding schemes
   Dimitrios Pantazis     : SARC Basis sets
   Anastasios Papadopoulos: AUTO-CI, single reference methods and gradients
   Taras Petrenko         : DFT Hessian,TD-DFT gradient, ASA, ECA, R-Raman, ABS, FL, XAS/XES, NRVS
   Peter Pinski           : DLPNO-MP2, DLPNO-MP2 Gradient
   Christoph Reimann      : Effective Core Potentials
   Marius Retegan         : Local ZFS, SOC
   Christoph Riplinger    : Optimizer, TS searches, QM/MM, DLPNO-CCSD(T), (RO)-DLPNO pert. Triples
   Tobias Risthaus        : Range-separated hybrids, TD-DFT gradient, RPA, STAB
   Michael Roemelt        : Original ROCIS implementation
   Masaaki Saitow         : Open-shell DLPNO-CCSD energy and density
   Barbara Sandhoefer     : DKH picture change effects
   Avijit Sen             : IP-ROCIS
   Kantharuban Sivalingam : CASSCF convergence, NEVPT2, FIC-MRCI
   Bernardo de Souza      : ESD, SOC TD-DFT
   Georgi Stoychev        : AutoAux, RI-MP2 NMR, DLPNO-MP2 response
   Willem Van den Heuvel  : Paramagnetic NMR
   Boris Wezisla          : Elementary symmetry handling
   Frank Wennmohs         : Technical directorship


 We gratefully acknowledge several colleagues who have allowed us to
 interface, adapt or use parts of their codes:
   Stefan Grimme, W. Hujo, H. Kruse, P. Pracht,  : VdW corrections, initial TS optimization,
                  C. Bannwarth, S. Ehlert          DFT functionals, gCP, sTDA/sTD-DF
   Ed Valeev, F. Pavosevic, A. Kumar             : LibInt (2-el integral package), F12 methods
   Garnet Chan, S. Sharma, J. Yang, R. Olivares  : DMRG
   Ulf Ekstrom                                   : XCFun DFT Library
   Mihaly Kallay                                 : mrcc  (arbitrary order and MRCC methods)
   Jiri Pittner, Ondrej Demel                    : Mk-CCSD
   Frank Weinhold                                : gennbo (NPA and NBO analysis)
   Christopher J. Cramer and Donald G. Truhlar   : smd solvation model
   Lars Goerigk                                  : TD-DFT with DH, B97 family of functionals
   V. Asgeirsson, H. Jonsson                     : NEB implementation
   FAccTs GmbH                                   : IRC, NEB, NEB-TS, DLPNO-Multilevel, CI-OPT
                                                   MM, QMMM, 2- and 3-layer-ONIOM, Crystal-QMMM,
                                                   LR-CPCM, SF, NACMEs, symmetry and pop. for TD-DFT,
                                                   nearIR, NL-DFT gradient (VV10), updates on ESD,
                                                   ML-optimized integration grids
   S Lehtola, MJT Oliveira, MAL Marques          : LibXC Library
   Liviu Ungur et al                             : ANISO software


 Your calculation uses the libint2 library for the computation of 2-el integrals
 For citations please refer to: http://libint.valeyev.net

 Your ORCA version has been built with support for libXC version: 5.1.0
 For citations please refer to: https://tddft.org/programs/libxc/

 This ORCA versions uses:
   CBLAS   interface :  Fast vector & matrix operations
   LAPACKE interface :  Fast linear algebra routines
   SCALAPACK package :  Parallel linear algebra routines
   Shared memory     :  Shared parallel matrices
   BLAS/LAPACK       :  OpenBLAS 0.3.15  USE64BITINT DYNAMIC_ARCH NO_AFFINITY Zen SINGLE_THREADED
        Core in use  :  Zen
   Copyright (c) 2011-2014, The OpenBLAS Project


Your calculation utilizes the atom-pairwise dispersion correction
based on tight binding partial charges (D4)
Cite in your paper:
E.Caldeweyher, C.Bannwarth, S.Grimme, J.Chem.Phys., (2017), 147, 034112.
E.Caldeweyher, S.Ehlert, A.Hansen, H.Neugebauer, S.Grimme, J.Chem.Phys., (2018), in progress.
   

================================================================================

----- Orbital basis set information -----
Your calculation utilizes the basis: pcJ-0
   F. Jensen, Theor. Chem. Acc. 126, 371 (2010).

----- AuxJ basis set information -----
Your calculation utilizes the auxiliary basis: def2/J
   F. Weigend, Phys. Chem. Chem. Phys. 8, 1057 (2006).

================================================================================
                                        WARNINGS
                       Please study these warnings very carefully!
================================================================================


INFO   : the flag for use of the SHARK integral package has been found!

================================================================================
                                       INPUT FILE
================================================================================
NAME = inpJ
|  1> ! pbe0
|  2> ! D4
|  3> ! pcJ-0
|  4> ! def2/J RIJCOSX
|  5> ! DEFGRID2
|  6> ! scfconv7
|  7> ! smallprint printgap noloewdin
|  8> ! NOSOSCF
|  9> %MaxCore 4000
| 10> %output
| 11>        print[P_BondOrder_M] 1
| 12>        print[P_Mayer] 1
| 13>        print[P_basis] 2
| 14> end
| 15> %pal
| 16>     nprocs 4
| 17> end
| 18> ! CPCM(chloroform)
| 19> *xyz 0 1
| 20> C   -5.3006659000   0.1265676400  -0.6836427900
| 21> C   -6.7046338400  -0.3621446600  -0.9515300900
| 22> C   -7.7237623700   0.4800214800  -0.1739676500
| 23> H   -6.8056613300  -1.4189978000  -0.6797440400
| 24> H   -6.9359186200  -0.2643008400  -2.0226796900
| 25> C   -5.1083273500   1.5721407900  -0.9346864500
| 26> C   -6.1471188400   2.4645467700  -0.2916216200
| 27> C   -7.5749355200   1.9574966800  -0.5399362400
| 28> H   -6.0357299000   3.4936078000  -0.6494671300
| 29> H   -5.9635872000   2.4806990600   0.7935741100
| 30> H   -7.8285582100   2.0763607900  -1.6022158900
| 31> H   -8.2911547100   2.5521344000   0.0388975500
| 32> O   -7.5868444900   0.2661198100   1.2405933700
| 33> H   -8.7387557500   0.1433785100  -0.4187935000
| 34> C   -4.3514567200  -0.7061314900  -0.1937299800
| 35> C   -4.1228742100   2.0556042600  -1.6991703700
| 36> H   -3.3957117700   1.3976321000  -2.1676055900
| 37> H   -4.0282760900   3.1236631100  -1.8809178400
| 38> C   -3.0117862200  -0.3359281300   0.2016662500
| 39> H   -4.6470486100  -1.7457521200  -0.0577632800
| 40> C   -2.0295892500  -1.1785503100   0.5870001700
| 41> H   -2.7937361000   0.7296159900   0.1950205400
| 42> C   -2.1292091600  -2.6819502900   0.6301169400
| 43> C   -1.0082724000  -3.3447996800  -0.1932458100
| 44> H   -3.1016870700  -3.0443104400   0.2864469900
| 45> H   -2.0174878400  -2.9990483200   1.6791975300
| 46> C    0.3853587000  -2.8176257800   0.1732622600
| 47> H   -1.2005916600  -3.1758296600  -1.2603334500
| 48> H   -1.0421954300  -4.4302061700  -0.0383895300
| 49> C    0.4608156600  -1.2871420700   0.0810089200
| 50> H    1.1263298000  -3.2937760300  -0.4768825400
| 51> H    0.6245545500  -3.1156942300   1.2053100500
| 52> C   -0.6672101800  -0.7083180700   0.9953192500
| 53> H   -0.4704837000  -1.1516726500   1.9888037400
| 54> C   -0.3432792500   0.7788040600   1.0911849900
| 55> H   -6.6412743000   0.2536201000   1.4459978100
| 56> C    1.2050940300   0.8136897500   1.1011652700
| 57> H   -0.7839056000   1.2403226300   1.9810278700
| 58> H   -0.7326115700   1.3183846100   0.2207658000
| 59> C    1.6989313900  -0.6219191600   0.7435475600
| 60> H    1.5963885200   1.1264696400   2.0742081000
| 61> H    1.5778869700   1.5361010400   0.3649472300
| 62> H    1.8872194800  -1.1710073700   1.6804824100
| 63> C    3.0405704700  -0.5979402300  -0.0292938600
| 64> C    0.2904047900  -0.8094737200  -1.3679975300
| 65> H    0.4565567200   0.2686503400  -1.4596135600
| 66> H   -0.7173625300  -1.0173865900  -1.7404829700
| 67> H    1.0048703500  -1.3127750000  -2.0285982000
| 68> H    2.8720107800  -0.0035504900  -0.9426865700
| 69> C    3.5295357100  -1.9841770100  -0.4461740100
| 70> C    4.0558487700   0.1585214100   0.7971517800
| 71> C    5.1494017100  -0.3529498300   1.3649766200
| 72> H    3.8303651100   1.2134480000   0.9467721300
| 73> H    5.3692719200  -1.4103856900   1.2209781700
| 74> C    6.1472825100   0.3875961700   2.2170451700
| 75> C    5.7508744800   1.8307692200   2.5257220300
| 76> C    7.5866025900   0.2973306100   1.6332775900
| 77> H    6.1922944600  -0.1514503600   3.1790672500
| 78> H    8.2306903500   0.8423059700   2.3402541000
| 79> C    7.7121968300   0.9673459100   0.2636132100
| 80> C    8.0933727300  -1.1461740500   1.5679264000
| 81> H    5.6409579800   2.4308712400   1.6164239600
| 82> H    6.5138246900   2.3063692100   3.1515403600
| 83> H    4.7973533500   1.8687370700   3.0635354000
| 84> H    7.4308477200   2.0246057000   0.2963131900
| 85> H    7.0670476300   0.4685989500  -0.4696794700
| 86> H    8.7447112900   0.9076477000  -0.0982027200
| 87> H    7.9539447500  -1.6639636800   2.5242205200
| 88> H    9.1616203000  -1.1652908100   1.3252199900
| 89> H    7.5725118300  -1.7191936600   0.7921448600
| 90> H    2.8789314700  -2.4198586500  -1.2069511200
| 91> H    3.5580271600  -2.6722169300   0.4070225200
| 92> H    4.5388174000  -1.9251472600  -0.8680940600
| 93> *
| 94> %eprnmr
| 95>  Nuclei = all H { ssfc }
| 96>  SpinSpinRThresh 8.0
| 97> end
| 98> 
| 99>                          ****END OF INPUT****
================================================================================

                       ****************************
                       * Single Point Calculation *
                       ****************************

---------------------------------
CARTESIAN COORDINATES (ANGSTROEM)
---------------------------------
  C     -5.300666    0.126568   -0.683643
  C     -6.704634   -0.362145   -0.951530
  C     -7.723762    0.480021   -0.173968
  H     -6.805661   -1.418998   -0.679744
  H     -6.935919   -0.264301   -2.022680
  C     -5.108327    1.572141   -0.934686
  C     -6.147119    2.464547   -0.291622
  C     -7.574936    1.957497   -0.539936
  H     -6.035730    3.493608   -0.649467
  H     -5.963587    2.480699    0.793574
  H     -7.828558    2.076361   -1.602216
  H     -8.291155    2.552134    0.038898
  O     -7.586844    0.266120    1.240593
  H     -8.738756    0.143379   -0.418793
  C     -4.351457   -0.706131   -0.193730
  C     -4.122874    2.055604   -1.699170
  H     -3.395712    1.397632   -2.167606
  H     -4.028276    3.123663   -1.880918
  C     -3.011786   -0.335928    0.201666
  H     -4.647049   -1.745752   -0.057763
  C     -2.029589   -1.178550    0.587000
  H     -2.793736    0.729616    0.195021
  C     -2.129209   -2.681950    0.630117
  C     -1.008272   -3.344800   -0.193246
  H     -3.101687   -3.044310    0.286447
  H     -2.017488   -2.999048    1.679198
  C      0.385359   -2.817626    0.173262
  H     -1.200592   -3.175830   -1.260333
  H     -1.042195   -4.430206   -0.038390
  C      0.460816   -1.287142    0.081009
  H      1.126330   -3.293776   -0.476883
  H      0.624555   -3.115694    1.205310
  C     -0.667210   -0.708318    0.995319
  H     -0.470484   -1.151673    1.988804
  C     -0.343279    0.778804    1.091185
  H     -6.641274    0.253620    1.445998
  C      1.205094    0.813690    1.101165
  H     -0.783906    1.240323    1.981028
  H     -0.732612    1.318385    0.220766
  C      1.698931   -0.621919    0.743548
  H      1.596389    1.126470    2.074208
  H      1.577887    1.536101    0.364947
  H      1.887219   -1.171007    1.680482
  C      3.040570   -0.597940   -0.029294
  C      0.290405   -0.809474   -1.367998
  H      0.456557    0.268650   -1.459614
  H     -0.717363   -1.017387   -1.740483
  H      1.004870   -1.312775   -2.028598
  H      2.872011   -0.003550   -0.942687
  C      3.529536   -1.984177   -0.446174
  C      4.055849    0.158521    0.797152
  C      5.149402   -0.352950    1.364977
  H      3.830365    1.213448    0.946772
  H      5.369272   -1.410386    1.220978
  C      6.147283    0.387596    2.217045
  C      5.750874    1.830769    2.525722
  C      7.586603    0.297331    1.633278
  H      6.192294   -0.151450    3.179067
  H      8.230690    0.842306    2.340254
  C      7.712197    0.967346    0.263613
  C      8.093373   -1.146174    1.567926
  H      5.640958    2.430871    1.616424
  H      6.513825    2.306369    3.151540
  H      4.797353    1.868737    3.063535
  H      7.430848    2.024606    0.296313
  H      7.067048    0.468599   -0.469679
  H      8.744711    0.907648   -0.098203
  H      7.953945   -1.663964    2.524221
  H      9.161620   -1.165291    1.325220
  H      7.572512   -1.719194    0.792145
  H      2.878931   -2.419859   -1.206951
  H      3.558027   -2.672217    0.407023
  H      4.538817   -1.925147   -0.868094

----------------------------
CARTESIAN COORDINATES (A.U.)
----------------------------
  NO LB      ZA    FRAG     MASS         X           Y           Z
   0 C     6.0000    0    12.011  -10.016807    0.239178   -1.291898
   1 C     6.0000    0    12.011  -12.669922   -0.684354   -1.798131
   2 C     6.0000    0    12.011  -14.595796    0.907109   -0.328751
   3 H     1.0000    0     1.008  -12.860836   -2.681517   -1.284530
   4 H     1.0000    0     1.008  -13.106987   -0.499456   -3.822311
   5 C     6.0000    0    12.011   -9.653340    2.970916   -1.766301
   6 C     6.0000    0    12.011  -11.616371    4.657318   -0.551085
   7 C     6.0000    0    12.011  -14.314554    3.699133   -1.020332
   8 H     1.0000    0     1.008  -11.405877    6.601962   -1.227315
   9 H     1.0000    0     1.008  -11.269547    4.687842    1.499638
  10 H     1.0000    0     1.008  -14.793831    3.923753   -3.027749
  11 H     1.0000    0     1.008  -15.668012    4.822835    0.073506
  12 O     8.0000    0    15.999  -14.337058    0.502894    2.344382
  13 H     1.0000    0     1.008  -16.513855    0.270946   -0.791405
  14 C     6.0000    0    12.011   -8.223061   -1.334395   -0.366097
  15 C     6.0000    0    12.011   -7.791103    3.884529   -3.210967
  16 H     1.0000    0     1.008   -6.416965    2.641142   -4.096181
  17 H     1.0000    0     1.008   -7.612339    5.902868   -3.554420
  18 C     6.0000    0    12.011   -5.691451   -0.634812    0.381094
  19 H     1.0000    0     1.008   -8.781649   -3.298993   -0.109157
  20 C     6.0000    0    12.011   -3.835368   -2.227137    1.109270
  21 H     1.0000    0     1.008   -5.279396    1.378774    0.368535
  22 C     6.0000    0    12.011   -4.023622   -5.068152    1.190748
  23 C     6.0000    0    12.011   -1.905359   -6.320755   -0.365182
  24 H     1.0000    0     1.008   -5.861339   -5.752913    0.541306
  25 H     1.0000    0     1.008   -3.812499   -5.667380    3.173223
  26 C     6.0000    0    12.011    0.728222   -5.324541    0.327418
  27 H     1.0000    0     1.008   -2.268789   -6.001448   -2.381685
  28 H     1.0000    0     1.008   -1.969464   -8.371876   -0.072546
  29 C     6.0000    0    12.011    0.870815   -2.432346    0.153085
  30 H     1.0000    0     1.008    2.128455   -6.224335   -0.901177
  31 H     1.0000    0     1.008    1.180237   -5.887809    2.277706
  32 C     6.0000    0    12.011   -1.260845   -1.338527    1.880881
  33 H     1.0000    0     1.008   -0.889085   -2.176346    3.758294
  34 C     6.0000    0    12.011   -0.648704    1.471726    2.062041
  35 H     1.0000    0     1.008  -12.550190    0.479273    2.732540
  36 C     6.0000    0    12.011    2.277298    1.537651    2.080901
  37 H     1.0000    0     1.008   -1.481367    2.343870    3.743600
  38 H     1.0000    0     1.008   -1.384435    2.491386    0.417187
  39 C     6.0000    0    12.011    3.210515   -1.175257    1.405101
  40 H     1.0000    0     1.008    3.016737    2.128719    3.919685
  41 H     1.0000    0     1.008    2.981774    2.902810    0.689650
  42 H     1.0000    0     1.008    3.566328   -2.212883    3.175652
  43 C     6.0000    0    12.011    5.745845   -1.129943   -0.055357
  44 C     6.0000    0    12.011    0.548786   -1.529684   -2.585141
  45 H     1.0000    0     1.008    0.862767    0.507676   -2.758270
  46 H     1.0000    0     1.008   -1.355619   -1.922582   -3.289036
  47 H     1.0000    0     1.008    1.898930   -2.480785   -3.833495
  48 H     1.0000    0     1.008    5.427314   -0.006709   -1.781419
  49 C     6.0000    0    12.011    6.669856   -3.749551   -0.843147
  50 C     6.0000    0    12.011    7.664443    0.299562    1.506399
  51 C     6.0000    0    12.011    9.730959   -0.666979    2.579432
  52 H     1.0000    0     1.008    7.238341    2.293084    1.789140
  53 H     1.0000    0     1.008   10.146453   -2.665243    2.307314
  54 C     6.0000    0    12.011   11.616680    0.732451    4.189608
  55 C     6.0000    0    12.011   10.867578    3.459652    4.772923
  56 C     6.0000    0    12.011   14.336601    0.561873    3.086447
  57 H     1.0000    0     1.008   11.701741   -0.286200    6.007566
  58 H     1.0000    0     1.008   15.553751    1.591728    4.422439
  59 C     6.0000    0    12.011   14.573940    1.828019    0.498157
  60 C     6.0000    0    12.011   15.294258   -2.165955    2.962951
  61 H     1.0000    0     1.008   10.659866    4.593681    3.054599
  62 H     1.0000    0     1.008   12.309345    4.358406    5.955548
  63 H     1.0000    0     1.008    9.065684    3.531401    5.789243
  64 H     1.0000    0     1.008   14.042267    3.825950    0.559951
  65 H     1.0000    0     1.008   13.354785    0.885524   -0.887566
  66 H     1.0000    0     1.008   16.525109    1.715206   -0.185576
  67 H     1.0000    0     1.008   15.030777   -3.144436    4.770085
  68 H     1.0000    0     1.008   17.312953   -2.202080    2.504303
  69 H     1.0000    0     1.008   14.309974   -3.248805    1.496937
  70 H     1.0000    0     1.008    5.440392   -4.572870   -2.280807
  71 H     1.0000    0     1.008    6.723697   -5.049758    0.769161
  72 H     1.0000    0     1.008    8.577122   -3.638001   -1.640460

--------------------------------
INTERNAL COORDINATES (ANGSTROEM)
--------------------------------
 C      0   0   0     0.000000000000     0.00000000     0.00000000
 C      1   0   0     1.510539405054     0.00000000     0.00000000
 C      2   1   0     1.533776423121   110.48882851     0.00000000
 H      2   1   3     1.095907281771   110.71414430   237.84330391
 H      2   1   3     1.100194313816   109.83306285   118.74860256
 C      1   2   3     1.479763078686   114.00283215   306.28324330
 C      6   1   2     1.512946981364   114.51081757    49.41991385
 C      3   2   1     1.529383995850   110.14964842    56.83073064
 H      7   6   1     1.095183778389   110.21359270   189.04701887
 H      7   6   1     1.100724548542   108.25329495    72.40582654
 H      8   3   2     1.098586000426   108.26682858    64.38777813
 H      8   3   2     1.096180871306   109.51863055   181.34819485
 O      3   2   1     1.437178941397   110.72954836   292.75324477
 H      3   2   1     1.097032245434   109.45910792   177.22413843
 C      1   2   3     1.354400409739   121.10613751   123.18916802
 C      6   1   2     1.337643630381   123.07890524   231.32936705
 H     16   6   1     1.086795350017   121.36191886   359.04821348
 H     16   6   1     1.087534208300   120.96735809   178.45264539
 C     15   1   2     1.445027942645   126.24236352   185.24366307
 H     15   1   2     1.089345015716   116.21396442     3.07981268
 C     19  15   1     1.350261180664   126.34092299   185.78482387
 H     19  15   1     1.087646216359   115.79643613     6.62518466
 C     21  19  15     1.507313730511   125.62736851     2.39535882
 C     23  21  19     1.540712416978   111.45280914   124.83700558
 H     23  21  19     1.093218733044   112.35847553     1.28619126
 H     23  21  19     1.101636463761   107.91665104   243.42814561
 C     24  23  21     1.534421105532   112.66441377    51.31626853
 H     24  23  21     1.097366664733   109.02057834   289.17489056
 H     24  23  21     1.096922279815   109.13303339   173.21082066
 C     27  24  23     1.535117200128   111.88951042   306.11716586
 H     27  24  23     1.094735352758   108.87229354   182.56611998
 H     27  24  23     1.100537185372   109.16830490    66.10783316
 C     21  19  15     1.497971815823   122.91964224   180.61670418
 H     33  21  19     1.105565929020   106.31373760   126.87869047
 C     33  21  19     1.525009415398   121.09337026     4.35749259
 H     13   3   2     0.967703575967   107.69387218    42.55745376
 C     35  33  21     1.548798383126   103.57535136   196.80832914
 H     35  33  21     1.094975489158   112.12481842    74.89941323
 H     35  33  21     1.095607772725   110.78330953   315.23146280
 C     30  27  24     1.553837034684   116.12726740   166.03221178
 H     37  35  33     1.094419931520   111.69122233   248.99408871
 H     37  35  33     1.096754143122   110.50708158   130.40016961
 H     40  30  27     1.102178379547   106.57697583   320.60715742
 C     40  30  27     1.548500652417   118.95942706    80.82908962
 C     30  27  24     1.535195951450   111.19055895   294.16220159
 H     45  30  27     1.094692399511   111.62808182   186.50999015
 H     45  30  27     1.094334563003   111.36906407    66.52084411
 H     45  30  27     1.095521090660   110.72050027   306.41001993
 H     44  40  30     1.102722891207   106.81658251    62.68793213
 C     44  40  30     1.527916383712   113.54026361   303.53476286
 C     44  40  30     1.511964495323   108.46558787   177.24556687
 C     51  44  40     1.334123649011   126.24541174   113.46105200
 H     51  44  40     1.089081833633   114.87836636   295.18645399
 H     52  51  44     1.089609591029   118.76443278     1.29879274
 C     52  51  44     1.506716722886   126.52171404   181.58651459
 C     55  52  51     1.528126036161   113.99155288     5.59743470
 C     55  52  51     1.555819639763   111.83847080   237.62192820
 H     55  52  51     1.103668301418   106.25375281   123.43510212
 H     57  55  52     1.100755636497   105.75984587   181.49939083
 C     57  55  52     1.529926445682   112.73362434    63.61841022
 C     57  55  52     1.531271516182   112.14005912   298.36460442
 H     56  55  52     1.095000936751   112.07811326   299.70756299
 H     56  55  52     1.095416338928   110.16727618   179.62801221
 H     56  55  52     1.095393684454   110.96026804    59.94612199
 H     60  57  55     1.094543226164   112.03510623    58.23781755
 H     60  57  55     1.096669583289   110.55774041   297.79215753
 H     60  57  55     1.095701032941   110.43353747   178.34330920
 H     61  57  55     1.096377994347   111.46249511   310.11388797
 H     61  57  55     1.095638956399   110.40020795   190.08611283
 H     61  57  55     1.096122506109   111.45377559    70.93763705
 H     50  44  40     1.091735398180   111.19149252    68.08086251
 H     50  44  40     1.096428298176   111.42853636   307.66679694
 H     50  44  40     1.095513838227   110.55002543   187.51538129

---------------------------
INTERNAL COORDINATES (A.U.)
---------------------------
 C      0   0   0     0.000000000000     0.00000000     0.00000000
 C      1   0   0     2.854505790048     0.00000000     0.00000000
 C      2   1   0     2.898417390364   110.48882851     0.00000000
 H      2   1   3     2.070964630717   110.71414430   237.84330391
 H      2   1   3     2.079065947209   109.83306285   118.74860256
 C      1   2   3     2.796346961805   114.00283215   306.28324330
 C      6   1   2     2.859055449921   114.51081757    49.41991385
 C      3   2   1     2.890116905759   110.14964842    56.83073064
 H      7   6   1     2.069597407468   110.21359270   189.04701887
 H      7   6   1     2.080067945629   108.25329495    72.40582654
 H      8   3   2     2.076026675366   108.26682858    64.38777813
 H      8   3   2     2.071481640011   109.51863055   181.34819485
 O      3   2   1     2.715874604680   110.72954836   292.75324477
 H      3   2   1     2.073090503951   109.45910792   177.22413843
 C      1   2   3     2.559445850077   121.10613751   123.18916802
 C      6   1   2     2.527780126204   123.07890524   231.32936705
 H     16   6   1     2.053745575151   121.36191886   359.04821348
 H     16   6   1     2.055141814957   120.96735809   178.45264539
 C     15   1   2     2.730707067462   126.24236352   185.24366307
 H     15   1   2     2.058563745054   116.21396442     3.07981268
 C     19  15   1     2.551623840720   126.34092299   185.78482387
 H     19  15   1     2.055353479514   115.79643613     6.62518466
 C     21  19  15     2.848410148565   125.62736851     2.39535882
 C     23  21  19     2.911524519220   111.45280914   124.83700558
 H     23  21  19     2.065884009926   112.35847553     1.28619126
 H     23  21  19     2.081791215649   107.91665104   243.42814561
 C     24  23  21     2.899635663565   112.66441377    51.31626853
 H     24  23  21     2.073722464839   109.02057834   289.17489056
 H     24  23  21     2.072882699046   109.13303339   173.21082066
 C     27  24  23     2.900951091714   111.88951042   306.11716586
 H     27  24  23     2.068750005834   108.87229354   182.56611998
 H     27  24  23     2.079713880550   109.16830490    66.10783316
 C     21  19  15     2.830756488239   122.91964224   180.61670418
 H     33  21  19     2.089216828843   106.31373760   126.87869047
 C     33  21  19     2.881850146753   121.09337026     4.35749259
 H     13   3   2     1.828694737393   107.69387218    42.55745376
 C     35  33  21     2.926804780768   103.57535136   196.80832914
 H     35  33  21     2.069203797864   112.12481842    74.89941323
 H     35  33  21     2.070398640645   110.78330953   315.23146280
 C     30  27  24     2.936326452297   116.12726740   166.03221178
 H     37  35  33     2.068153946077   111.69122233   248.99408871
 H     37  35  33     2.072564966744   110.50708158   130.40016961
 H     40  30  27     2.082815288073   106.57697583   320.60715742
 C     40  30  27     2.926242151266   118.95942706    80.82908962
 C     30  27  24     2.901099910145   111.19055895   294.16220159
 H     45  30  27     2.068668835960   111.62808182   186.50999015
 H     45  30  27     2.067992622961   111.36906407    66.52084411
 H     45  30  27     2.070234835282   110.72050027   306.41001993
 H     44  40  30     2.083844265987   106.81658251    62.68793213
 C     44  40  30     2.887343520748   113.54026361   303.53476286
 C     44  40  30     2.857198820373   108.46558787   177.24556687
 C     51  44  40     2.521128325419   126.24541174   113.46105200
 H     51  44  40     2.058066402996   114.87836636   295.18645399
 H     52  51  44     2.059063719938   118.76443278     1.29879274
 C     52  51  44     2.847281967653   126.52171404   181.58651459
 C     55  52  51     2.887739706460   113.99155288     5.59743470
 C     55  52  51     2.940073032928   111.83847080   237.62192820
 H     55  52  51     2.085630832370   106.25375281   123.43510212
 H     57  55  52     2.080126693350   105.75984587   181.49939083
 C     57  55  52     2.891141987382   112.73362434    63.61841022
 C     57  55  52     2.893683802259   112.14005912   298.36460442
 H     56  55  52     2.069251886847   112.07811326   299.70756299
 H     56  55  52     2.070036883197   110.16727618   179.62801221
 H     56  55  52     2.069994072444   110.96026804    59.94612199
 H     60  57  55     2.068386939188   112.03510623    58.23781755
 H     60  57  55     2.072405171818   110.55774041   297.79215753
 H     60  57  55     2.070574876913   110.43353747   178.34330920
 H     61  57  55     2.071854148574   111.46249511   310.11388797
 H     61  57  55     2.070457569249   110.40020795   190.08611283
 H     61  57  55     2.071371345773   111.45377559    70.93763705
 H     50  44  40     2.063080913267   111.19149252    68.08086251
 H     50  44  40     2.071949209034   111.42853636   307.66679694
 H     50  44  40     2.070221130169   110.55002543   187.51538129

---------------------
BASIS SET INFORMATION
---------------------
There are 3 groups of distinct atoms

 Group   1 Type C   : 7s4p contracted to 4s3p pattern {4111/211}
 Group   2 Type H   : 5s contracted to 3s pattern {311}
 Group   3 Type O   : 7s4p contracted to 4s3p pattern {4111/211}

Atom   0C    basis set group =>   1
Atom   1C    basis set group =>   1
Atom   2C    basis set group =>   1
Atom   3H    basis set group =>   2
Atom   4H    basis set group =>   2
Atom   5C    basis set group =>   1
Atom   6C    basis set group =>   1
Atom   7C    basis set group =>   1
Atom   8H    basis set group =>   2
Atom   9H    basis set group =>   2
Atom  10H    basis set group =>   2
Atom  11H    basis set group =>   2
Atom  12O    basis set group =>   3
Atom  13H    basis set group =>   2
Atom  14C    basis set group =>   1
Atom  15C    basis set group =>   1
Atom  16H    basis set group =>   2
Atom  17H    basis set group =>   2
Atom  18C    basis set group =>   1
Atom  19H    basis set group =>   2
Atom  20C    basis set group =>   1
Atom  21H    basis set group =>   2
Atom  22C    basis set group =>   1
Atom  23C    basis set group =>   1
Atom  24H    basis set group =>   2
Atom  25H    basis set group =>   2
Atom  26C    basis set group =>   1
Atom  27H    basis set group =>   2
Atom  28H    basis set group =>   2
Atom  29C    basis set group =>   1
Atom  30H    basis set group =>   2
Atom  31H    basis set group =>   2
Atom  32C    basis set group =>   1
Atom  33H    basis set group =>   2
Atom  34C    basis set group =>   1
Atom  35H    basis set group =>   2
Atom  36C    basis set group =>   1
Atom  37H    basis set group =>   2
Atom  38H    basis set group =>   2
Atom  39C    basis set group =>   1
Atom  40H    basis set group =>   2
Atom  41H    basis set group =>   2
Atom  42H    basis set group =>   2
Atom  43C    basis set group =>   1
Atom  44C    basis set group =>   1
Atom  45H    basis set group =>   2
Atom  46H    basis set group =>   2
Atom  47H    basis set group =>   2
Atom  48H    basis set group =>   2
Atom  49C    basis set group =>   1
Atom  50C    basis set group =>   1
Atom  51C    basis set group =>   1
Atom  52H    basis set group =>   2
Atom  53H    basis set group =>   2
Atom  54C    basis set group =>   1
Atom  55C    basis set group =>   1
Atom  56C    basis set group =>   1
Atom  57H    basis set group =>   2
Atom  58H    basis set group =>   2
Atom  59C    basis set group =>   1
Atom  60C    basis set group =>   1
Atom  61H    basis set group =>   2
Atom  62H    basis set group =>   2
Atom  63H    basis set group =>   2
Atom  64H    basis set group =>   2
Atom  65H    basis set group =>   2
Atom  66H    basis set group =>   2
Atom  67H    basis set group =>   2
Atom  68H    basis set group =>   2
Atom  69H    basis set group =>   2
Atom  70H    basis set group =>   2
Atom  71H    basis set group =>   2
Atom  72H    basis set group =>   2

-------------------------
BASIS SET IN INPUT FORMAT
-------------------------

 # Basis set for element : H 
 NewGTO H 
 S 3 
   1    1357.7500000000      0.0012928364
   2      54.3100000000      0.0588280685
   3       4.3448000000      0.9761499708
 S 1 
   1       0.6604910000      1.0000000000
 S 1 
   1       0.1366870000      1.0000000000
  end;

 # Basis set for element : C 
 NewGTO C 
 S 4 
   1  139534.0000000000      0.0001655246
   2    5581.3600000000      0.0074486101
   3     446.5090000000      0.1285821065
   4      67.4620000000      0.9218029311
 S 1 
   1      15.0674000000      1.0000000000
 S 1 
   1       3.9387600000      1.0000000000
 S 1 
   1       0.2999150000      1.0000000000
 P 2 
   1      28.3900000000      0.0816325586
   2       4.3676900000      0.9660360576
 P 1 
   1       0.8698170000      1.0000000000
 P 1 
   1       0.1889340000      1.0000000000
  end;

 # Basis set for element : O 
 NewGTO O 
 S 4 
   1  253789.0000000000      0.0001641076
   2   10151.6000000000      0.0074010921
   3     812.1250000000      0.1277711901
   4     122.6930000000      0.9223372164
 S 1 
   1      27.5608000000      1.0000000000
 S 1 
   1       7.3172600000      1.0000000000
 S 1 
   1       0.5792400000      1.0000000000
 P 2 
   1      53.4157000000      0.0793786106
   2       8.2177900000      0.9670506337
 P 1 
   1       1.6754400000      1.0000000000
 P 1 
   1       0.3506720000      1.0000000000
  end;

---------------------------------
AUXILIARY/J BASIS SET INFORMATION
---------------------------------
There are 3 groups of distinct atoms

 Group   1 Type C   : 12s5p4d2f1g contracted to 6s4p3d1f1g pattern {711111/2111/211/2/1}
 Group   2 Type H   : 5s2p1d contracted to 3s1p1d pattern {311/2/1}
 Group   3 Type O   : 12s5p4d2f1g contracted to 6s4p3d1f1g pattern {711111/2111/211/2/1}

Atom   0C    basis set group =>   1
Atom   1C    basis set group =>   1
Atom   2C    basis set group =>   1
Atom   3H    basis set group =>   2
Atom   4H    basis set group =>   2
Atom   5C    basis set group =>   1
Atom   6C    basis set group =>   1
Atom   7C    basis set group =>   1
Atom   8H    basis set group =>   2
Atom   9H    basis set group =>   2
Atom  10H    basis set group =>   2
Atom  11H    basis set group =>   2
Atom  12O    basis set group =>   3
Atom  13H    basis set group =>   2
Atom  14C    basis set group =>   1
Atom  15C    basis set group =>   1
Atom  16H    basis set group =>   2
Atom  17H    basis set group =>   2
Atom  18C    basis set group =>   1
Atom  19H    basis set group =>   2
Atom  20C    basis set group =>   1
Atom  21H    basis set group =>   2
Atom  22C    basis set group =>   1
Atom  23C    basis set group =>   1
Atom  24H    basis set group =>   2
Atom  25H    basis set group =>   2
Atom  26C    basis set group =>   1
Atom  27H    basis set group =>   2
Atom  28H    basis set group =>   2
Atom  29C    basis set group =>   1
Atom  30H    basis set group =>   2
Atom  31H    basis set group =>   2
Atom  32C    basis set group =>   1
Atom  33H    basis set group =>   2
Atom  34C    basis set group =>   1
Atom  35H    basis set group =>   2
Atom  36C    basis set group =>   1
Atom  37H    basis set group =>   2
Atom  38H    basis set group =>   2
Atom  39C    basis set group =>   1
Atom  40H    basis set group =>   2
Atom  41H    basis set group =>   2
Atom  42H    basis set group =>   2
Atom  43C    basis set group =>   1
Atom  44C    basis set group =>   1
Atom  45H    basis set group =>   2
Atom  46H    basis set group =>   2
Atom  47H    basis set group =>   2
Atom  48H    basis set group =>   2
Atom  49C    basis set group =>   1
Atom  50C    basis set group =>   1
Atom  51C    basis set group =>   1
Atom  52H    basis set group =>   2
Atom  53H    basis set group =>   2
Atom  54C    basis set group =>   1
Atom  55C    basis set group =>   1
Atom  56C    basis set group =>   1
Atom  57H    basis set group =>   2
Atom  58H    basis set group =>   2
Atom  59C    basis set group =>   1
Atom  60C    basis set group =>   1
Atom  61H    basis set group =>   2
Atom  62H    basis set group =>   2
Atom  63H    basis set group =>   2
Atom  64H    basis set group =>   2
Atom  65H    basis set group =>   2
Atom  66H    basis set group =>   2
Atom  67H    basis set group =>   2
Atom  68H    basis set group =>   2
Atom  69H    basis set group =>   2
Atom  70H    basis set group =>   2
Atom  71H    basis set group =>   2
Atom  72H    basis set group =>   2

-------------------------------------
AUXILIARY/J BASIS SET IN INPUT FORMAT
-------------------------------------

 # Auxiliary/J basis set for element : H 
 NewAuxJGTO H 
 S 3 
   1      15.6752927000      0.1007184237
   2       3.6063578000      0.3404257499
   3       1.2080016000      0.6491996172
 S 1 
   1       0.4726794000      1.0000000000
 S 1 
   1       0.2018100000      1.0000000000
 P 2 
   1       2.0281365000      0.5596620919
   2       0.5358730000      0.5596620919
 D 1 
   1       2.2165124000      1.0000000000
  end;

 # Auxiliary/J basis set for element : C 
 NewAuxJGTO C 
 S 7 
   1    1861.0916331000      0.0134602335
   2     642.9939764000      0.0299160374
   3     235.1105725000      0.1008649584
   4      90.7028894000      0.2370970548
   5      36.7794552000      0.3924037254
   6      15.6046273000      0.3195862154
   7       6.8907294000      0.0530104441
 S 1 
   1       3.1478850000     -1.0000000000
 S 1 
   1       1.4777287000      1.0000000000
 S 1 
   1       0.7076466000      1.0000000000
 S 1 
   1       0.3430122000      1.0000000000
 S 1 
   1       0.1669453000      1.0000000000
 P 2 
   1      13.5472892000     -0.6769313712
   2       5.4669419000     -0.3779500978
 P 1 
   1       2.1751721000      1.0000000000
 P 1 
   1       0.8582194000      1.0000000000
 P 1 
   1       0.3376720000      1.0000000000
 D 2 
   1       5.9287253000     -0.3533329857
   2       1.9809209000     -0.7456525731
 D 1 
   1       0.8055417000     -1.0000000000
 D 1 
   1       0.3531244000     -1.0000000000
 F 2 
   1       1.6755626000      0.6311076882
   2       0.5997536000      0.4968166032
 G 1 
   1       1.0024600000     -1.0000000000
  end;

 # Auxiliary/J basis set for element : O 
 NewAuxJGTO O 
 S 7 
   1    2876.8216605000      0.0168151159
   2    1004.7443032000      0.0340137548
   3     369.7579954000      0.1194951309
   4     142.9442404000      0.2664627624
   5      57.8366425000      0.4202764046
   6      24.3864983000      0.2765077335
   7      10.6622662000      0.0057008815
 S 1 
   1       4.8070437000     -1.0000000000
 S 1 
   1       2.2210770000      1.0000000000
 S 1 
   1       1.0447795000      1.0000000000
 S 1 
   1       0.4968425000      1.0000000000
 S 1 
   1       0.2371384000      1.0000000000
 P 2 
   1      64.2613382000     -0.2731534179
   2      16.3006076000     -0.8168011598
 P 1 
   1       4.3550542000      1.0000000000
 P 1 
   1       1.2019554000      1.0000000000
 P 1 
   1       0.3354196000      1.0000000000
 D 2 
   1       9.2146611000     -0.4661230638
   2       2.8435251000     -0.6600908911
 D 1 
   1       0.9955759000     -1.0000000000
 D 1 
   1       0.3649441000     -1.0000000000
 F 2 
   1       2.6420115000      0.5931563945
   2       0.7345613000      0.5931563945
 G 1 
   1       1.3931000000     -1.0000000000
  end;



           ************************************************************
           *        Program running with 4 parallel MPI-processes     *
           *              working on a common directory               *
           ************************************************************
------------------------------------------------------------------------------
                           ORCA GTO INTEGRAL CALCULATION
                           -- RI-GTO INTEGRALS CHOSEN --
------------------------------------------------------------------------------
------------------------------------------------------------------------------
                   ___                                                        
                  /   \      - P O W E R E D   B Y -                         
                 /     \                                                     
                 |  |  |   _    _      __       _____    __    __             
                 |  |  |  | |  | |    /  \     |  _  \  |  |  /  |          
                  \  \/   | |  | |   /    \    | | | |  |  | /  /          
                 / \  \   | |__| |  /  /\  \   | |_| |  |  |/  /          
                |  |  |   |  __  | /  /__\  \  |    /   |      \           
                |  |  |   | |  | | |   __   |  |    \   |  |\   \          
                \     /   | |  | | |  |  |  |  | |\  \  |  | \   \       
                 \___/    |_|  |_| |__|  |__|  |_| \__\ |__|  \__/        
                                                                              
                      - O R C A' S   B I G   F R I E N D -                    
                                      &                                       
                       - I N T E G R A L  F E E D E R -                       
                                                                              
 v1 FN, 2020, v2 2021                                                         
------------------------------------------------------------------------------


Reading SHARK input file inpJ.SHARKINP.tmp ... ok
----------------------
SHARK INTEGRAL PACKAGE
----------------------

Number of atoms                             ...     73
Number of basis functions                   ...    509
Number of shells                            ...    335
Maximum angular momentum                    ...      1
Integral batch strategy                     ... SHARK/LIBINT Hybrid
RI-J (if used) integral strategy            ... SPLIT-RIJ (Revised 2003 algorithm where possible)
Printlevel                                  ...      1
Contraction scheme used                     ... SEGMENTED contraction
Coulomb Range Separation                    ... NOT USED
Exchange Range Separation                   ... NOT USED
Finite Nucleus Model                        ... NOT USED
Auxiliary Coulomb fitting basis             ... AVAILABLE
   # of basis functions in Aux-J            ...   1905
   # of shells in Aux-J                     ...    655
   Maximum angular momentum in Aux-J        ...      4
Auxiliary J/K fitting basis                 ... NOT available
Auxiliary Correlation fitting basis         ... NOT available
Auxiliary 'external' fitting basis          ... NOT available
Integral threshold                          ...     3.000000e-11
Primitive cut-off                           ...     1.000000e-12
Primitive pair pre-selection threshold      ...     1.000000e-12

Calculating pre-screening integrals         ... done (  0.0 sec) Dimension = 335
Organizing shell pair data                  ... done (  0.1 sec)
Shell pair information
Total number of shell pairs                 ...     56280
Shell pairs after pre-screening             ...     21749
Total number of primitive shell pairs       ...    145865
Primitive shell pairs kept                  ...     37404
          la=0 lb=0:  10933 shell pairs
          la=1 lb=0:   8956 shell pairs
          la=1 lb=1:   1860 shell pairs

Calculating one electron integrals          ... done (  0.0 sec)
Calculating RI/J V-Matrix + Cholesky decomp.... done (  0.2 sec)
Calculating Nuclear repulsion               ... done (  0.0 sec) ENN=   2776.524158385734 Eh

SHARK setup successfully completed in   0.4 seconds

Maximum memory used throughout the entire GTOINT-calculation: 46.2 MB


           ************************************************************
           *        Program running with 4 parallel MPI-processes     *
           *              working on a common directory               *
           ************************************************************
-------------------------------------------------------------------------------
                                 ORCA SCF
-------------------------------------------------------------------------------

------------
SCF SETTINGS
------------
Hamiltonian:
 Density Functional     Method          .... DFT(GTOs)
 Exchange Functional    Exchange        .... PBE
   PBE kappa parameter   XKappa         ....  0.804000
   PBE mue parameter    XMuePBE         ....  0.219520
 Correlation Functional Correlation     .... PBE
   PBE beta parameter  CBetaPBE         ....  0.066725
 LDA part of GGA corr.  LDAOpt          .... PW91-LDA
 Gradients option       PostSCFGGA      .... off
 Hybrid DFT is turned on
   Fraction HF Exchange ScalHFX         ....  0.250000
   Scaling of DF-GGA-X  ScalDFX         ....  0.750000
   Scaling of DF-GGA-C  ScalDFC         ....  1.000000
   Scaling of DF-LDA-C  ScalLDAC        ....  1.000000
   Perturbative correction              ....  0.000000
   Density functional embedding theory  .... OFF
   NL short-range parameter             ....  6.900000
 RI-approximation to the Coulomb term is turned on
   Number of AuxJ basis functions       .... 1905
   RIJ-COSX (HFX calculated with COS-X)).... on


General Settings:
 Integral files         IntName         .... inpJ
 Hartree-Fock type      HFTyp           .... RHF
 Total Charge           Charge          ....    0
 Multiplicity           Mult            ....    1
 Number of Electrons    NEL             ....  220
 Basis Dimension        Dim             ....  509
 Nuclear Repulsion      ENuc            ....   2776.5241583857 Eh

Convergence Acceleration:
 DIIS                   CNVDIIS         .... on
   Start iteration      DIISMaxIt       ....    12
   Startup error        DIISStart       ....  0.200000
   # of expansion vecs  DIISMaxEq       ....     5
   Bias factor          DIISBfac        ....   1.050
   Max. coefficient     DIISMaxC        ....  10.000
 Trust-Rad. Augm. Hess. CNVTRAH         .... auto
   Auto Start mean grad. ratio tolernc. ....  1.125000
   Auto Start start iteration           ....    20
   Auto Start num. interpolation iter.  ....    10
   Max. Number of Micro iterations      ....    16
   Max. Number of Macro iterations      .... Maxiter - #DIIS iter
   Number of Davidson start vectors     ....     2
   Converg. threshold I  (grad. norm)   ....   1.000e-04
   Converg. threshold II (energy diff.) ....   1.000e-07
   Grad. Scal. Fac. for Micro threshold ....   0.100
   Minimum threshold for Micro iter.    ....   0.010
   NR start threshold (gradient norm)   ....   0.001
   Initial trust radius                 ....   0.400
   Minimum AH scaling param. (alpha)    ....   1.000
   Maximum AH scaling param. (alpha)    .... 1000.000
   Orbital update algorithm             .... Taylor
   White noise on init. David. guess    .... on
   Maximum white noise                  ....   0.010
   Quad. conv. algorithm                .... NR
 SOSCF                  CNVSOSCF        .... off
 Level Shifting         CNVShift        .... on
   Level shift para.    LevelShift      ....    0.2500
   Turn off err/grad.   ShiftErr        ....    0.0010
 Zerner damping         CNVZerner       .... off
 Static damping         CNVDamp         .... on
   Fraction old density DampFac         ....    0.7000
   Max. Damping (<1)    DampMax         ....    0.9800
   Min. Damping (>=0)   DampMin         ....    0.0000
   Turn off err/grad.   DampErr         ....    0.1000
 Fernandez-Rico         CNVRico         .... off

SCF Procedure:
 Maximum # iterations   MaxIter         ....   125
 SCF integral mode      SCFMode         .... Direct
   Integral package                     .... SHARK and LIBINT hybrid scheme
 Reset frequency        DirectResetFreq ....    20
 Integral Threshold     Thresh          ....  3.000e-11 Eh
 Primitive CutOff       TCut            ....  1.000e-12 Eh

Convergence Tolerance:
 Convergence Check Mode ConvCheckMode   .... Total+1el-Energy
 Convergence forced     ConvForced      .... 0
 Energy Change          TolE            ....  1.000e-07 Eh
 1-El. energy change                    ....  1.000e-04 Eh
 DIIS Error             TolErr          ....  1.000e-07


Diagonalization of the overlap matrix:
Smallest eigenvalue                        ... 7.571e-03
Time for diagonalization                   ...    0.028 sec
Threshold for overlap eigenvalues          ... 1.000e-08
Number of eigenvalues below threshold      ... 0
Time for construction of square roots      ...    0.028 sec
Total time needed                          ...    0.058 sec

Time for model grid setup =    0.707 sec

------------------------------
INITIAL GUESS: MODEL POTENTIAL
------------------------------
Loading Hartree-Fock densities                     ... done
Calculating cut-offs                               ... done
Initializing the effective Hamiltonian             ... done
Setting up the integral package (SHARK)            ... done
Starting the Coulomb interaction                   ... done (   0.3 sec)
Reading the grid                                   ... done
Mapping shells                                     ... done
Starting the XC term evaluation                    ... done (   0.1 sec)
  promolecular density results
     # of electrons  =    219.971166363
     EX              =   -164.432685182
     EC              =     -7.328699115
     EX+EC           =   -171.761384297
Transforming the Hamiltonian                       ... done (   0.0 sec)
Diagonalizing the Hamiltonian                      ... done (   0.0 sec)
Back transforming the eigenvectors                 ... done (   0.0 sec)
Now organizing SCF variables                       ... done
                      ------------------
                      INITIAL GUESS DONE (   1.2 sec)
                      ------------------
-------------------
DFT GRID GENERATION
-------------------

General Integration Accuracy     IntAcc      ... 4.388
Radial Grid Type                 RadialGrid  ... OptM3 with GC (2021)
Angular Grid (max. ang.)         AngularGrid ... 4 (Lebedev-302)
Angular grid pruning method      GridPruning ... 4 (adaptive)
Weight generation scheme         WeightScheme... Becke
Basis function cutoff            BFCut       ... 1.0000e-11
Integration weight cutoff        WCut        ... 1.0000e-14
Angular grids for H and He will be reduced by one unit
Partially contracted basis set               ... off
Rotationally invariant grid construction     ... off

Total number of grid points                  ...   309816
Total number of batches                      ...     4881
Average number of points per batch           ...       63
Average number of grid points per atom       ...     4244
Time for grid setup =    2.753 sec

--------------------
COSX GRID GENERATION
--------------------

GRIDX 1
-------
General Integration Accuracy     IntAcc      ... 3.816
Radial Grid Type                 RadialGrid  ... OptM3 with GC (2021)
Angular Grid (max. ang.)         AngularGrid ... 1 (Lebedev-50)
Angular grid pruning method      GridPruning ... 4 (adaptive)
Weight generation scheme         WeightScheme... Becke
Basis function cutoff            BFCut       ... 1.0000e-11
Integration weight cutoff        WCut        ... 1.0000e-14
Angular grids for H and He will be reduced by one unit
Partially contracted basis set               ... on
Rotationally invariant grid construction     ... off

Total number of grid points                  ...    39395
Total number of batches                      ...      656
Average number of points per batch           ...       60
Average number of grid points per atom       ...      540
UseSFitting                                  ... on

GRIDX 2
-------
General Integration Accuracy     IntAcc      ... 4.020
Radial Grid Type                 RadialGrid  ... OptM3 with GC (2021)
Angular Grid (max. ang.)         AngularGrid ... 2 (Lebedev-110)
Angular grid pruning method      GridPruning ... 4 (adaptive)
Weight generation scheme         WeightScheme... Becke
Basis function cutoff            BFCut       ... 1.0000e-11
Integration weight cutoff        WCut        ... 1.0000e-14
Angular grids for H and He will be reduced by one unit
Partially contracted basis set               ... on
Rotationally invariant grid construction     ... off

Total number of grid points                  ...    81399
Total number of batches                      ...     1307
Average number of points per batch           ...       62
Average number of grid points per atom       ...     1115
UseSFitting                                  ... on

GRIDX 3
-------
General Integration Accuracy     IntAcc      ... 4.338
Radial Grid Type                 RadialGrid  ... OptM3 with GC (2021)
Angular Grid (max. ang.)         AngularGrid ... 3 (Lebedev-194)
Angular grid pruning method      GridPruning ... 4 (adaptive)
Weight generation scheme         WeightScheme... Becke
Basis function cutoff            BFCut       ... 1.0000e-11
Integration weight cutoff        WCut        ... 1.0000e-14
Angular grids for H and He will be reduced by one unit
Partially contracted basis set               ... on
Rotationally invariant grid construction     ... off

Total number of grid points                  ...   176216
Total number of batches                      ...     2794
Average number of points per batch           ...       63
Average number of grid points per atom       ...     2414
UseSFitting                                  ... on

Time for X-Grid setup             =    2.773 sec


--------------------
CPCM SOLVATION MODEL
--------------------
CPCM parameters:
  Epsilon                                         ...       4.9000
  Refrac                                          ...       1.4500
  Rsolv                                           ...       1.3000
  Surface type                                    ... GAUSSIAN VDW
  Epsilon function type                           ...         CPCM
Radii:
 Radius for C  used is    3.8550 Bohr (=   2.0400 Ang.)
 Radius for H  used is    2.4944 Bohr (=   1.3200 Ang.)
 Radius for O  used is    3.4469 Bohr (=   1.8240 Ang.)
Calculating surface                               ...        done! (  0.0s)
GEPOL surface points                              ...         3604
GEPOL Volume                                      ...    3587.7196
GEPOL Surface-area                                ...    1774.9288
Calculating surface distance matrix               ...        done! (  0.1s)
Performing Cholesky decomposition & store         ...        done! (  0.5s)
Overall time for CPCM initialization              ...                 0.6s
--------------
SCF ITERATIONS
--------------
ITER       Energy         Delta-E        Max-DP      RMS-DP      [F,P]     Damp
               ***  Starting incremental Fock matrix formation  ***

  HOMO= 109 E= -3.980 eV LUMO=  7.694 eV gap=  11.674 eV
  0  -1165.0090318058   0.000000000000 0.09737471  0.00106919  0.1971795 0.7000

  HOMO= 109 E= -4.846 eV LUMO=  7.010 eV gap=  11.856 eV
  1  -1165.2288149937  -0.219783187901 0.06533421  0.00078627  0.0954483 0.7000
                               ***Turning on DIIS***

  HOMO= 109 E= -5.444 eV LUMO=  6.462 eV gap=  11.906 eV
  2  -1165.3299535660  -0.101138572327 0.10322740  0.00139014  0.0375591 0.0000

  HOMO= 109 E= -6.001 eV LUMO=  5.933 eV gap=  11.934 eV
  3  -1165.4746316029  -0.144678036935 0.05138933  0.00057482  0.0461119 0.0000

  HOMO= 109 E= -6.071 eV LUMO=  5.862 eV gap=  11.933 eV
  4  -1165.5104003587  -0.035768755814 0.01164503  0.00013368  0.0060304 0.0000

  HOMO= 109 E= -6.021 eV LUMO=  5.920 eV gap=  11.940 eV
  5  -1165.5112533080  -0.000852949228 0.00251376  0.00003804  0.0051387 0.0000

  HOMO= 109 E= -6.006 eV LUMO=  5.934 eV gap=  11.941 eV
  6  -1165.5113325416  -0.000079233654 0.00118754  0.00001169  0.0010635 0.0000

  HOMO= 109 E= -6.009 eV LUMO= -0.871 eV gap=   5.138 eV
  7  -1165.5113375189  -0.000004977261 0.00050934  0.00000602  0.0002338 0.0000
               *** Restarting incremental Fock matrix formation ***
                                   *** Resetting DIIS ***

  HOMO= 109 E= -6.008 eV LUMO= -0.869 eV gap=   5.139 eV
  8  -1165.5114036269  -0.000066108024 0.00037564  0.00000283  0.0001183 0.0000

  HOMO= 109 E= -6.008 eV LUMO= -0.869 eV gap=   5.139 eV
  9  -1165.5114036691  -0.000000042194 0.00013416  0.00000130  0.0001542 0.0000

  HOMO= 109 E= -6.008 eV LUMO= -0.869 eV gap=   5.139 eV
 10  -1165.5114037935  -0.000000124405 0.00006291  0.00000039  0.0000305 0.0000

  HOMO= 109 E= -6.008 eV LUMO= -0.869 eV gap=   5.139 eV
 11  -1165.5114038230  -0.000000029493 0.00002523  0.00000017  0.0000180 0.0000

  HOMO= 109 E= -6.008 eV LUMO= -0.869 eV gap=   5.139 eV
 12  -1165.5114038185   0.000000004500 0.00000697  0.00000005  0.0000032 0.0000
                 **** Energy Check signals convergence ****

               *****************************************************
               *                     SUCCESS                       *
               *           SCF CONVERGED AFTER  13 CYCLES          *
               *****************************************************

Old exchange energy                            =    -42.068130153 Eh
New exchange energy                            =    -42.068169401 Eh
Exchange energy change after final integration =     -0.000039248 Eh
Total energy after final integration           =  -1165.511443067 Eh
Final COS-X integration done in                =    13.970 sec

----------------
TOTAL SCF ENERGY
----------------

Total Energy       :        -1165.51144307 Eh          -31715.17873 eV

Components:
Nuclear Repulsion  :         2776.52415839 Eh           75553.06339 eV
Electronic Energy  :        -3942.03560145 Eh         -107268.24213 eV
One Electron Energy:        -7094.77759047 Eh         -193058.71315 eV
Two Electron Energy:         3152.74198902 Eh           85790.47102 eV
Max COSX asymmetry :            0.00000294 Eh               0.00008 eV
CPCM Dielectric    :           -0.01351728 Eh              -0.36782 eV

Virial components:
Potential Energy   :        -2322.40515895 Eh          -63195.85719 eV
Kinetic Energy     :         1156.89371588 Eh           31480.67846 eV
Virial Ratio       :            2.00744902


DFT components:
N(Alpha)           :      109.999970098823 electrons
N(Beta)            :      109.999970098823 electrons
N(Total)           :      219.999940197646 electrons
E(X)               :     -125.746701722917 Eh       
E(C)               :       -7.329115222156 Eh       
E(XC)              :     -133.075816945073 Eh       
DFET-embed. en.    :        0.000000000000 Eh       
CPCM Solvation Model Properties:
Surface-charge          :           -0.03449527
Charge-correction       :           -0.00008211 Eh              -0.00223 eV
Free-energy (cav+disp)  :  This term is not implemented in the current solvation scheme

---------------
SCF CONVERGENCE
---------------

  Last Energy change         ...   -7.4351e-11  Tolerance :   1.0000e-07
  Last MAX-Density change    ...    0.0000e+00  Tolerance :   1.0000e-05
  Last RMS-Density change    ...    0.0000e+00  Tolerance :   1.0000e-06
  Last DIIS Error            ...    2.1613e-06  Tolerance :   1.0000e-07

             **** THE GBW FILE WAS UPDATED (inpJ.gbw) ****
             **** DENSITY inpJ.scfp WAS UPDATED ****
             **** ENERGY FILE WAS UPDATED (inpJ.en.tmp) ****
             **** THE GBW FILE WAS UPDATED (inpJ.gbw) ****
             **** DENSITY inpJ.scfp WAS UPDATED ****
----------------
ORBITAL ENERGIES
----------------

  NO   OCC          E(Eh)            E(eV) 
   0   2.0000     -19.212488      -522.7984 
   1   2.0000     -10.300424      -280.2888 
   2   2.0000     -10.270539      -279.4756 
   3   2.0000     -10.268314      -279.4150 
   4   2.0000     -10.263920      -279.2955 
   5   2.0000     -10.257429      -279.1188 
   6   2.0000     -10.257384      -279.1176 
   7   2.0000     -10.251913      -278.9687 
   8   2.0000     -10.250752      -278.9372 
   9   2.0000     -10.249101      -278.8922 
  10   2.0000     -10.248183      -278.8672 
  11   2.0000     -10.247561      -278.8503 
  12   2.0000     -10.246780      -278.8291 
  13   2.0000     -10.246610      -278.8244 
  14   2.0000     -10.244840      -278.7763 
  15   2.0000     -10.242843      -278.7219 
  16   2.0000     -10.241888      -278.6959 
  17   2.0000     -10.241771      -278.6927 
  18   2.0000     -10.241478      -278.6848 
  19   2.0000     -10.241051      -278.6732 
  20   2.0000     -10.240074      -278.6466 
  21   2.0000     -10.235729      -278.5283 
  22   2.0000     -10.235341      -278.5178 
  23   2.0000     -10.234122      -278.4846 
  24   2.0000     -10.225092      -278.2389 
  25   2.0000     -10.224967      -278.2355 
  26   2.0000     -10.224280      -278.2168 
  27   2.0000     -10.222034      -278.1557 
  28   2.0000     -10.221249      -278.1343 
  29   2.0000      -1.043259       -28.3885 
  30   2.0000      -0.901937       -24.5430 
  31   2.0000      -0.882117       -24.0036 
  32   2.0000      -0.859847       -23.3976 
  33   2.0000      -0.846321       -23.0296 
  34   2.0000      -0.822416       -22.3791 
  35   2.0000      -0.814705       -22.1692 
  36   2.0000      -0.795978       -21.6597 
  37   2.0000      -0.795163       -21.6375 
  38   2.0000      -0.776089       -21.1184 
  39   2.0000      -0.758763       -20.6470 
  40   2.0000      -0.741658       -20.1815 
  41   2.0000      -0.730911       -19.8891 
  42   2.0000      -0.715402       -19.4671 
  43   2.0000      -0.703039       -19.1307 
  44   2.0000      -0.702848       -19.1255 
  45   2.0000      -0.696396       -18.9499 
  46   2.0000      -0.671197       -18.2642 
  47   2.0000      -0.665512       -18.1095 
  48   2.0000      -0.636502       -17.3201 
  49   2.0000      -0.622513       -16.9394 
  50   2.0000      -0.613694       -16.6995 
  51   2.0000      -0.607306       -16.5256 
  52   2.0000      -0.597702       -16.2643 
  53   2.0000      -0.582302       -15.8452 
  54   2.0000      -0.556693       -15.1484 
  55   2.0000      -0.541176       -14.7261 
  56   2.0000      -0.531299       -14.4574 
  57   2.0000      -0.529248       -14.4016 
  58   2.0000      -0.515278       -14.0214 
  59   2.0000      -0.509742       -13.8708 
  60   2.0000      -0.502718       -13.6797 
  61   2.0000      -0.493330       -13.4242 
  62   2.0000      -0.482577       -13.1316 
  63   2.0000      -0.481189       -13.0938 
  64   2.0000      -0.475176       -12.9302 
  65   2.0000      -0.467646       -12.7253 
  66   2.0000      -0.465195       -12.6586 
  67   2.0000      -0.461989       -12.5714 
  68   2.0000      -0.459420       -12.5015 
  69   2.0000      -0.453308       -12.3351 
  70   2.0000      -0.450612       -12.2618 
  71   2.0000      -0.444276       -12.0894 
  72   2.0000      -0.436991       -11.8911 
  73   2.0000      -0.434585       -11.8257 
  74   2.0000      -0.430289       -11.7088 
  75   2.0000      -0.427845       -11.6423 
  76   2.0000      -0.419867       -11.4252 
  77   2.0000      -0.414650       -11.2832 
  78   2.0000      -0.413091       -11.2408 
  79   2.0000      -0.403810       -10.9882 
  80   2.0000      -0.399926       -10.8825 
  81   2.0000      -0.397391       -10.8136 
  82   2.0000      -0.395431       -10.7602 
  83   2.0000      -0.388513       -10.5720 
  84   2.0000      -0.381793       -10.3891 
  85   2.0000      -0.376991       -10.2584 
  86   2.0000      -0.374595       -10.1933 
  87   2.0000      -0.370901       -10.0927 
  88   2.0000      -0.368178       -10.0186 
  89   2.0000      -0.364308        -9.9133 
  90   2.0000      -0.360897        -9.8205 
  91   2.0000      -0.358642        -9.7591 
  92   2.0000      -0.352946        -9.6042 
  93   2.0000      -0.345844        -9.4109 
  94   2.0000      -0.342380        -9.3166 
  95   2.0000      -0.339548        -9.2396 
  96   2.0000      -0.338092        -9.1999 
  97   2.0000      -0.334475        -9.1015 
  98   2.0000      -0.332800        -9.0559 
  99   2.0000      -0.330483        -8.9929 
 100   2.0000      -0.324674        -8.8348 
 101   2.0000      -0.323988        -8.8162 
 102   2.0000      -0.319985        -8.7072 
 103   2.0000      -0.319093        -8.6830 
 104   2.0000      -0.311194        -8.4680 
 105   2.0000      -0.301639        -8.2080 
 106   2.0000      -0.276759        -7.5310 
 107   2.0000      -0.275228        -7.4893 
 108   2.0000      -0.254801        -6.9335 
 109   2.0000      -0.220796        -6.0082 
 110   0.0000      -0.031948        -0.8693 
 111   0.0000       0.019453         0.5293 
 112   0.0000       0.030180         0.8212 
 113   0.0000       0.081957         2.2302 
 114   0.0000       0.092298         2.5116 
 115   0.0000       0.099259         2.7010 
 116   0.0000       0.103858         2.8261 
 117   0.0000       0.106345         2.8938 
 118   0.0000       0.108977         2.9654 
 119   0.0000       0.112893         3.0720 
 120   0.0000       0.117365         3.1937 
 121   0.0000       0.121076         3.2946 
 122   0.0000       0.123030         3.3478 
 123   0.0000       0.126918         3.4536 
 124   0.0000       0.132996         3.6190 
 125   0.0000       0.136052         3.7022 
 126   0.0000       0.139938         3.8079 
 127   0.0000       0.140663         3.8276 
 128   0.0000       0.143684         3.9098 
 129   0.0000       0.150908         4.1064 
 130   0.0000       0.152830         4.1587 
 131   0.0000       0.153537         4.1780 
 132   0.0000       0.160023         4.3545 
 133   0.0000       0.165242         4.4965 
 134   0.0000       0.166261         4.5242 
 135   0.0000       0.169120         4.6020 
 136   0.0000       0.174104         4.7376 
 137   0.0000       0.175751         4.7824 
 138   0.0000       0.177235         4.8228 
 139   0.0000       0.179484         4.8840 
 140   0.0000       0.182716         4.9719 
 141   0.0000       0.185982         5.0608 
 142   0.0000       0.188798         5.1375 
 143   0.0000       0.194220         5.2850 
 144   0.0000       0.196101         5.3362 
 145   0.0000       0.200283         5.4500 
 146   0.0000       0.201332         5.4785 
 147   0.0000       0.204363         5.5610 
 148   0.0000       0.207191         5.6380 
 149   0.0000       0.212694         5.7877 
 150   0.0000       0.214511         5.8371 
 151   0.0000       0.219031         5.9601 
 152   0.0000       0.222078         6.0431 
 153   0.0000       0.228682         6.2227 
 154   0.0000       0.231903         6.3104 
 155   0.0000       0.233232         6.3466 
 156   0.0000       0.240337         6.5399 
 157   0.0000       0.245614         6.6835 
 158   0.0000       0.247987         6.7481 
 159   0.0000       0.249172         6.7803 
 160   0.0000       0.254423         6.9232 
 161   0.0000       0.257041         6.9944 
 162   0.0000       0.262504         7.1431 
 163   0.0000       0.267144         7.2694 
 164   0.0000       0.269330         7.3288 
 165   0.0000       0.274693         7.4748 
 166   0.0000       0.275900         7.5076 
 167   0.0000       0.278839         7.5876 
 168   0.0000       0.282606         7.6901 
 169   0.0000       0.289199         7.8695 
 170   0.0000       0.294091         8.0026 
 171   0.0000       0.298633         8.1262 
 172   0.0000       0.302981         8.2445 
 173   0.0000       0.306802         8.3485 
 174   0.0000       0.308449         8.3933 
 175   0.0000       0.318941         8.6788 
 176   0.0000       0.319667         8.6986 
 177   0.0000       0.336377         9.1533 
 178   0.0000       0.349038         9.4978 
 179   0.0000       0.355337         9.6692 
 180   0.0000       0.363395         9.8885 
 181   0.0000       0.379151        10.3172 
 182   0.0000       0.381562        10.3828 
 183   0.0000       0.411571        11.1994 
 184   0.0000       0.422109        11.4862 
 185   0.0000       0.462963        12.5979 
 186   0.0000       0.482288        13.1237 
 187   0.0000       0.490672        13.3519 
 188   0.0000       0.503590        13.7034 
 189   0.0000       0.516912        14.0659 
 190   0.0000       0.520868        14.1735 
 191   0.0000       0.525344        14.2953 
 192   0.0000       0.546002        14.8575 
 193   0.0000       0.559460        15.2237 
 194   0.0000       0.569711        15.5026 
 195   0.0000       0.573068        15.5940 
 196   0.0000       0.578101        15.7309 
 197   0.0000       0.579264        15.7626 
 198   0.0000       0.590758        16.0753 
 199   0.0000       0.599176        16.3044 
 200   0.0000       0.617031        16.7903 
 201   0.0000       0.628329        17.0977 
 202   0.0000       0.630264        17.1504 
 203   0.0000       0.645579        17.5671 
 204   0.0000       0.649101        17.6629 
 205   0.0000       0.658757        17.9257 
 206   0.0000       0.661062        17.9884 
 207   0.0000       0.667291        18.1579 
 208   0.0000       0.668991        18.2042 
 209   0.0000       0.674239        18.3470 
 210   0.0000       0.679911        18.5013 
 211   0.0000       0.687719        18.7138 
 212   0.0000       0.691826        18.8255 
 213   0.0000       0.699573        19.0364 
 214   0.0000       0.707881        19.2624 
 215   0.0000       0.710612        19.3367 
 216   0.0000       0.715827        19.4787 
 217   0.0000       0.721154        19.6236 
 218   0.0000       0.722816        19.6688 
 219   0.0000       0.725107        19.7312 
 220   0.0000       0.730994        19.8914 
 221   0.0000       0.733395        19.9567 
 222   0.0000       0.739397        20.1200 
 223   0.0000       0.745651        20.2902 
 224   0.0000       0.748346        20.3635 
 225   0.0000       0.752457        20.4754 
 226   0.0000       0.757525        20.6133 
 227   0.0000       0.759664        20.6715 
 228   0.0000       0.763228        20.7685 
 229   0.0000       0.768747        20.9187 
 230   0.0000       0.773473        21.0473 
 231   0.0000       0.776560        21.1313 
 232   0.0000       0.779725        21.2174 
 233   0.0000       0.786082        21.3904 
 234   0.0000       0.789516        21.4838 
 235   0.0000       0.794825        21.6283 
 236   0.0000       0.799765        21.7627 
 237   0.0000       0.802445        21.8356 
 238   0.0000       0.810116        22.0444 
 239   0.0000       0.814191        22.1553 
 240   0.0000       0.822883        22.3918 
 241   0.0000       0.826383        22.4870 
 242   0.0000       0.837043        22.7771 
 243   0.0000       0.848811        23.0973 
 244   0.0000       0.852728        23.2039 
 245   0.0000       0.855701        23.2848 
 246   0.0000       0.857662        23.3382 
 247   0.0000       0.864815        23.5328 
 248   0.0000       0.866092        23.5676 
 249   0.0000       0.870724        23.6936 
 250   0.0000       0.872284        23.7361 
 251   0.0000       0.873436        23.7674 
 252   0.0000       0.877154        23.8686 
 253   0.0000       0.878307        23.9000 
 254   0.0000       0.879756        23.9394 
 255   0.0000       0.880657        23.9639 
 256   0.0000       0.885044        24.0833 
 257   0.0000       0.885900        24.1066 
 258   0.0000       0.890298        24.2263 
 259   0.0000       0.894845        24.3500 
 260   0.0000       0.897576        24.4243 
 261   0.0000       0.901397        24.5283 
 262   0.0000       0.904715        24.6185 
 263   0.0000       0.907145        24.6847 
 264   0.0000       0.913511        24.8579 
 265   0.0000       0.916351        24.9352 
 266   0.0000       0.921407        25.0727 
 267   0.0000       0.923801        25.1379 
 268   0.0000       0.925714        25.1900 
 269   0.0000       0.931410        25.3449 
 270   0.0000       0.936554        25.4849 
 271   0.0000       0.936955        25.4958 
 272   0.0000       0.944099        25.6902 
 273   0.0000       0.949502        25.8373 
 274   0.0000       0.956405        26.0251 
 275   0.0000       0.959563        26.1110 
 276   0.0000       0.963426        26.2162 
 277   0.0000       0.966386        26.2967 
 278   0.0000       0.970546        26.4099 
 279   0.0000       0.978497        26.6262 
 280   0.0000       0.979492        26.6533 
 281   0.0000       0.997421        27.1412 
 282   0.0000       1.004984        27.3470 
 283   0.0000       1.008215        27.4349 
 284   0.0000       1.014509        27.6062 
 285   0.0000       1.025728        27.9115 
 286   0.0000       1.030614        28.0444 
 287   0.0000       1.041403        28.3380 
 288   0.0000       1.060782        28.8654 
 289   0.0000       1.069519        29.1031 
 290   0.0000       1.071517        29.1575 
 291   0.0000       1.082411        29.4539 
 292   0.0000       1.087185        29.5838 
 293   0.0000       1.096112        29.8267 
 294   0.0000       1.102643        30.0044 
 295   0.0000       1.110352        30.2142 
 296   0.0000       1.114165        30.3180 
 297   0.0000       1.127215        30.6731 
 298   0.0000       1.139373        31.0039 
 299   0.0000       1.150231        31.2994 
 300   0.0000       1.163110        31.6498 
 301   0.0000       1.170855        31.8606 
 302   0.0000       1.197114        32.5751 
 303   0.0000       1.205414        32.8010 
 304   0.0000       1.233176        33.5564 
 305   0.0000       1.239259        33.7220 
 306   0.0000       1.242661        33.8145 
 307   0.0000       1.264642        34.4127 
 308   0.0000       1.292445        35.1692 
 309   0.0000       1.302859        35.4526 
 310   0.0000       1.330818        36.2134 
 311   0.0000       1.340003        36.4633 
 312   0.0000       1.361219        37.0407 
 313   0.0000       1.370489        37.2929 
 314   0.0000       1.410191        38.3733 
 315   0.0000       1.526098        41.5272 
 316   0.0000       1.529071        41.6081 
 317   0.0000       1.563109        42.5344 
 318   0.0000       1.591141        43.2972 
 319   0.0000       1.675085        45.5814 
 320   0.0000       6.202046       168.7662 
 321   0.0000       6.232048       169.5826 
 322   0.0000       6.245077       169.9372 
 323   0.0000       6.272940       170.6954 
 324   0.0000       6.275813       170.7736 
 325   0.0000       6.288497       171.1187 
 326   0.0000       6.302424       171.4977 
 327   0.0000       6.303507       171.5271 
 328   0.0000       6.317383       171.9047 
 329   0.0000       6.337942       172.4642 
 330   0.0000       6.342329       172.5836 
 331   0.0000       6.351262       172.8266 
 332   0.0000       6.362331       173.1278 
 333   0.0000       6.379272       173.5888 
 334   0.0000       6.387602       173.8155 
 335   0.0000       6.400983       174.1796 
 336   0.0000       6.407278       174.3509 
 337   0.0000       6.415194       174.5663 
 338   0.0000       6.419079       174.6720 
 339   0.0000       6.423546       174.7936 
 340   0.0000       6.436618       175.1493 
 341   0.0000       6.440847       175.2643 
 342   0.0000       6.447028       175.4325 
 343   0.0000       6.453944       175.6208 
 344   0.0000       6.468053       176.0047 
 345   0.0000       6.477525       176.2624 
 346   0.0000       6.485947       176.4916 
 347   0.0000       6.501142       176.9051 
 348   0.0000       6.511950       177.1992 
 349   0.0000       6.514556       177.2701 
 350   0.0000       6.525441       177.5663 
 351   0.0000       6.526431       177.5932 
 352   0.0000       6.537246       177.8875 
 353   0.0000       6.546248       178.1325 
 354   0.0000       6.549422       178.2188 
 355   0.0000       6.558876       178.4761 
 356   0.0000       6.562688       178.5798 
 357   0.0000       6.567678       178.7156 
 358   0.0000       6.572719       178.8528 
 359   0.0000       6.579929       179.0490 
 360   0.0000       6.583506       179.1463 
 361   0.0000       6.584380       179.1701 
 362   0.0000       6.588284       179.2763 
 363   0.0000       6.595861       179.4825 
 364   0.0000       6.602346       179.6590 
 365   0.0000       6.605837       179.7540 
 366   0.0000       6.610107       179.8702 
 367   0.0000       6.614041       179.9772 
 368   0.0000       6.615990       180.0303 
 369   0.0000       6.622244       180.2004 
 370   0.0000       6.626349       180.3121 
 371   0.0000       6.627631       180.3470 
 372   0.0000       6.632086       180.4682 
 373   0.0000       6.634428       180.5320 
 374   0.0000       6.638052       180.6306 
[...]
     69 H        0.000      0.000      0.000      0.000      0.000      0.000
     70 H        0.000      0.000      0.000     -0.001      0.001      0.019
     71 H        0.000      0.000      0.000      0.000      0.001      0.011
     72 H        0.000      0.000      0.000      0.000      0.003      0.034
                 25 H       27 H       28 H       30 H       31 H       33 H  
      3 H        0.076     -0.003      0.002      0.000      0.000      0.092
      4 H        2.302     -0.108      0.070      0.000      0.000      2.594
      8 H        0.116      0.000      0.000      0.000      0.000      0.108
      9 H       -0.263      0.014      0.000      0.000      0.000     -0.315
     10 H        0.000      0.000      0.000      0.000      0.000      0.000
     11 H        0.000      0.000      0.000      0.000      0.000      0.000
     13 H       -0.038      0.000      0.000      0.000      0.000      0.000
     16 H       -0.266      0.014     -0.005     -0.032     -0.002     -0.313
     17 H       -0.249      0.013      0.000      0.000      0.000     -0.311
     19 H        0.935     -0.045      0.078      0.064      0.005      0.993
     21 H       -2.843      0.188      0.668     -0.228     -0.027     -2.420
     24 H      -13.374      4.311      2.378      0.653     -0.495     -0.150
     25 H        0.000     13.001      5.182     -0.635     -0.364     -2.182
     27 H       13.001      0.000    -13.589      3.972     13.001      0.060
     28 H        5.182    -13.589      0.000      2.659      4.110      0.287
     30 H       -0.635      3.972      2.659      0.000    -12.982      0.031
     31 H       -0.364     13.001      4.110    -12.982      0.000     -0.322
     33 H       -2.182      0.060      0.287      0.031     -0.322      0.000
     35 H       -0.028      0.001     -0.001      0.000      0.000     -0.037
     37 H        0.277      0.004     -0.036      0.515     -0.037      6.506
     38 H        0.167      0.001     -0.028     -0.014      0.126     12.226
     40 H       -0.013      0.019      0.149     -0.003     -0.033     -0.241
     41 H        0.008      0.022     -0.025      0.014      0.077     -0.429
     42 H       -0.018      0.014     -0.017     -0.258     -0.382     -0.206
     45 H       -0.059     -0.113     -0.142     -0.159      1.813     -0.474
     46 H       -0.015     -0.216      0.005     -0.210     -0.486     -0.214
     47 H        0.013      0.051      0.065     -0.342      0.016      0.879
     48 H       -0.016      0.028      0.023      0.040      0.009     -0.017
     52 H        0.001      0.000      0.003     -0.014     -0.001      0.004
     53 H       -0.001     -0.000     -0.000     -0.002     -0.003     -0.007
     57 H        0.000      0.000      0.000      0.003      0.005      0.009
     58 H        0.000      0.000      0.000      0.000      0.000      0.000
     61 H        0.000      0.000      0.000     -0.000     -0.000      0.000
     62 H        0.000      0.000      0.000      0.000      0.000     -0.000
     63 H        0.000      0.000      0.000     -0.000     -0.000     -0.000
     64 H        0.000      0.000      0.000      0.000      0.000      0.000
     65 H        0.000      0.000      0.000      0.000      0.000      0.000
     66 H        0.000      0.000      0.000      0.000      0.000      0.000
     67 H        0.000      0.000      0.000     -0.000      0.000      0.000
     68 H        0.000      0.000      0.000      0.000      0.000      0.000
     69 H        0.000      0.000      0.000     -0.000     -0.000      0.000
     70 H        0.003     -0.006     -0.008     -0.465     -0.096      0.005
     71 H       -0.000     -0.004     -0.004      0.056      0.005     -0.000
     72 H        0.000     -0.009     -0.010      0.073     -0.048      0.006
                 35 H       37 H       38 H       40 H       41 H       42 H  
      3 H       -0.266     -0.001     -0.001      0.000      0.000      0.000
      4 H       -0.644     -0.045     -0.014      0.000      0.000      0.000
      8 H       -0.027     -0.002     -0.002      0.000     -0.000      0.000
      9 H       -0.144      0.006      0.002      0.000      0.001      0.000
     10 H       -0.397     -0.000     -0.000      0.000      0.000      0.000
     11 H       -0.142     -0.002     -0.000      0.000      0.000      0.000
     13 H       12.520      0.000      0.000      0.000      0.000      0.000
     16 H       -0.004      0.004      0.003      0.001      0.001     -0.001
     17 H       -0.002      0.005      0.004     -0.000      0.001      0.000
     19 H        0.048     -0.017      0.080      0.013     -0.004      0.003
     21 H       -0.016      0.062     -0.565     -0.011      0.060     -0.023
     24 H       -0.001     -0.055     -0.080     -0.020      0.065     -0.024
     25 H       -0.028      0.277      0.167     -0.013      0.008     -0.018
     27 H        0.001      0.004      0.001      0.019      0.022      0.014
     28 H       -0.001     -0.036     -0.028      0.149     -0.025     -0.017
     30 H        0.000      0.515     -0.014     -0.003      0.014     -0.258
     31 H        0.000     -0.037      0.126     -0.033      0.077     -0.382
     33 H       -0.037      6.506     12.226     -0.241     -0.429     -0.206
     35 H        0.000      0.000     -0.000      0.000      0.000      0.000
     37 H        0.000      0.000    -12.226      9.546      2.627     -0.257
     38 H       -0.000    -12.226      0.000      6.583     11.560     -0.485
     40 H        0.000      9.546      6.583      0.000    -13.270      9.210
     41 H        0.000      2.627     11.560    -13.270      0.000      8.779
     42 H        0.000     -0.257     -0.485      9.210      8.779      0.000
     45 H       -0.000      0.076     -0.053     -0.115     -0.074     -0.088
     46 H        0.000      0.056      0.031     -0.089      0.003      1.138
     47 H        0.000     -0.175      0.014      0.054      0.041     -0.416
     48 H        0.000      0.117     -0.007     -0.193     -0.429     10.537
     52 H        0.000     -0.016     -0.013      0.210     -0.180     -0.172
     53 H        0.000     -0.004     -0.007     -0.014      0.098      0.124
     57 H        0.000     -0.003      0.001      0.058      0.005     -0.140
     58 H        0.000      0.000      0.000     -0.000     -0.001      0.005
     61 H        0.000     -0.000     -0.000     -0.001     -0.001     -0.001
     62 H        0.000     -0.000     -0.000     -0.002     -0.001      0.000
     63 H        0.000      0.000      0.000     -0.007     -0.003      0.002
     64 H        0.000      0.000      0.000      0.000     -0.000     -0.001
     65 H        0.000      0.000     -0.000     -0.000     -0.000      0.001
     66 H        0.000      0.000      0.000     -0.000     -0.000      0.002
     67 H        0.000      0.000      0.000      0.001     -0.000     -0.001
     68 H        0.000      0.000      0.000      0.001      0.000      0.000
     69 H        0.000      0.000      0.000      0.000      0.000      0.001
     70 H        0.000     -0.007      0.000      0.085      0.032     -0.196
     71 H        0.000     -0.021      0.037      0.020     -0.046     -0.352
     72 H        0.000      0.063      0.015     -0.047      0.005     -0.465
                 45 H       46 H       47 H       48 H       52 H       53 H  
      3 H        0.001     -0.000     -0.001      0.000      0.000      0.000
      4 H        0.026     -0.018      0.000      0.000      0.000      0.000
      8 H        0.001     -0.001      0.000      0.000      0.000      0.000
      9 H       -0.003      0.002      0.000      0.000      0.000      0.000
     10 H        0.000     -0.000      0.000      0.000      0.000      0.000
     11 H        0.000      0.000      0.000      0.000      0.000      0.000
     13 H        0.000      0.000      0.000      0.000      0.000      0.000
     16 H       -0.003      0.000      0.002     -0.002      0.000      0.000
     17 H       -0.004      0.000      0.001     -0.002      0.000      0.000
     19 H        0.010     -0.010     -0.008      0.005      0.000      0.000
     21 H       -0.020      0.040      0.008     -0.016      0.001      0.000
     24 H       -0.023     -0.023     -0.016      0.005      0.000      0.000
     25 H       -0.059     -0.015      0.013     -0.016      0.001     -0.001
     27 H       -0.113     -0.216      0.051      0.028      0.000     -0.000
     28 H       -0.142      0.005      0.065      0.023      0.003     -0.000
     30 H       -0.159     -0.210     -0.342      0.040     -0.014     -0.002
     31 H        1.813     -0.486      0.016      0.009     -0.001     -0.003
     33 H       -0.474     -0.214      0.879     -0.017      0.004     -0.007
     35 H       -0.000      0.000      0.000      0.000      0.000      0.000
     37 H        0.076      0.056     -0.175      0.117     -0.016     -0.004
     38 H       -0.053      0.031      0.014     -0.007     -0.013     -0.007
     40 H       -0.115     -0.089      0.054     -0.193      0.210     -0.014
     41 H       -0.074      0.003      0.041     -0.429     -0.180      0.098
     42 H       -0.088      1.138     -0.416     10.537     -0.172      0.124
     45 H        0.000    -13.577    -13.034     -0.203      0.006     -0.015
     46 H      -13.577      0.000    -12.982     -0.172      0.023     -0.039
     47 H      -13.034    -12.982      0.000     -0.100      0.005     -0.009
     48 H       -0.203     -0.172     -0.100      0.000      4.890     -2.296
     52 H        0.006      0.023      0.005      4.890      0.000     17.226
     53 H       -0.015     -0.039     -0.009     -2.296     17.226      0.000
     57 H        0.016      0.000      0.013      2.104     -2.766      4.465
     58 H        0.000      0.000      0.000      0.137      0.233     -0.419
     61 H       -0.000     -0.001     -0.000     -0.044     -0.338     -0.595
     62 H       -0.001      0.000      0.000     -0.062     -0.219      0.714
     63 H       -0.000     -0.001     -0.000     -0.032     -0.132     -0.532
     64 H        0.000      0.000      0.000      0.014     -0.008      0.028
     65 H       -0.000      0.000     -0.000     -0.017      0.018      0.006
     66 H        0.000      0.000      0.000     -0.023      0.022     -0.029
     67 H        0.000      0.000      0.000      0.022     -0.008      0.001
     68 H        0.000      0.000      0.000      0.010      0.166     -0.047
     69 H       -0.000      0.000     -0.000     -0.010      0.114     -0.190
     70 H       -0.022     -0.062     -0.252      5.157      0.712     -0.243
     71 H        0.026     -0.033     -0.045     12.538     -0.527     -0.229
     72 H       -0.012     -0.033     -0.025      1.964     -0.388     -0.281
                 57 H       58 H       61 H       62 H       63 H       64 H  
      3 H        0.000      0.000      0.000      0.000      0.000      0.000
      4 H        0.000      0.000      0.000      0.000      0.000      0.000
      8 H        0.000      0.000      0.000      0.000      0.000      0.000
      9 H        0.000      0.000      0.000      0.000      0.000      0.000
     10 H        0.000      0.000      0.000      0.000      0.000      0.000
     11 H        0.000      0.000      0.000      0.000      0.000      0.000
     13 H        0.000      0.000      0.000      0.000      0.000      0.000
     16 H        0.000      0.000      0.000      0.000      0.000      0.000
     17 H        0.000      0.000      0.000      0.000      0.000      0.000
     19 H        0.000      0.000      0.000      0.000      0.000      0.000
     21 H        0.000      0.000      0.000      0.000      0.000      0.000
     24 H        0.000      0.000      0.000      0.000      0.000      0.000
     25 H        0.000      0.000      0.000      0.000      0.000      0.000
     27 H        0.000      0.000      0.000      0.000      0.000      0.000
     28 H        0.000      0.000      0.000      0.000      0.000      0.000
     30 H        0.003      0.000     -0.000      0.000     -0.000      0.000
     31 H        0.005      0.000     -0.000      0.000     -0.000      0.000
     33 H        0.009      0.000      0.000     -0.000     -0.000      0.000
     35 H        0.000      0.000      0.000      0.000      0.000      0.000
     37 H       -0.003      0.000     -0.000     -0.000      0.000      0.000
     38 H        0.001      0.000     -0.000     -0.000      0.000      0.000
     40 H        0.058     -0.000     -0.001     -0.002     -0.007      0.000
     41 H        0.005     -0.001     -0.001     -0.001     -0.003     -0.000
     42 H       -0.140      0.005     -0.001      0.000      0.002     -0.001
     45 H        0.016      0.000     -0.000     -0.001     -0.000      0.000
     46 H        0.000      0.000     -0.001      0.000     -0.001      0.000
     47 H        0.013      0.000     -0.000      0.000     -0.000      0.000
     48 H        2.104      0.137     -0.044     -0.062     -0.032      0.014
     52 H       -2.766      0.233     -0.338     -0.219     -0.132     -0.008
     53 H        4.465     -0.419     -0.595      0.714     -0.532      0.028
     57 H        0.000      3.340     13.057      3.211      4.039     -0.446
     58 H        3.340      0.000     -0.261     -0.320     -0.115      3.599
     61 H       13.057     -0.261      0.000    -12.700    -12.718     -0.288
     62 H        3.211     -0.320    -12.700      0.000    -13.022      0.008
     63 H        4.039     -0.115    -12.718    -13.022      0.000     -0.101
     64 H       -0.446      3.599     -0.288      0.008     -0.101      0.000
     65 H       -0.463     13.113      0.036      0.041      0.063    -12.392
     66 H        0.666      3.175     -0.099      0.051     -0.092    -12.992
     67 H       -0.371      2.396      0.019      0.044      0.016      2.862
     68 H       -0.187      4.811     -0.038     -0.004      0.518     -0.183
     69 H       -0.271     13.146      0.040      0.052     -0.054     -0.217
     70 H       -0.086      0.006      0.017      0.132      0.013      0.000
     71 H       -0.048     -0.006     -0.007      0.008     -0.006      0.000
     72 H       -0.048      0.003     -0.005      0.026      0.007     -0.002
                 65 H       66 H       67 H       68 H       69 H       70 H  
      3 H        0.000      0.000      0.000      0.000      0.000      0.000
      4 H        0.000      0.000      0.000      0.000      0.000      0.000
      8 H        0.000      0.000      0.000      0.000      0.000      0.000
      9 H        0.000      0.000      0.000      0.000      0.000      0.000
     10 H        0.000      0.000      0.000      0.000      0.000      0.000
     11 H        0.000      0.000      0.000      0.000      0.000      0.000
     13 H        0.000      0.000      0.000      0.000      0.000      0.000
     16 H        0.000      0.000      0.000      0.000      0.000      0.000
     17 H        0.000      0.000      0.000      0.000      0.000      0.000
     19 H        0.000      0.000      0.000      0.000      0.000     -0.001
     21 H        0.000      0.000      0.000      0.000      0.000      0.001
     24 H        0.000      0.000      0.000      0.000      0.000      0.019
     25 H        0.000      0.000      0.000      0.000      0.000      0.003
     27 H        0.000      0.000      0.000      0.000      0.000     -0.006
     28 H        0.000      0.000      0.000      0.000      0.000     -0.008
     30 H        0.000      0.000     -0.000      0.000     -0.000     -0.465
     31 H        0.000      0.000      0.000      0.000     -0.000     -0.096
     33 H        0.000      0.000      0.000      0.000      0.000      0.005
     35 H        0.000      0.000      0.000      0.000      0.000      0.000
     37 H        0.000      0.000      0.000      0.000      0.000     -0.007
     38 H       -0.000      0.000      0.000      0.000      0.000      0.000
     40 H       -0.000     -0.000      0.001      0.001      0.000      0.085
     41 H       -0.000     -0.000     -0.000      0.000      0.000      0.032
     42 H        0.001      0.002     -0.001      0.000      0.001     -0.196
     45 H       -0.000      0.000      0.000      0.000     -0.000     -0.022
     46 H        0.000      0.000      0.000      0.000      0.000     -0.062
     47 H       -0.000      0.000      0.000      0.000     -0.000     -0.252
     48 H       -0.017     -0.023      0.022      0.010     -0.010      5.157
     52 H        0.018      0.022     -0.008      0.166      0.114      0.712
     53 H        0.006     -0.029      0.001     -0.047     -0.190     -0.243
     57 H       -0.463      0.666     -0.371     -0.187     -0.271     -0.086
     58 H       13.113      3.175      2.396      4.811     13.146      0.006
     61 H        0.036     -0.099      0.019     -0.038      0.040      0.017
     62 H        0.041      0.051      0.044     -0.004      0.052      0.132
     63 H        0.063     -0.092      0.016      0.518     -0.054      0.013
     64 H      -12.392    -12.992      2.862     -0.183     -0.217      0.000
     65 H        0.000    -12.533     -0.318     -0.220     -0.339      0.001
     66 H      -12.533      0.000      0.082     -0.228     -0.199      0.002
     67 H       -0.318      0.082      0.000    -12.767    -12.001      0.000
     68 H       -0.220     -0.228    -12.767      0.000    -13.179     -0.001
     69 H       -0.339     -0.199    -12.001    -13.179      0.000     -0.001
     70 H        0.001      0.002      0.000     -0.001     -0.001      0.000
     71 H       -0.003      0.000      0.000     -0.001     -0.001    -12.681
     72 H       -0.005     -0.000     -0.002     -0.001     -0.003    -13.631
                 71 H       72 H  
      3 H        0.000      0.000
      4 H        0.000      0.000
      8 H        0.000      0.000
      9 H        0.000      0.000
     10 H        0.000      0.000
     11 H        0.000      0.000
     13 H        0.000      0.000
     16 H        0.000      0.000
     17 H        0.000      0.000
     19 H        0.000      0.000
     21 H        0.001      0.003
     24 H        0.011      0.034
     25 H       -0.000      0.000
     27 H       -0.004     -0.009
     28 H       -0.004     -0.010
     30 H        0.056      0.073
     31 H        0.005     -0.048
     33 H       -0.000      0.006
     35 H        0.000      0.000
     37 H       -0.021      0.063
     38 H        0.037      0.015
     40 H        0.020     -0.047
     41 H       -0.046      0.005
     42 H       -0.352     -0.465
     45 H        0.026     -0.012
     46 H       -0.033     -0.033
     47 H       -0.045     -0.025
     48 H       12.538      1.964
     52 H       -0.527     -0.388
     53 H       -0.229     -0.281
     57 H       -0.048     -0.048
     58 H       -0.006      0.003
     61 H       -0.007     -0.005
     62 H        0.008      0.026
     63 H       -0.006      0.007
     64 H        0.000     -0.002
     65 H       -0.003     -0.005
     66 H        0.000     -0.000
     67 H        0.000     -0.002
     68 H       -0.001     -0.001
     69 H       -0.001     -0.003
     70 H      -12.681    -13.631
     71 H        0.000    -12.375
     72 H      -12.375      0.000

Maximum memory used throughout the entire EPRNMR-calculation: 987.3 MB

Timings for individual modules:

Sum of individual times         ...      395.859 sec (=   6.598 min)
GTO integral calculation        ...        0.574 sec (=   0.010 min)   0.1 %
SCF iterations                  ...      103.143 sec (=   1.719 min)  26.1 %
EPR/NMR calculation             ...      292.143 sec (=   4.869 min)  73.8 %
                             ****ORCA TERMINATED NORMALLY****
TOTAL RUN TIME: 0 days 0 hours 6 minutes 36 seconds 324 msec
