
                                 *****************
                                 * O   R   C   A *
                                 *****************

                                            #,                                       
                                            ###                                      
                                            ####                                     
                                            #####                                    
                                            ######                                   
                                           ########,                                 
                                     ,,################,,,,,                         
                               ,,#################################,,                 
                          ,,##########################################,,             
                       ,#########################################, ''#####,          
                    ,#############################################,,   '####,        
                  ,##################################################,,,,####,       
                ,###########''''           ''''###############################       
              ,#####''   ,,,,##########,,,,          '''####'''          '####       
            ,##' ,,,,###########################,,,                        '##       
           ' ,,###''''                  '''############,,,                           
         ,,##''                                '''############,,,,        ,,,,,,###''
      ,#''                                            '''#######################'''  
     '                                                          ''''####''''         
             ,#######,   #######,   ,#######,      ##                                
            ,#'     '#,  ##    ##  ,#'     '#,    #''#        ,####,   ,####,        
            ##       ##  ##   ,#'  ##            #'  '#       #'       #'  '#        
            ##       ##  #######   ##           ,######,      #####,   #    #        
            '#,     ,#'  ##    ##  '#,     ,#' ,#      #,     #,   #   #,  ,#        
             '#######'   ##     ##  '#######'  #'      '#     '####' # '####'        



                #########################################################
                #                        -***-                          #
                #          Department of theory and spectroscopy        #
                #                                                       #
                #                      Frank Neese                      #
                #                                                       #
                #     Directorship, Architecture, Infrastructure        #
                #                    SHARK, DRIVERS                     #
                #        Core code/Algorithms in most modules           #
                #                                                       #
                #        Max Planck Institute fuer Kohlenforschung      #
                #                Kaiser Wilhelm Platz 1                 #
                #                 D-45470 Muelheim/Ruhr                 #
                #                      Germany                          #
                #                                                       #
                #                  All rights reserved                  #
                #                        -***-                          #
                #########################################################


                         Program Version 6.0.0  -   RELEASE  -


 With contributions from (in alphabetic order):
   Daniel Aravena         : Magnetic Suceptibility
   Michael Atanasov       : Ab Initio Ligand Field Theory (pilot matlab implementation)
   Alexander A. Auer      : GIAO ZORA, VPT2 properties, NMR spectrum
   Ute Becker             : All parallelization in ORCA, NUMFREQ, NUMCALC
   Giovanni Bistoni       : ED, misc. LED, open-shell LED, HFLD
   Martin Brehm           : Molecular dynamics
   Dmytro Bykov           : pre 5.0 version of the SCF Hessian
   Marcos Casanova-Páez   : Triplet and SCS-CIS(D). UHF-(DLPNO)-IP/EA/STEOM-CCSD. UHF-CVS-IP/STEOM-CCSD
   Vijay G. Chilkuri      : MRCI spin determinant printing, contributions to CSF-ICE
   Pauline Colinet        : FMM embedding
   Dipayan Datta          : RHF DLPNO-CCSD density
   Achintya Kumar Dutta   : EOM-CC, STEOM-CC
   Nicolas Foglia         : Exact transition moments, OPA infrastructure, MCD improvements
   Dmitry Ganyushin       : Spin-Orbit,Spin-Spin,Magnetic field MRCI
   Miquel Garcia          : C-PCM and meta-GGA Hessian, CCSD/C-PCM, Gaussian charge scheme
   Tiago L. C. Gouveia    : GS-ROHF, GS-ROCIS
   Yang Guo               : DLPNO-NEVPT2, F12-NEVPT2, CIM, IAO-localization
   Andreas Hansen         : Spin unrestricted coupled pair/coupled cluster methods
   Ingolf Harden          : AUTO-CI MPn and infrastructure 
   Benjamin Helmich-Paris : MC-RPA, TRAH-(SCF,CASSCF), AVAS, COSX integrals, SCF dyn. polar.
   Lee Huntington         : MR-EOM, pCC
   Robert Izsak           : Overlap fitted RIJCOSX, COSX-SCS-MP3, EOM
   Riya Kayal             : Wick's Theorem for AUTO-CI, AUTO-CI UHF-CCSDT
   Emily Kempfer          : AUTO-CI, RHF CISDT and CCSDT
   Christian Kollmar      : KDIIS, OOCD, Brueckner-CCSD(T), CCSD density, CASPT2, CASPT2-K, improved NEVPT2
   Axel Koslowski         : Symmetry handling
   Simone Kossmann        : Meta GGA functionals, TD-DFT gradient, OOMP2, (MP2 Hessian; deprecated post 5.0)
   Lucas Lang             : DCDCAS
   Marvin Lechner         : AUTO-CI (C++ implementation), FIC-MRCC
   Spencer Leger          : CASSCF response
   Dagmar Lenk            : GEPOL surface, SMD, ORCA-2-JSON
   Dimitrios Liakos       : Extrapolation schemes; Compound Job, initial MDCI parallelization
   Dimitrios Manganas     : Further ROCIS development; embedding schemes. LFT, Crystal Embedding
   Dimitrios Pantazis     : SARC Basis sets
   Anastasios Papadopoulos: AUTO-CI, single reference methods and gradients
   Taras Petrenko         : pre 6.0 DFT Hessian and TD-DFT gradient, (ASA, deprecated), ECA, 1-Electron XAS/XES, NRVS
   Peter Pinski           : DLPNO-MP2, DLPNO-MP2 Gradient
   Christoph Reimann      : Effective Core Potentials
   Marius Retegan         : Local ZFS, SOC
   Christoph Riplinger    : Optimizer, TS searches, QM/MM, DLPNO-CCSD(T), (RO)-DLPNO pert. Triples
   Michael Roemelt        : Original ROCIS implementation
   Masaaki Saitow         : Open-shell DLPNO-CCSD energy and density
   Barbara Sandhoefer     : DKH picture change effects
   Kantharuban Sivalingam : CASSCF convergence/infrastructure, NEVPT2 and variants, FIC-MRCI
   Bernardo de Souza      : ESD, SOC TD-DFT
   Georgi Stoychev        : AutoAux, RI-MP2 NMR, DLPNO-MP2 response, X2C
   Van Anh Tran           : RI-MP2 g-tensors
   Willem Van den Heuvel  : Paramagnetic NMR
   Zikuan Wang            : NOTCH, Electric field optimization 
   Frank Wennmohs         : Technical directorship and infrastructure
   Hang Xu                : AUTO-CI-Response properties 


 We gratefully acknowledge several colleagues who have allowed us to
 interface, adapt or use parts of their codes:
   Stefan Grimme, W. Hujo, H. Kruse, P. Pracht,  : VdW corrections, initial TS optimization,
                  C. Bannwarth, S. Ehlert,         DFT functionals, gCP, sTDA/sTD-DF
                  L. Wittmann, M. Mueller
   Ed Valeev, F. Pavosevic, A. Kumar             : LibInt (2-el integral package), F12 methods
   Garnet Chan, S. Sharma, J. Yang, R. Olivares  : DMRG
   Ulf Ekstrom                                   : XCFun DFT Library
   Mihaly Kallay                                 : mrcc  (arbitrary order and MRCC methods)
   Frank Weinhold                                : gennbo (NPA and NBO analysis)
   Simon Mueller                                 : openCOSMO-RS
   Christopher J. Cramer and Donald G. Truhlar   : smd solvation model
   Lars Goerigk                                  : TD-DFT with DH, B97 family of functionals
   V. Asgeirsson, H. Jonsson                     : NEB implementation
   FAccTs GmbH                                   : IRC, NEB, NEB-TS, DLPNO-Multilevel, CI-OPT
                                                   MM, QMMM, 2- and 3-layer-ONIOM, Crystal-QMMM,
                                                   LR-CPCM, SF, NACMEs, symmetry and pop. for TD-DFT,
                                                   nearIR, NL-DFT gradient (VV10), updates on ESD,
                                                   ML-optimized integration grids, MBIS, APM,
                                                   GOAT, DOCKER, SOLVATOR, interface openCOSMO-RS
   S Lehtola, MJT Oliveira, MAL Marques          : LibXC Library
   Liviu Ungur et al                             : ANISO software


 Your calculation uses the libint2 library for the computation of 2-el integrals
 For citations please refer to: http://libint.valeyev.net

 Your ORCA version has been built with support for libXC version: 6.2.2
 For citations please refer to: https://libxc.gitlab.io

 This ORCA versions uses:
   CBLAS   interface :  Fast vector & matrix operations
   LAPACKE interface :  Fast linear algebra routines
   SCALAPACK package :  Parallel linear algebra routines
   Shared memory     :  Shared parallel matrices
   BLAS/LAPACK       :  OpenBLAS 0.3.27  USE64BITINT DYNAMIC_ARCH NO_AFFINITY Zen SINGLE_THREADED
        Core in use  :  Zen
   Copyright (c) 2011-2014, The OpenBLAS Project


NOTE: MaxCore=8000 MB was set to SCF,MP2,MDCI,CIPSI,MRCI and CIS
      => If you want to overwrite this, your respective input block should be placed after the MaxCore statement
Your calculation utilizes the atom-pairwise dispersion correction
based on EEQ partial charges (D4)


================================================================================

----- Orbital basis set information -----
Your calculation utilizes the basis: pcJ-0
   F. Jensen, Theor. Chem. Acc. 126, 371 (2010).

----- AuxJ basis set information -----
Your calculation utilizes the auxiliary basis: def2/J
   F. Weigend, Phys. Chem. Chem. Phys. 8, 1057 (2006).

================================================================================
                                        WARNINGS
                       Please study these warnings very carefully!
================================================================================

WARNING: Old DensityContainer found on disk!
         Will remove this file - 
         If you want to keep old densities, please start your calculation with a different basename. 


================================================================================
                                       INPUT FILE
================================================================================
NAME = inpJ
|  1> ! pbe0
|  2> ! D4
|  3> ! pcJ-0
|  4> ! def2/J RIJCOSX
|  5> ! DEFGRID2
|  6> ! scfconv7
|  7> ! smallprint printgap noloewdin
|  8> ! NOSOSCF
|  9> %MaxCore 8000
| 10> %output
| 11>        print[P_BondOrder_M] 1
| 12>        print[P_Mayer] 1
| 13>        print[P_basis] 2
| 14> end
| 15> %pal
| 16>     nprocs 4
| 17> end
| 18> ! CPCM(chloroform)
| 19> *xyz 0 1
| 20> C   -4.9970955600   0.2151337400  -0.4994928600
| 21> C   -6.4448492500  -0.1838003900  -0.6619555300
| 22> C   -7.3540414000   0.7603346300   0.1350759100
| 23> H   -6.6008698400  -1.2184816400  -0.3361250800
| 24> H   -6.7342648200  -0.1147645300  -1.7210794900
| 25> C   -4.7238973500   1.6309414100  -0.8317393400
| 26> C   -5.6547439200   2.6202012000  -0.1657949900
| 27> C   -7.1268698700   2.2074689000  -0.3051145900
| 28> H   -5.4959495400   3.6237627900  -0.5746624500
| 29> H   -5.4014204500   2.6660448500   0.9043253400
| 30> H   -7.4374041800   2.3018160400  -1.3546254900
| 31> H   -7.7625319600   2.8748051100   0.2883288900
| 32> O   -7.1430383300   0.5953810000   1.5472824700
| 33> H   -8.4031109300   0.4869088500  -0.0327242500
| 34> C   -4.0772516200  -0.6583761700  -0.0250680800
| 35> C   -3.7627750400   2.0106351300  -1.6808234700
| 36> H   -3.1153103500   1.2835236000  -2.1636767400
| 37> H   -3.6100863700   3.0606795500  -1.9189756700
| 38> C   -2.6936961000  -0.3628925300   0.2677947700
| 39> H   -4.4318995900  -1.6678537100   0.1797756900
| 40> C   -1.7432806500  -1.2495370200   0.6324500600
| 41> H   -2.4063349100   0.6832439100   0.1891654100
| 42> C   -1.9331742200  -2.7391576100   0.7642598800
| 43> C   -0.9259202000  -3.5166390500  -0.1057767000
| 44> H   -2.9511966100  -3.0527502800   0.5177221900
| 45> H   -1.7573360400  -3.0112407900   1.8171377800
| 46> C    0.5231174400  -3.0625083500   0.1173300700
| 47> H   -1.1957523100  -3.3921508300  -1.1621251000
| 48> H   -1.0131578200  -4.5878069900   0.1137968000
| 49> C    0.6813700100  -1.5461681200  -0.0598818500
| 50> H    1.1771646400  -3.6141505700  -0.5660944500
| 51> H    0.8320131600  -3.3267464000   1.1399705400
| 52> C   -0.3263467100  -0.8533960600   0.9133877800
| 53> H   -0.0768146900  -1.2659202900   1.9080531000
| 54> C    0.1010593600   0.6114888600   0.9122866200
| 55> H   -6.1892273200   0.5209515500   1.6935987800
| 56> C    1.6437218000   0.5402493100   0.8000005500
| 57> H   -0.2376311400   1.1395491400   1.8098153700
| 58> H   -0.3201419600   1.1392626200   0.0493589400
| 59> C    2.0122215700  -0.9350519700   0.4592789300
| 60> H    2.1365410400   0.8547408400   1.7252847700
| 61> H    2.0106273300   1.2095011100   0.0129905800
| 62> H    2.2529307200  -1.4625659700   1.3968637500
| 63> C    3.2648047400  -1.0110335500  -0.4372797700
| 64> C    0.4180836900  -1.1285237900  -1.5128486300
| 65> H    0.6359715000  -0.0676608600  -1.6722808300
| 66> H   -0.6264802400  -1.2930370400  -1.7948744900
| 67> H    1.0475702800  -1.7037256800  -2.2006510300
| 68> H    3.0545073000  -0.4671368800  -1.3699658600
| 69> C    3.6822884300  -2.4475341500  -0.7867348100
| 70> C    4.4138146500  -0.3222542500   0.2499079200
| 71> C    5.0835123000   0.7248840000  -0.2271487600
| 72> H    4.7138258700  -0.7502807300   1.2117855000
| 73> H    4.7821248700   1.1512038200  -1.1894985700
| 74> C    6.2268727400   1.4185439400   0.4591377400
| 75> C    5.7988949600   2.8489648500   0.8259760200
| 76> C    7.5003151800   1.3960336400  -0.4219597500
| 77> H    6.4559200400   0.8722626200   1.3882549900
| 78> H    7.2513101800   1.9068858300  -1.3663297200
| 79> C    7.9160284100  -0.0413847900  -0.7462482900
| 80> C    8.6675798700   2.1389814100   0.2340520700
| 81> H    5.6515874200   3.4506756100  -0.0797782300
| 82> H    6.5446106000   3.3500233300   1.4501638200
| 83> H    4.8531568600   2.8331094100   1.3775684200
| 84> H    7.1216310500  -0.5842984500  -1.2672499500
| 85> H    8.1445929600  -0.5889324600   0.1775450400
| 86> H    8.8124897600  -0.0548301000  -1.3758343000
| 87> H    8.4684899000   3.2079088400   0.3515575200
| 88> H    9.5747468200   2.0349683900  -0.3712884000
| 89> H    8.8783611700   1.7203562400   1.2267829400
| 90> H    2.9505276700  -2.9391767100  -1.4327658900
| 91> H    3.7951464400  -3.0515512000   0.1220123000
| 92> H    4.6440605200  -2.4439182600  -1.3110445700
| 93> *
| 94> %eprnmr
| 95>  Nuclei = all C { ssfc }
| 96>  SpinSpinRThresh 8.0
| 97> end
| 98> 
| 99>                          ****END OF INPUT****
================================================================================

                       ****************************
                       * Single Point Calculation *
                       ****************************

---------------------------------
CARTESIAN COORDINATES (ANGSTROEM)
---------------------------------
  C     -4.997096    0.215134   -0.499493
  C     -6.444849   -0.183800   -0.661956
  C     -7.354041    0.760335    0.135076
  H     -6.600870   -1.218482   -0.336125
  H     -6.734265   -0.114765   -1.721079
  C     -4.723897    1.630941   -0.831739
  C     -5.654744    2.620201   -0.165795
  C     -7.126870    2.207469   -0.305115
  H     -5.495950    3.623763   -0.574662
  H     -5.401420    2.666045    0.904325
  H     -7.437404    2.301816   -1.354625
  H     -7.762532    2.874805    0.288329
  O     -7.143038    0.595381    1.547282
  H     -8.403111    0.486909   -0.032724
  C     -4.077252   -0.658376   -0.025068
  C     -3.762775    2.010635   -1.680823
  H     -3.115310    1.283524   -2.163677
  H     -3.610086    3.060680   -1.918976
  C     -2.693696   -0.362893    0.267795
  H     -4.431900   -1.667854    0.179776
  C     -1.743281   -1.249537    0.632450
  H     -2.406335    0.683244    0.189165
  C     -1.933174   -2.739158    0.764260
  C     -0.925920   -3.516639   -0.105777
  H     -2.951197   -3.052750    0.517722
  H     -1.757336   -3.011241    1.817138
  C      0.523117   -3.062508    0.117330
  H     -1.195752   -3.392151   -1.162125
  H     -1.013158   -4.587807    0.113797
  C      0.681370   -1.546168   -0.059882
  H      1.177165   -3.614151   -0.566094
  H      0.832013   -3.326746    1.139971
  C     -0.326347   -0.853396    0.913388
  H     -0.076815   -1.265920    1.908053
  C      0.101059    0.611489    0.912287
  H     -6.189227    0.520952    1.693599
  C      1.643722    0.540249    0.800001
  H     -0.237631    1.139549    1.809815
  H     -0.320142    1.139263    0.049359
  C      2.012222   -0.935052    0.459279
  H      2.136541    0.854741    1.725285
  H      2.010627    1.209501    0.012991
  H      2.252931   -1.462566    1.396864
  C      3.264805   -1.011034   -0.437280
  C      0.418084   -1.128524   -1.512849
  H      0.635972   -0.067661   -1.672281
  H     -0.626480   -1.293037   -1.794874
  H      1.047570   -1.703726   -2.200651
  H      3.054507   -0.467137   -1.369966
  C      3.682288   -2.447534   -0.786735
  C      4.413815   -0.322254    0.249908
  C      5.083512    0.724884   -0.227149
  H      4.713826   -0.750281    1.211785
  H      4.782125    1.151204   -1.189499
  C      6.226873    1.418544    0.459138
  C      5.798895    2.848965    0.825976
  C      7.500315    1.396034   -0.421960
  H      6.455920    0.872263    1.388255
  H      7.251310    1.906886   -1.366330
  C      7.916028   -0.041385   -0.746248
  C      8.667580    2.138981    0.234052
  H      5.651587    3.450676   -0.079778
  H      6.544611    3.350023    1.450164
  H      4.853157    2.833109    1.377568
  H      7.121631   -0.584298   -1.267250
  H      8.144593   -0.588932    0.177545
  H      8.812490   -0.054830   -1.375834
  H      8.468490    3.207909    0.351558
  H      9.574747    2.034968   -0.371288
  H      8.878361    1.720356    1.226783
  H      2.950528   -2.939177   -1.432766
  H      3.795146   -3.051551    0.122012
  H      4.644061   -2.443918   -1.311045

----------------------------
CARTESIAN COORDINATES (A.U.)
----------------------------
  NO LB      ZA    FRAG     MASS         X           Y           Z
   0 C     6.0000    0    12.011   -9.443142    0.406544   -0.943905
   1 C     6.0000    0    12.011  -12.179000   -0.347332   -1.250915
   2 C     6.0000    0    12.011  -13.897124    1.436824    0.255256
   3 H     1.0000    0     1.008  -12.473836   -2.302597   -0.635184
   4 H     1.0000    0     1.008  -12.725916   -0.216874   -3.252369
   5 C     6.0000    0    12.011   -8.926872    3.082033   -1.571760
   6 C     6.0000    0    12.011  -10.685917    4.951463   -0.313307
   7 C     6.0000    0    12.011  -13.467832    4.171512   -0.576583
   8 H     1.0000    0     1.008  -10.385839    6.847919   -1.085955
   9 H     1.0000    0     1.008  -10.207205    5.038095    1.708927
  10 H     1.0000    0     1.008  -14.054657    4.349802   -2.559871
  11 H     1.0000    0     1.008  -14.669060    5.432594    0.544863
  12 O     8.0000    0    15.999  -13.498386    1.125107    2.923940
  13 H     1.0000    0     1.008  -15.879578    0.920124   -0.061840
  14 C     6.0000    0    12.011   -7.704889   -1.244151   -0.047372
  15 C     6.0000    0    12.011   -7.110614    3.799550   -3.176296
  16 H     1.0000    0     1.008   -5.887083    2.425508   -4.088756
  17 H     1.0000    0     1.008   -6.822075    5.783846   -3.626338
  18 C     6.0000    0    12.011   -5.090348   -0.685767    0.506059
  19 H     1.0000    0     1.008   -8.375076   -3.151787    0.339727
  20 C     6.0000    0    12.011   -3.294323   -2.361283    1.195157
  21 H     1.0000    0     1.008   -4.547314    1.291144    0.357471
  22 C     6.0000    0    12.011   -3.653170   -5.176258    1.444242
  23 C     6.0000    0    12.011   -1.749736   -6.645485   -0.199889
  24 H     1.0000    0     1.008   -5.576953   -5.768862    0.978353
  25 H     1.0000    0     1.008   -3.320884   -5.690420    3.433893
  26 C     6.0000    0    12.011    0.988549   -5.787302    0.221722
  27 H     1.0000    0     1.008   -2.259644   -6.410236   -2.196098
  28 H     1.0000    0     1.008   -1.914591   -8.669699    0.215045
  29 C     6.0000    0    12.011    1.287603   -2.921834   -0.113160
  30 H     1.0000    0     1.008    2.224519   -6.829755   -1.069763
  31 H     1.0000    0     1.008    1.572277   -6.286640    2.154232
  32 C     6.0000    0    12.011   -0.616706   -1.612685    1.726053
  33 H     1.0000    0     1.008   -0.145159   -2.392243    3.605698
  34 C     6.0000    0    12.011    0.190975    1.155546    1.723972
  35 H     1.0000    0     1.008  -11.695945    0.984456    3.200438
  36 C     6.0000    0    12.011    3.106184    1.020923    1.511782
  37 H     1.0000    0     1.008   -0.449058    2.153436    3.420055
  38 H     1.0000    0     1.008   -0.604981    2.152894    0.093275
  39 C     6.0000    0    12.011    3.802548   -1.766992    0.867911
  40 H     1.0000    0     1.008    4.037477    1.615226    3.260316
  41 H     1.0000    0     1.008    3.799535    2.285626    0.024549
  42 H     1.0000    0     1.008    4.257422   -2.763849    2.639690
  43 C     6.0000    0    12.011    6.169587   -1.910577   -0.826339
  44 C     6.0000    0    12.011    0.790064   -2.132601   -2.858870
  45 H     1.0000    0     1.008    1.201812   -0.127860   -3.160153
  46 H     1.0000    0     1.008   -1.183876   -2.443486   -3.391821
  47 H     1.0000    0     1.008    1.979621   -3.219575   -4.158628
  48 H     1.0000    0     1.008    5.772182   -0.882761   -2.588860
  49 C     6.0000    0    12.011    6.958517   -4.625169   -1.486713
  50 C     6.0000    0    12.011    8.340901   -0.608972    0.472258
  51 C     6.0000    0    12.011    9.606446    1.369832   -0.429249
  52 H     1.0000    0     1.008    8.907840   -1.417825    2.289943
  53 H     1.0000    0     1.008    9.036906    2.175460   -2.247827
  54 C     6.0000    0    12.011   11.767084    2.680660    0.867645
  55 C     6.0000    0    12.011   10.958323    5.383763    1.560868
  56 C     6.0000    0    12.011   14.173542    2.638121   -0.797388
  57 H     1.0000    0     1.008   12.199921    1.648337    2.623422
  58 H     1.0000    0     1.008   13.702990    3.603492   -2.581989
  59 C     6.0000    0    12.011   14.959126   -0.078206   -1.410205
  60 C     6.0000    0    12.011   16.379352    4.042089    0.442294
  61 H     1.0000    0     1.008   10.679952    6.520832   -0.150759
  62 H     1.0000    0     1.008   12.367522    6.330627    2.740412
  63 H     1.0000    0     1.008    9.171137    5.353801    2.603227
  64 H     1.0000    0     1.008   13.457932   -1.104164   -2.394755
  65 H     1.0000    0     1.008   15.391050   -1.112921    0.335512
  66 H     1.0000    0     1.008   16.653192   -0.103614   -2.599950
  67 H     1.0000    0     1.008   16.003127    6.062069    0.664347
  68 H     1.0000    0     1.008   18.093649    3.845533   -0.701633
  69 H     1.0000    0     1.008   16.777671    3.251002    2.318284
  70 H     1.0000    0     1.008    5.575689   -5.554239   -2.707535
  71 H     1.0000    0     1.008    7.171787   -5.766596    0.230570
  72 H     1.0000    0     1.008    8.776003   -4.618336   -2.477515

--------------------------------
INTERNAL COORDINATES (ANGSTROEM)
--------------------------------
 C      0   0   0     0.000000000000     0.00000000     0.00000000
 C      1   0   0     1.510474530117     0.00000000     0.00000000
 C      2   1   0     1.534040552906   110.46502575     0.00000000
 H      2   1   3     1.095934850141   110.72138717   237.87940605
 H      2   1   3     1.100123122551   109.82368673   118.77247738
 C      1   2   3     1.479708195507   113.92365854   306.09926409
 C      6   1   2     1.512809355566   114.40835537    49.79928005
 C      3   2   1     1.529566008952   110.16588236    56.78018473
 H      7   6   1     1.095227884912   110.22109195   188.77643938
 H      7   6   1     1.100650689991   108.27701245    72.11463274
 H      8   3   2     1.098547254210   108.31334147    64.45392552
 H      8   3   2     1.096165623341   109.51496384   181.43472008
 O      3   2   1     1.437379338834   110.66058303   292.78011937
 H      3   2   1     1.097025719680   109.50561241   177.26844831
 C      1   2   3     1.354330575857   121.21940004   122.99104033
 C      6   1   2     1.337485430053   123.15086697   231.75860204
 H     16   6   1     1.086760775058   121.34896981   359.02453842
 H     16   6   1     1.087484981176   120.93286058   178.39316967
 C     15   1   2     1.444750880720   126.12267766   185.01369587
 H     15   1   2     1.089394812039   116.25856342     3.04636884
 C     19  15   1     1.349963503126   126.48678814   186.01260696
 H     19  15   1     1.087731805579   115.78795011     6.47879454
 C     21  19  15     1.507449136365   125.72927125     2.04400581
 C     23  21  19     1.541428461165   111.51565082   124.21837601
 H     23  21  19     1.093385010785   112.39493274     0.60156649
 H     23  21  19     1.101589848670   107.91074307   242.79090690
 C     24  23  21     1.534835953983   112.68340652    51.01251305
 H     24  23  21     1.097350730937   108.99249413   288.88048248
 H     24  23  21     1.096915529988   109.12296119   172.95889217
 C     27  24  23     1.534840588992   111.89306523   306.52724535
 H     27  24  23     1.095059794373   108.91169903   182.99525049
 H     27  24  23     1.100468919954   109.21049790    66.53904663
 C     21  19  15     1.497850277242   122.88525086   179.78286131
 H     33  21  19     1.105351332452   106.47695337   127.76120480
 C     33  21  19     1.525963626719   121.24577271     5.06964097
 H     13   3   2     0.967834514985   107.57938414    42.32911551
 C     35  33  21     1.548383233824   103.58804817   196.96704252
 H     35  33  21     1.095041903847   112.06789279    74.91501853
 H     35  33  21     1.095718884853   110.81120096   315.32108669
 C     30  27  24     1.553755688336   115.99615160   166.26924582
 H     37  35  33     1.094498338755   111.96740850   249.65148272
 H     37  35  33     1.096313063238   110.94109017   131.06143891
 H     40  30  27     1.102396121993   106.43917339   321.26595885
 C     40  30  27     1.542256561280   118.81880434    82.03699247
 C     30  27  24     1.534554963650   111.13151980   294.10782420
 H     45  30  27     1.094679807246   111.56161616   186.28061082
 H     45  30  27     1.094402576291   111.52111306    66.25394125
 H     45  30  27     1.095528512954   110.66886154   306.10225936
 H     44  40  30     1.099978155868   108.25712648    60.98233042
 C     44  40  30     1.536211388513   113.51736592   300.13845701
 C     44  40  30     1.505612041223   109.38693051   178.27003887
 C     51  44  40     1.331381437816   125.46013734   239.88432444
 H     51  44  40     1.094724567466   115.55042522    61.03725853
 H     52  51  44     1.094851646888   118.86448506     1.16459536
 C     52  51  44     1.503138838631   125.58914994   179.70791192
 C     55  52  51     1.537478222159   109.05892576   245.70930216
 C     55  52  51     1.548707573586   111.03826061   121.54685557
 H     55  52  51     1.101882394117   108.31933595     3.65964868
 H     57  55  52     1.102183328803   107.15528690    59.32006390
 C     57  55  52     1.531062470860   110.94107112   301.21295056
 C     57  55  52     1.531283694633   112.08670718   178.02944542
 H     56  55  52     1.097335915494   110.52296195   292.61594564
 H     56  55  52     1.093966099013   111.87079046   172.05488884
 H     56  55  52     1.094954850442   110.31323309    51.89261162
 H     60  57  55     1.094196114740   111.68811716    58.69304539
 H     60  57  55     1.097927284018   110.27454997   298.95369612
 H     60  57  55     1.095537435414   110.81940875   179.56821503
 H     61  57  55     1.093640799139   112.42526757   295.47845118
 H     61  57  55     1.095539898005   110.39121398   175.27982985
 H     61  57  55     1.097811627575   110.41066320    56.27361234
 H     50  44  40     1.092951221695   111.90946890    67.40265755
 H     50  44  40     1.096993544669   110.75599061   306.68992508
 H     50  44  40     1.095408303873   110.14530560   187.35818879

---------------------------
INTERNAL COORDINATES (A.U.)
---------------------------
 C      0   0   0     0.000000000000     0.00000000     0.00000000
 C      1   0   0     2.854383194184     0.00000000     0.00000000
 C      2   1   0     2.898916523322   110.46502575     0.00000000
 H      2   1   3     2.071016727386   110.72138717   237.87940605
 H      2   1   3     2.078931415215   109.82368673   118.77247738
 C      1   2   3     2.796243247627   113.92365854   306.09926409
 C      6   1   2     2.858795374854   114.40835537    49.79928005
 C      3   2   1     2.890460860674   110.16588236    56.78018473
 H      7   6   1     2.069680756718   110.22109195   188.77643938
 H      7   6   1     2.079928373194   108.27701245    72.11463274
 H      8   3   2     2.075953455628   108.31334147    64.45392552
 H      8   3   2     2.071452825534   109.51496384   181.43472008
 O      3   2   1     2.716253300953   110.66058303   292.78011937
 H      3   2   1     2.073078172063   109.50561241   177.26844831
 C      1   2   3     2.559313883165   121.21940004   122.99104033
 C      6   1   2     2.527481170911   123.15086697   231.75860204
 H     16   6   1     2.053680237948   121.34896981   359.02453842
 H     16   6   1     2.055048789176   120.93286058   178.39316967
 C     15   1   2     2.730183496302   126.12267766   185.01369587
 H     15   1   2     2.058657846468   116.25856342     3.04636884
 C     19  15   1     2.551061311696   126.48678814   186.01260696
 H     19  15   1     2.055515219700   115.78795011     6.47879454
 C     21  19  15     2.848666028546   125.72927125     2.04400581
 C     23  21  19     2.912877646633   111.51565082   124.21837601
 H     23  21  19     2.066198229318   112.39493274     0.60156649
 H     23  21  19     2.081703125894   107.91074307   242.79090690
 C     24  23  21     2.900419613524   112.68340652    51.01251305
 H     24  23  21     2.073692354330   108.99249413   288.88048248
 H     24  23  21     2.072869943723   109.12296119   172.95889217
 C     27  24  23     2.900428372422   111.89306523   306.52724535
 H     27  24  23     2.069363111633   108.91169903   182.99525049
 H     27  24  23     2.079584877604   109.21049790    66.53904663
 C     21  19  15     2.830526813604   122.88525086   179.78286131
 H     33  21  19     2.088811300099   106.47695337   127.76120480
 C     33  21  19     2.883653344824   121.24577271     5.06964097
 H     13   3   2     1.828942176278   107.57938414    42.32911551
 C     35  33  21     2.926020262283   103.58804817   196.96704252
 H     35  33  21     2.069329303438   112.06789279    74.91501853
 H     35  33  21     2.070608612139   110.81120096   315.32108669
 C     30  27  24     2.936172729977   115.99615160   166.26924582
 H     37  35  33     2.068302114278   111.96740850   249.65148272
 H     37  35  33     2.071731446561   110.94109017   131.06143891
 H     40  30  27     2.083226761663   106.43917339   321.26595885
 C     40  30  27     2.914442529063   118.81880434    82.03699247
 C     30  27  24     2.899888618749   111.13151980   294.10782420
 H     45  30  27     2.068645040028   111.56161616   186.28061082
 H     45  30  27     2.068121149447   111.52111306    66.25394125
 H     45  30  27     2.070248861385   110.66886154   306.10225936
 H     44  40  30     2.078657467887   108.25712648    60.98233042
 C     44  40  30     2.903018808101   113.51736592   300.13845701
 C     44  40  30     2.845194421845   109.38693051   178.27003887
 C     51  44  40     2.515946297259   125.46013734   239.88432444
 H     51  44  40     2.068729624586   115.55042522    61.03725853
 H     52  51  44     2.068969769891   118.86448506     1.16459536
 C     52  51  44     2.840520746272   125.58914994   179.70791192
 C     55  52  51     2.905412776748   109.05892576   245.70930216
 C     55  52  51     2.926633175608   111.03826061   121.54685557
 H     55  52  51     2.082255956671   108.31933595     3.65964868
 H     57  55  52     2.082824640811   107.15528690    59.32006390
 C     57  55  52     2.893288763850   110.94107112   301.21295056
 C     57  55  52     2.893706816195   112.08670718   178.02944542
 H     56  55  52     2.073664357200   110.52296195   292.61594564
 H     56  55  52     2.067296326928   111.87079046   172.05488884
 H     56  55  52     2.069164796345   110.31323309    51.89261162
 H     60  57  55     2.067730993659   111.68811716    58.69304539
 H     60  57  55     2.074781881754   110.27454997   298.95369612
 H     60  57  55     2.070265722390   110.81940875   179.56821503
 H     61  57  55     2.066681599255   112.42526757   295.47845118
 H     61  57  55     2.070270376014   110.39121398   175.27982985
 H     61  57  55     2.074563322751   110.41066320    56.27361234
 H     50  44  40     2.065378486739   111.90946890    67.40265755
 H     50  44  40     2.073017370104   110.75599061   306.68992508
 H     50  44  40     2.070021699144   110.14530560   187.35818879

---------------------
BASIS SET INFORMATION
---------------------
There are 3 groups of distinct atoms

 Group   1 Type C   : 7s4p contracted to 4s3p pattern {4111/211}
 Group   2 Type H   : 5s contracted to 3s pattern {311}
 Group   3 Type O   : 7s4p contracted to 4s3p pattern {4111/211}

Atom   0C    basis set group =>   1
Atom   1C    basis set group =>   1
Atom   2C    basis set group =>   1
Atom   3H    basis set group =>   2
Atom   4H    basis set group =>   2
Atom   5C    basis set group =>   1
Atom   6C    basis set group =>   1
Atom   7C    basis set group =>   1
Atom   8H    basis set group =>   2
Atom   9H    basis set group =>   2
Atom  10H    basis set group =>   2
Atom  11H    basis set group =>   2
Atom  12O    basis set group =>   3
Atom  13H    basis set group =>   2
Atom  14C    basis set group =>   1
Atom  15C    basis set group =>   1
Atom  16H    basis set group =>   2
Atom  17H    basis set group =>   2
Atom  18C    basis set group =>   1
Atom  19H    basis set group =>   2
Atom  20C    basis set group =>   1
Atom  21H    basis set group =>   2
Atom  22C    basis set group =>   1
Atom  23C    basis set group =>   1
Atom  24H    basis set group =>   2
Atom  25H    basis set group =>   2
Atom  26C    basis set group =>   1
Atom  27H    basis set group =>   2
Atom  28H    basis set group =>   2
Atom  29C    basis set group =>   1
Atom  30H    basis set group =>   2
Atom  31H    basis set group =>   2
Atom  32C    basis set group =>   1
Atom  33H    basis set group =>   2
Atom  34C    basis set group =>   1
Atom  35H    basis set group =>   2
Atom  36C    basis set group =>   1
Atom  37H    basis set group =>   2
Atom  38H    basis set group =>   2
Atom  39C    basis set group =>   1
Atom  40H    basis set group =>   2
Atom  41H    basis set group =>   2
Atom  42H    basis set group =>   2
Atom  43C    basis set group =>   1
Atom  44C    basis set group =>   1
Atom  45H    basis set group =>   2
Atom  46H    basis set group =>   2
Atom  47H    basis set group =>   2
Atom  48H    basis set group =>   2
Atom  49C    basis set group =>   1
Atom  50C    basis set group =>   1
Atom  51C    basis set group =>   1
Atom  52H    basis set group =>   2
Atom  53H    basis set group =>   2
Atom  54C    basis set group =>   1
Atom  55C    basis set group =>   1
Atom  56C    basis set group =>   1
Atom  57H    basis set group =>   2
Atom  58H    basis set group =>   2
Atom  59C    basis set group =>   1
Atom  60C    basis set group =>   1
Atom  61H    basis set group =>   2
Atom  62H    basis set group =>   2
Atom  63H    basis set group =>   2
Atom  64H    basis set group =>   2
Atom  65H    basis set group =>   2
Atom  66H    basis set group =>   2
Atom  67H    basis set group =>   2
Atom  68H    basis set group =>   2
Atom  69H    basis set group =>   2
Atom  70H    basis set group =>   2
Atom  71H    basis set group =>   2
Atom  72H    basis set group =>   2

-------------------------
BASIS SET IN INPUT FORMAT
-------------------------

 # Basis set for element : H 
 NewGTO H 
 S 3 
   1    1357.7500000000      0.0012928364
   2      54.3100000000      0.0588280685
   3       4.3448000000      0.9761499708
 S 1 
   1       0.6604910000      1.0000000000
 S 1 
   1       0.1366870000      1.0000000000
  end;

 # Basis set for element : C 
 NewGTO C 
 S 4 
   1  139534.0000000000      0.0001655246
   2    5581.3600000000      0.0074486101
   3     446.5090000000      0.1285821065
   4      67.4620000000      0.9218029311
 S 1 
   1      15.0674000000      1.0000000000
 S 1 
   1       3.9387600000      1.0000000000
 S 1 
   1       0.2999150000      1.0000000000
 P 2 
   1      28.3900000000      0.0816325586
   2       4.3676900000      0.9660360576
 P 1 
   1       0.8698170000      1.0000000000
 P 1 
   1       0.1889340000      1.0000000000
  end;

 # Basis set for element : O 
 NewGTO O 
 S 4 
   1  253789.0000000000      0.0001641076
   2   10151.6000000000      0.0074010921
   3     812.1250000000      0.1277711901
   4     122.6930000000      0.9223372164
 S 1 
   1      27.5608000000      1.0000000000
 S 1 
   1       7.3172600000      1.0000000000
 S 1 
   1       0.5792400000      1.0000000000
 P 2 
   1      53.4157000000      0.0793786106
   2       8.2177900000      0.9670506337
 P 1 
   1       1.6754400000      1.0000000000
 P 1 
   1       0.3506720000      1.0000000000
  end;

---------------------------------
AUXILIARY/J BASIS SET INFORMATION
---------------------------------
There are 3 groups of distinct atoms

 Group   1 Type C   : 12s5p4d2f1g contracted to 6s4p3d1f1g pattern {711111/2111/211/2/1}
 Group   2 Type H   : 5s2p1d contracted to 3s1p1d pattern {311/2/1}
 Group   3 Type O   : 12s5p4d2f1g contracted to 6s4p3d1f1g pattern {711111/2111/211/2/1}

Atom   0C    basis set group =>   1
Atom   1C    basis set group =>   1
Atom   2C    basis set group =>   1
Atom   3H    basis set group =>   2
Atom   4H    basis set group =>   2
Atom   5C    basis set group =>   1
Atom   6C    basis set group =>   1
Atom   7C    basis set group =>   1
Atom   8H    basis set group =>   2
Atom   9H    basis set group =>   2
Atom  10H    basis set group =>   2
Atom  11H    basis set group =>   2
Atom  12O    basis set group =>   3
Atom  13H    basis set group =>   2
Atom  14C    basis set group =>   1
Atom  15C    basis set group =>   1
Atom  16H    basis set group =>   2
Atom  17H    basis set group =>   2
Atom  18C    basis set group =>   1
Atom  19H    basis set group =>   2
Atom  20C    basis set group =>   1
Atom  21H    basis set group =>   2
Atom  22C    basis set group =>   1
Atom  23C    basis set group =>   1
Atom  24H    basis set group =>   2
Atom  25H    basis set group =>   2
Atom  26C    basis set group =>   1
Atom  27H    basis set group =>   2
Atom  28H    basis set group =>   2
Atom  29C    basis set group =>   1
Atom  30H    basis set group =>   2
Atom  31H    basis set group =>   2
Atom  32C    basis set group =>   1
Atom  33H    basis set group =>   2
Atom  34C    basis set group =>   1
Atom  35H    basis set group =>   2
Atom  36C    basis set group =>   1
Atom  37H    basis set group =>   2
Atom  38H    basis set group =>   2
Atom  39C    basis set group =>   1
Atom  40H    basis set group =>   2
Atom  41H    basis set group =>   2
Atom  42H    basis set group =>   2
Atom  43C    basis set group =>   1
Atom  44C    basis set group =>   1
Atom  45H    basis set group =>   2
Atom  46H    basis set group =>   2
Atom  47H    basis set group =>   2
Atom  48H    basis set group =>   2
Atom  49C    basis set group =>   1
Atom  50C    basis set group =>   1
Atom  51C    basis set group =>   1
Atom  52H    basis set group =>   2
Atom  53H    basis set group =>   2
Atom  54C    basis set group =>   1
Atom  55C    basis set group =>   1
Atom  56C    basis set group =>   1
Atom  57H    basis set group =>   2
Atom  58H    basis set group =>   2
Atom  59C    basis set group =>   1
Atom  60C    basis set group =>   1
Atom  61H    basis set group =>   2
Atom  62H    basis set group =>   2
Atom  63H    basis set group =>   2
Atom  64H    basis set group =>   2
Atom  65H    basis set group =>   2
Atom  66H    basis set group =>   2
Atom  67H    basis set group =>   2
Atom  68H    basis set group =>   2
Atom  69H    basis set group =>   2
Atom  70H    basis set group =>   2
Atom  71H    basis set group =>   2
Atom  72H    basis set group =>   2

-------------------------------------
AUXILIARY/J BASIS SET IN INPUT FORMAT
-------------------------------------

 # Auxiliary/J basis set for element : H 
 NewAuxJGTO H 
 S 3 
   1      15.6752927000      0.1007184237
   2       3.6063578000      0.3404257499
   3       1.2080016000      0.6491996172
 S 1 
   1       0.4726794000      1.0000000000
 S 1 
   1       0.2018100000      1.0000000000
 P 2 
   1       2.0281365000      0.5596620919
   2       0.5358730000      0.5596620919
 D 1 
   1       2.2165124000      1.0000000000
  end;

 # Auxiliary/J basis set for element : C 
 NewAuxJGTO C 
 S 7 
   1    1861.0916331000      0.0134602335
   2     642.9939764000      0.0299160374
   3     235.1105725000      0.1008649584
   4      90.7028894000      0.2370970548
   5      36.7794552000      0.3924037254
   6      15.6046273000      0.3195862154
   7       6.8907294000      0.0530104441
 S 1 
   1       3.1478850000     -1.0000000000
 S 1 
   1       1.4777287000      1.0000000000
 S 1 
   1       0.7076466000      1.0000000000
 S 1 
   1       0.3430122000      1.0000000000
 S 1 
   1       0.1669453000      1.0000000000
 P 2 
   1      13.5472892000     -0.6769313712
   2       5.4669419000     -0.3779500978
 P 1 
   1       2.1751721000      1.0000000000
 P 1 
   1       0.8582194000      1.0000000000
 P 1 
   1       0.3376720000      1.0000000000
 D 2 
   1       5.9287253000     -0.3533329857
   2       1.9809209000     -0.7456525731
 D 1 
   1       0.8055417000     -1.0000000000
 D 1 
   1       0.3531244000     -1.0000000000
 F 2 
   1       1.6755626000      0.6311076882
   2       0.5997536000      0.4968166032
 G 1 
   1       1.0024600000     -1.0000000000
  end;

 # Auxiliary/J basis set for element : O 
 NewAuxJGTO O 
 S 7 
   1    2876.8216605000      0.0168151159
   2    1004.7443032000      0.0340137548
   3     369.7579954000      0.1194951309
   4     142.9442404000      0.2664627624
   5      57.8366425000      0.4202764046
   6      24.3864983000      0.2765077335
   7      10.6622662000      0.0057008815
 S 1 
   1       4.8070437000     -1.0000000000
 S 1 
   1       2.2210770000      1.0000000000
 S 1 
   1       1.0447795000      1.0000000000
 S 1 
   1       0.4968425000      1.0000000000
 S 1 
   1       0.2371384000      1.0000000000
 P 2 
   1      64.2613382000     -0.2731534179
   2      16.3006076000     -0.8168011598
 P 1 
   1       4.3550542000      1.0000000000
 P 1 
   1       1.2019554000      1.0000000000
 P 1 
   1       0.3354196000      1.0000000000
 D 2 
   1       9.2146611000     -0.4661230638
   2       2.8435251000     -0.6600908911
 D 1 
   1       0.9955759000     -1.0000000000
 D 1 
   1       0.3649441000     -1.0000000000
 F 2 
   1       2.6420115000      0.5931563945
   2       0.7345613000      0.5931563945
 G 1 
   1       1.3931000000     -1.0000000000
  end;


Checking for AutoStart:
The File: inpJ.gbw exists
Trying to determine its content:
     ... Fine, the file contains calculation information
     ... Fine, the calculation information was read
     ... Fine, the file contains a basis set
     ... Fine, the basis set was read
     ... Fine, the file contains a geometry
     ... Fine, the geometry was read
     ... Fine, the file contains a set of orbitals
     ... Fine, the orbitals can be read
     => possible old guess file was deleted
     => GBW file was renamed to GES file
     => GES file is set as startup file
     => Guess is set to MORead
     ... now leaving AutoStart



           ************************************************************
           *        Program running with 4 parallel MPI-processes     *
           *              working on a common directory               *
           ************************************************************
------------------------------------------------------------------------------
                             ORCA STARTUP CALCULATIONS
                           -- RI-GTO INTEGRALS CHOSEN --
------------------------------------------------------------------------------
------------------------------------------------------------------------------
                   ___                                                        
                  /   \      - P O W E R E D   B Y -                         
                 /     \                                                     
                 |  |  |   _    _      __       _____    __    __             
                 |  |  |  | |  | |    /  \     |  _  \  |  |  /  |          
                  \  \/   | |  | |   /    \    | | | |  |  | /  /          
                 / \  \   | |__| |  /  /\  \   | |_| |  |  |/  /          
                |  |  |   |  __  | /  /__\  \  |    /   |      \           
                |  |  |   | |  | | |   __   |  |    \   |  |\   \          
                \     /   | |  | | |  |  |  |  | |\  \  |  | \   \       
                 \___/    |_|  |_| |__|  |__|  |_| \__\ |__|  \__/        
                                                                              
                      - O R C A' S   B I G   F R I E N D -                    
                                      &                                       
                       - I N T E G R A L  F E E D E R -                       
                                                                              
 v1 FN, 2020, v2 2021, v3 2022-2024                                           
------------------------------------------------------------------------------


----------------------
SHARK INTEGRAL PACKAGE
----------------------

Number of atoms                             ...     73
Number of basis functions                   ...    509
Number of shells                            ...    335
Maximum angular momentum                    ...      1
Integral batch strategy                     ... SHARK/LIBINT Hybrid
RI-J (if used) integral strategy            ... SPLIT-RIJ (Revised 2003 algorithm where possible)
Printlevel                                  ...      1
Contraction scheme used                     ... SEGMENTED contraction
Prescreening option                         ... SCHWARTZ
   Thresh                                   ... 3.000e-11
   Tcut                                     ... 1.000e-12
   Tpresel                                  ... 1.000e-12 
Coulomb Range Separation                    ... NOT USED
Exchange Range Separation                   ... NOT USED
Multipole approximations                    ... NOT USED
Finite Nucleus Model                        ... NOT USED
CABS basis                                  ... NOT available
Auxiliary Coulomb fitting basis             ... AVAILABLE
   # of basis functions in Aux-J            ...   1905
   # of shells in Aux-J                     ...    655
   Maximum angular momentum in Aux-J        ...      4
Auxiliary J/K fitting basis                 ... NOT available
Auxiliary Correlation fitting basis         ... NOT available
Auxiliary 'external' fitting basis          ... NOT available

Checking pre-screening integrals            ... done (  0.0 sec) Dimension = 335
Check shell pair data                       ... done (  0.0 sec)
Shell pair information
Shell pair cut-off parameter TPreSel        ...   1.0e-12
Total number of shell pairs                 ...     56280
Shell pairs after pre-screening             ...     21657
Total number of primitive shell pairs       ...    145865
Primitive shell pairs kept                  ...     37256
          la=0 lb=0:  10887 shell pairs
          la=1 lb=0:   8922 shell pairs
          la=1 lb=1:   1848 shell pairs

Calculating one electron integrals          ... done (  0.0 sec)
Calculating RI/J V-Matrix + Cholesky decomp.... done (  0.2 sec)
Calculating Nuclear repulsion               ... done (  0.0 sec) ENN=   2772.582069227696 Eh

Diagonalization of the overlap matrix:
Smallest eigenvalue                        ... 7.566e-03
Time for diagonalization                   ...    0.034 sec
Threshold for overlap eigenvalues          ... 1.000e-07
Number of eigenvalues below threshold      ... 0
Time for construction of square roots      ...    0.014 sec
Total time needed                          ...    0.051 sec

-------------------
DFT GRID GENERATION
-------------------

General Integration Accuracy     IntAcc      ... 4.388
Radial Grid Type                 RadialGrid  ... OptM3 with GC (2021)
Angular Grid (max. ang.)         AngularGrid ... 4 (Lebedev-302)
Angular grid pruning method      GridPruning ... 4 (adaptive)
Weight generation scheme         WeightScheme... mBecke (2022)
Basis function cutoff            BFCut       ... 1.0000e-11
Integration weight cutoff        WCut        ... 1.0000e-14
Partially contracted basis set               ... off
Rotationally invariant grid construction     ... off
Angular grids for H and He will be reduced by one unit

Total number of grid points                  ...   310038
Total number of batches                      ...     4882
Average number of points per batch           ...       63
Average number of grid points per atom       ...     4247

--------------------
COSX GRID GENERATION
--------------------

GRIDX 1
-------
General Integration Accuracy     IntAcc      ... 3.816
Radial Grid Type                 RadialGrid  ... OptM3 with GC (2021)
Angular Grid (max. ang.)         AngularGrid ... 1 (Lebedev-50)
Angular grid pruning method      GridPruning ... 4 (adaptive)
Weight generation scheme         WeightScheme... mBecke (2022)
Basis function cutoff            BFCut       ... 1.0000e-11
Integration weight cutoff        WCut        ... 1.0000e-14
Partially contracted basis set               ... on
Rotationally invariant grid construction     ... off
Angular grids for H and He will be reduced by one unit

Total number of grid points                  ...    39409
Total number of batches                      ...      351
Average number of points per batch           ...      112
Average number of grid points per atom       ...      540
UseSFitting                                  ... on

GRIDX 2
-------
General Integration Accuracy     IntAcc      ... 4.020
Radial Grid Type                 RadialGrid  ... OptM3 with GC (2021)
Angular Grid (max. ang.)         AngularGrid ... 2 (Lebedev-110)
Angular grid pruning method      GridPruning ... 4 (adaptive)
Weight generation scheme         WeightScheme... mBecke (2022)
Basis function cutoff            BFCut       ... 1.0000e-11
Integration weight cutoff        WCut        ... 1.0000e-14
Partially contracted basis set               ... on
Rotationally invariant grid construction     ... off
Angular grids for H and He will be reduced by one unit

Total number of grid points                  ...    81448
Total number of batches                      ...      679
Average number of points per batch           ...      119
Average number of grid points per atom       ...     1116
UseSFitting                                  ... on

GRIDX 3
-------
General Integration Accuracy     IntAcc      ... 4.338
Radial Grid Type                 RadialGrid  ... OptM3 with GC (2021)
Angular Grid (max. ang.)         AngularGrid ... 3 (Lebedev-194)
Angular grid pruning method      GridPruning ... 4 (adaptive)
Weight generation scheme         WeightScheme... mBecke (2022)
Basis function cutoff            BFCut       ... 1.0000e-11
Integration weight cutoff        WCut        ... 1.0000e-14
Partially contracted basis set               ... on
Rotationally invariant grid construction     ... off
Angular grids for H and He will be reduced by one unit

Total number of grid points                  ...   176405
Total number of batches                      ...     1421
Average number of points per batch           ...      124
Average number of grid points per atom       ...     2417
UseSFitting                                  ... on
Initializing property integral containers    ... done (  0.0 sec)

SHARK setup successfully completed in   3.6 seconds

Maximum memory used throughout the entire STARTUP-calculation: 85.5 MB


           ************************************************************
           *        Program running with 4 parallel MPI-processes     *
           *              working on a common directory               *
           ************************************************************
-------------------------------------------------------------------------------
                                 ORCA GUESS
                   Start orbitals & Density for SCF / CASSCF
-------------------------------------------------------------------------------

------------
SCF SETTINGS
------------
Hamiltonian:
 Density Functional     Method          .... DFT(GTOs)
 Exchange Functional    Exchange        .... PBE
   PBE kappa parameter   XKappa         ....  0.804000
   PBE mue parameter    XMuePBE         ....  0.219520
 Correlation Functional Correlation     .... PBE
   PBE beta parameter  CBetaPBE         ....  0.066725
 LDA part of GGA corr.  LDAOpt          .... PW91-LDA
 Gradients option       PostSCFGGA      .... off
 Hybrid DFT is turned on
   Fraction HF Exchange ScalHFX         ....  0.250000
   Scaling of DF-GGA-X  ScalDFX         ....  0.750000
   Scaling of DF-GGA-C  ScalDFC         ....  1.000000
   Scaling of DF-LDA-C  ScalLDAC        ....  1.000000
   Perturbative correction              ....  0.000000
   NL short-range parameter             ....  6.900000
 RI-approximation to the Coulomb term is turned on
   Number of AuxJ basis functions       .... 1905
   RIJ-COSX (HFX calculated with COS-X)).... on


General Settings:
 Integral files         IntName         .... inpJ
 Hartree-Fock type      HFTyp           .... RHF
 Total Charge           Charge          ....    0
 Multiplicity           Mult            ....    1
 Number of Electrons    NEL             ....  220
 Basis Dimension        Dim             ....  509
 Nuclear Repulsion      ENuc            ....   2772.5820692277 Eh

Convergence Acceleration:
 AO-DIIS                CNVDIIS         .... on
   Start iteration      DIISMaxIt       ....    12
   Startup error        DIISStart       ....  0.200000
   # of expansion vecs  DIISMaxEq       ....     5
   Bias factor          DIISBfac        ....   1.050
   Max. coefficient     DIISMaxC        ....  10.000
 MO-DIIS                CNVKDIIS        .... off
 Trust-Rad. Augm. Hess. CNVTRAH         .... auto
   Auto Start mean grad. ratio tolernc. ....  1.125000
   Auto Start start iteration           ....     1
   Auto Start num. interpolation iter.  ....    10
   Max. Number of Micro iterations      ....    24
   Max. Number of Macro iterations      .... Maxiter - #DIIS iter
   Number of Davidson start vectors     ....     2
   Converg. threshold    (grad. norm)   ....   1.000e-04
   Grad. Scal. Fac. for Micro threshold ....   0.100
   Minimum threshold for Micro iter.    ....   1.000e-02
   NR start threshold (gradient norm)   ....   1.000e-04
   Initial trust radius                 ....   0.400
   Minimum AH scaling param. (alpha)    ....   1.000
   Maximum AH scaling param. (alpha)    .... 1000.000
   Quad. conv. algorithm                .... NR
   White noise on init. David. guess    .... on
   Maximum white noise                  ....   0.010
   Pseudo random numbers                .... off
   Inactive MOs                         .... canonical
   Orbital update algorithm             .... Taylor
   Preconditioner                       .... Diag
   Full preconditioner red. dimension   ....   250
 SOSCF                  CNVSOSCF        .... off
 Level Shifting         CNVShift        .... on
   Level shift para.    LevelShift      ....    0.2500
   Turn off err/grad.   ShiftErr        ....    0.0010
 Zerner damping         CNVZerner       .... off
 Static damping         CNVDamp         .... on
   Fraction old density DampFac         ....    0.7000
   Max. Damping (<1)    DampMax         ....    0.9800
   Min. Damping (>=0)   DampMin         ....    0.0000
   Turn off err/grad.   DampErr         ....    0.1000

SCF Procedure:
 Maximum # iterations   MaxIter         ....   125
 SCF integral mode      SCFMode         .... Direct
   Integral package                     .... SHARK and LIBINT hybrid scheme
 Reset frequency        DirectResetFreq ....    20
 Integral Threshold     Thresh          ....  3.000e-11 Eh
 Primitive CutOff       TCut            ....  1.000e-12 Eh

Convergence Tolerance:
 Convergence Check Mode ConvCheckMode   .... Total+1el-Energy
 Convergence forced     ConvForced      .... 0
 Energy Change          TolE            ....  1.000e-07 Eh
 1-El. energy change                    ....  1.000e-04 Eh
 DIIS Error             TolErr          ....  1.000e-07

---------------------
INITIAL GUESS: MOREAD
---------------------
Guess MOs are being read from file: inpJ.ges
Input Geometry matches current geometry (good)
Input basis set matches current basis set (good)
Occupation numbers will be reassigned to an Aufbau configuration
MOs were renormalized
MOs were reorthogonalized (Cholesky)
                      ------------------
                      INITIAL GUESS DONE (   0.1 sec)
                      ------------------
             **** ENERGY FILE WAS UPDATED (inpJ.en.tmp) ****
Finished Guess after   0.2 sec
Maximum memory used throughout the entire GUESS-calculation: 36.5 MB


           ************************************************************
           *        Program running with 4 parallel MPI-processes     *
           *              working on a common directory               *
           ************************************************************

-------------------------------------------------------------------------------------------
                                      ORCA LEAN-SCF
                              memory conserving SCF solver
-------------------------------------------------------------------------------------------

--------------------
CPCM SOLVATION MODEL
--------------------
CPCM parameters:
  Epsilon                                         ...       4.8030
  Refrac                                          ...       1.4459
  Rsolv                                           ...       1.3000
  Surface type                                    ... GAUSSIAN VDW
  Discretization scheme                           ... Constant charge density
    Threshold for H atoms                         ...       5.0000 (charges/Ang^2)
    Threshold for non-H atoms                     ...       5.0000 (charges/Ang^2)
  Epsilon function type                           ...         CPCM
Solvent:                                          ... CHLOROFORM
Radii:
  Scheme                                          ... Element-dependent radii
  Radius for C  used is    3.8550 Bohr (=   2.0400 Ang.)
  Radius for H  used is    2.4944 Bohr (=   1.3200 Ang.)
  Radius for O  used is    3.4469 Bohr (=   1.8240 Ang.)
Calculating surface                               ...        done! (  0.0s)
Cavity surface points                             ...         5405
Cavity Volume                                     ...    3613.0326
Cavity Surface-area                               ...    1803.5209
Calculating surface distance matrix               ...        done! (  0.2s)
Performing Cholesky decomposition & store         ...        done! (  1.4s)
Overall time for CPCM initialization              ...                 1.6s

----------------------------------------D-I-I-S--------------------------------------------
Iteration    Energy (Eh)           Delta-E    RMSDP     MaxDP     DIISErr   Damp  Time(sec)
-------------------------------------------------------------------------------------------
               ***  Starting incremental Fock matrix formation  ***
    1    -1165.5129910420400847     0.00e+00  4.11e-08  5.54e-06  6.35e-06  0.700   6.1

  HOMO= 109 E= -6.012 eV LUMO=  5.936 eV gap=  11.949 eV
    2    -1165.5129910773630399    -3.53e-08  2.78e-08  3.32e-06  3.19e-06  0.700   2.0
                 **** Energy Check signals convergence ****

  HOMO= 109 E= -6.012 eV LUMO=  5.936 eV gap=  11.949 eV

               *****************************************************
               *                     SUCCESS                       *
               *           SCF CONVERGED AFTER   2 CYCLES          *
               *****************************************************

Recomputing exchange energy using gridx3       ... done (    8.088 sec)
Old exchange energy                            :    -42.067101004 Eh
New exchange energy                            :    -42.067103851 Eh
Exchange energy change after final integration :     -0.000002846 Eh
Total energy after final integration           :  -1165.512993923 Eh
             **** ENERGY FILE WAS UPDATED (inpJ.en.tmp) ****

----------------
TOTAL SCF ENERGY
----------------

Total Energy       :      -1165.51299392349165 Eh          -31715.22094 eV

Components:
Nuclear Repulsion  :       2772.58206922769568 Eh           75445.79369 eV
Electronic Energy  :      -3938.08165519019985 Eh         -107160.64978 eV
One Electron Energy:      -7086.92265244606097 Eh         -192844.96942 eV
Two Electron Energy:       3148.84099725586111 Eh           85684.31964 eV
CPCM Dielectric    :         -0.01340511485878 Eh              -0.36477 eV

Virial components:
Potential Energy   :      -2322.40957823444387 Eh          -63195.97745 eV
Kinetic Energy     :       1156.89658431095245 Eh           31480.75651 eV
Virial Ratio       :          2.00744786502907

DFT components:
N(Alpha)           :      110.000001175304 electrons
N(Beta)            :      110.000001175304 electrons
N(Total)           :      220.000002350607 electrons
E(X)               :     -125.743863808991 Eh       
E(C)               :       -7.326494249697 Eh       
E(XC)              :     -133.070358058688 Eh       

CPCM Solvation Model Properties:
Surface-charge          :         -0.03373305766373
Corrected charge        :         -0.00000000000000
Outlying charge corr.   :          0.00003974349986 Eh               0.00108 eV
Free-energy (cav+disp)  :  This term is not implemented in the current solvation scheme

---------------
SCF CONVERGENCE
---------------

  Last Energy change         ...    3.5323e-08  Tolerance :   1.0000e-07
  Last MAX-Density change    ...    3.3221e-06  Tolerance :   1.0000e-05
  Last RMS-Density change    ...    2.7820e-08  Tolerance :   1.0000e-06
  Last DIIS Error            ...    3.1912e-06  Tolerance :   1.0000e-07


----------------
ORBITAL ENERGIES
----------------

  NO   OCC          E(Eh)            E(eV) 
   0   2.0000     -19.212520      -522.7993 
   1   2.0000     -10.300512      -280.2912 
   2   2.0000     -10.270564      -279.4763 
   3   2.0000     -10.268416      -279.4178 
   4   2.0000     -10.263839      -279.2932 
   5   2.0000     -10.257633      -279.1244 
   6   2.0000     -10.257202      -279.1126 
   7   2.0000     -10.250543      -278.9315 
   8   2.0000     -10.250244      -278.9233 
   9   2.0000     -10.248978      -278.8889 
  10   2.0000     -10.248233      -278.8686 
  11   2.0000     -10.247707      -278.8543 
  12   2.0000     -10.246389      -278.8184 
  13   2.0000     -10.245417      -278.7920 
  14   2.0000     -10.244885      -278.7775 
  15   2.0000     -10.244716      -278.7729 
  16   2.0000     -10.244296      -278.7615 
  17   2.0000     -10.243060      -278.7278 
  18   2.0000     -10.241842      -278.6947 
  19   2.0000     -10.241565      -278.6872 
  20   2.0000     -10.240383      -278.6550 
  21   2.0000     -10.234687      -278.5000 
  22   2.0000     -10.234443      -278.4933 
  23   2.0000     -10.233187      -278.4592 
  24   2.0000     -10.226865      -278.2872 
  25   2.0000     -10.226484      -278.2768 
  26   2.0000     -10.224761      -278.2299 
  27   2.0000     -10.222384      -278.1652 
  28   2.0000     -10.221015      -278.1279 
  29   2.0000      -1.043304       -28.3897 
  30   2.0000      -0.901688       -24.5362 
  31   2.0000      -0.882294       -24.0084 
  32   2.0000      -0.860793       -23.4234 
  33   2.0000      -0.846730       -23.0407 
  34   2.0000      -0.823073       -22.3970 
  35   2.0000      -0.814539       -22.1647 
  36   2.0000      -0.796119       -21.6635 
  37   2.0000      -0.795208       -21.6387 
  38   2.0000      -0.778086       -21.1728 
  39   2.0000      -0.758545       -20.6411 
  40   2.0000      -0.742066       -20.1926 
  41   2.0000      -0.736144       -20.0315 
  42   2.0000      -0.715266       -19.4634 
  43   2.0000      -0.703045       -19.1308 
  44   2.0000      -0.701339       -19.0844 
  45   2.0000      -0.695718       -18.9315 
  46   2.0000      -0.670862       -18.2551 
  47   2.0000      -0.657659       -17.8958 
  48   2.0000      -0.629671       -17.1342 
  49   2.0000      -0.622236       -16.9319 
  50   2.0000      -0.612226       -16.6595 
  51   2.0000      -0.604676       -16.4541 
  52   2.0000      -0.596677       -16.2364 
  53   2.0000      -0.576102       -15.6765 
  54   2.0000      -0.572872       -15.5886 
  55   2.0000      -0.554304       -15.0834 
  56   2.0000      -0.540525       -14.7084 
  57   2.0000      -0.529589       -14.4108 
  58   2.0000      -0.515462       -14.0264 
  59   2.0000      -0.510632       -13.8950 
  60   2.0000      -0.498501       -13.5649 
  61   2.0000      -0.490177       -13.3384 
  62   2.0000      -0.481730       -13.1085 
  63   2.0000      -0.479947       -13.0600 
  64   2.0000      -0.474066       -12.9000 
  65   2.0000      -0.466028       -12.6813 
  66   2.0000      -0.463723       -12.6185 
  67   2.0000      -0.461241       -12.5510 
  68   2.0000      -0.459299       -12.4982 
  69   2.0000      -0.451671       -12.2906 
  70   2.0000      -0.448752       -12.2112 
  71   2.0000      -0.442421       -12.0389 
  72   2.0000      -0.435527       -11.8513 
  73   2.0000      -0.433179       -11.7874 
  74   2.0000      -0.428429       -11.6581 
  75   2.0000      -0.424776       -11.5587 
  76   2.0000      -0.421857       -11.4793 
  77   2.0000      -0.413505       -11.2520 
  78   2.0000      -0.411719       -11.2034 
  79   2.0000      -0.401953       -10.9377 
  80   2.0000      -0.400409       -10.8957 
  81   2.0000      -0.396507       -10.7895 
  82   2.0000      -0.396118       -10.7789 
  83   2.0000      -0.391182       -10.6446 
  84   2.0000      -0.389611       -10.6018 
  85   2.0000      -0.381078       -10.3696 
  86   2.0000      -0.375591       -10.2204 
  87   2.0000      -0.373990       -10.1768 
  88   2.0000      -0.369239       -10.0475 
  89   2.0000      -0.363414        -9.8890 
  90   2.0000      -0.360833        -9.8188 
  91   2.0000      -0.356652        -9.7050 
  92   2.0000      -0.350686        -9.5427 
  93   2.0000      -0.345675        -9.4063 
  94   2.0000      -0.342526        -9.3206 
  95   2.0000      -0.341134        -9.2827 
  96   2.0000      -0.339420        -9.2361 
  97   2.0000      -0.334105        -9.0914 
  98   2.0000      -0.332104        -9.0370 
  99   2.0000      -0.330338        -8.9889 
 100   2.0000      -0.327007        -8.8983 
 101   2.0000      -0.324938        -8.8420 
 102   2.0000      -0.319365        -8.6904 
 103   2.0000      -0.317284        -8.6337 
 104   2.0000      -0.310948        -8.4613 
 105   2.0000      -0.300723        -8.1831 
 106   2.0000      -0.276723        -7.5300 
 107   2.0000      -0.275298        -7.4912 
 108   2.0000      -0.257930        -7.0186 
 109   2.0000      -0.220947        -6.0123 
 110   0.0000      -0.031845        -0.8665 
 111   0.0000       0.019231         0.5233 
 112   0.0000       0.027587         0.7507 
 113   0.0000       0.079955         2.1757 
 114   0.0000       0.086884         2.3642 
 115   0.0000       0.100063         2.7228 
 116   0.0000       0.103310         2.8112 
 117   0.0000       0.106210         2.8901 
 118   0.0000       0.110071         2.9952 
 119   0.0000       0.115752         3.1498 
 120   0.0000       0.116572         3.1721 
*Only the first 10 virtual orbitals were printed.

                    ********************************
                    * MULLIKEN POPULATION ANALYSIS *
                    ********************************

-----------------------
MULLIKEN ATOMIC CHARGES
-----------------------
   0 C :    0.078053
   1 C :   -0.500646
   2 C :   -0.074257
   3 H :    0.222963
   4 H :    0.219873
   5 C :    0.138750
   6 C :   -0.479989
   7 C :   -0.439776
   8 H :    0.225377
   9 H :    0.207391
  10 H :    0.208823
  11 H :    0.227893
  12 O :   -0.488054
  13 H :    0.247353
  14 C :   -0.280275
  15 C :   -0.514104
  16 H :    0.201039
  17 H :    0.196993
  18 C :   -0.260605
  19 H :    0.220165
  20 C :    0.154087
  21 H :    0.219655
  22 C :   -0.479275
  23 C :   -0.427489
  24 H :    0.211830
  25 H :    0.207129
  26 C :   -0.397304
  27 H :    0.208572
  28 H :    0.217373
  29 C :    0.002535
  30 H :    0.222078
  31 H :    0.194547
  32 C :   -0.230047
  33 H :    0.227993
  34 C :   -0.433124
  35 H :    0.340937
  36 C :   -0.417047
  37 H :    0.207995
  38 H :    0.198090
  39 C :   -0.187282
  40 H :    0.207525
  41 H :    0.206430
  42 H :    0.210189
  43 C :   -0.251586
  44 C :   -0.627176
  45 H :    0.205183
  46 H :    0.209495
  47 H :    0.200844
  48 H :    0.219931
  49 C :   -0.621372
  50 C :   -0.175613
  51 C :   -0.170000
  52 H :    0.207866
  53 H :    0.207772
  54 C :   -0.241884
  55 C :   -0.615800
  56 C :   -0.203153
  57 H :    0.213670
  58 H :    0.209555
  59 C :   -0.606570
  60 C :   -0.610834
  61 H :    0.193824
  62 H :    0.210463
  63 H :    0.206931
  64 H :    0.208681
  65 H :    0.190018
  66 H :    0.201073
  67 H :    0.209188
  68 H :    0.205611
  69 H :    0.192082
  70 H :    0.211362
  71 H :    0.193487
  72 H :    0.204588
Sum of atomic charges:   -0.0000000

--------------------------------
MULLIKEN REDUCED ORBITAL CHARGES
--------------------------------
  0 C s       :     3.354225  s :     3.354225
      pz      :     0.995179  p :     2.567723
      px      :     0.809768
      py      :     0.762775

  1 C s       :     3.377960  s :     3.377960
      pz      :     1.141886  p :     3.122686
      px      :     0.871611
      py      :     1.109188

  2 C s       :     3.312703  s :     3.312703
      pz      :     0.705070  p :     2.761554
      px      :     1.144090
      py      :     0.912393

  3 H s       :     0.777037  s :     0.777037

  4 H s       :     0.780127  s :     0.780127

  5 C s       :     3.341438  s :     3.341438
      pz      :     0.888022  p :     2.519812
      px      :     0.861479
      py      :     0.770311

  6 C s       :     3.367241  s :     3.367241
      pz      :     1.141224  p :     3.112748
      px      :     0.888348
      py      :     1.083176

  7 C s       :     3.338576  s :     3.338576
      pz      :     1.176213  p :     3.101200
      px      :     0.964512
      py      :     0.960475

  8 H s       :     0.774623  s :     0.774623

  9 H s       :     0.792609  s :     0.792609

 10 H s       :     0.791177  s :     0.791177

 11 H s       :     0.772107  s :     0.772107

 12 O s       :     3.685109  s :     3.685109
      pz      :     1.430322  p :     4.802944
      px      :     1.464802
      py      :     1.907820

 13 H s       :     0.752647  s :     0.752647

 14 C s       :     3.394305  s :     3.394305
      pz      :     0.978407  p :     2.885970
      px      :     0.831218
      py      :     1.076346

 15 C s       :     3.385329  s :     3.385329
      pz      :     0.989340  p :     3.128775
      px      :     0.988801
      py      :     1.150634

 16 H s       :     0.798961  s :     0.798961

 17 H s       :     0.803007  s :     0.803007

 18 C s       :     3.397349  s :     3.397349
      pz      :     1.012861  p :     2.863256
      px      :     0.770608
      py      :     1.079787

 19 H s       :     0.779835  s :     0.779835

 20 C s       :     3.350682  s :     3.350682
      pz      :     0.940805  p :     2.495232
      px      :     0.760327
      py      :     0.794100

 21 H s       :     0.780345  s :     0.780345

 22 C s       :     3.372519  s :     3.372519
      pz      :     1.112710  p :     3.106756
      px      :     1.111892
      py      :     0.882154

 23 C s       :     3.327518  s :     3.327518
      pz      :     1.100796  p :     3.099971
      px      :     0.890081
      py      :     1.109094

 24 H s       :     0.788170  s :     0.788170

 25 H s       :     0.792871  s :     0.792871

 26 C s       :     3.349753  s :     3.349753
      pz      :     1.172777  p :     3.047550
      px      :     0.962256
      py      :     0.912517

 27 H s       :     0.791428  s :     0.791428

 28 H s       :     0.782627  s :     0.782627

 29 C s       :     3.317503  s :     3.317503
      pz      :     0.869555  p :     2.679962
      px      :     0.905433
      py      :     0.904973

 30 H s       :     0.777922  s :     0.777922

 31 H s       :     0.805453  s :     0.805453

 32 C s       :     3.362751  s :     3.362751
      pz      :     1.082185  p :     2.867296
      px      :     0.862027
      py      :     0.923083

 33 H s       :     0.772007  s :     0.772007

 34 C s       :     3.344601  s :     3.344601
      pz      :     1.190194  p :     3.088523
      px      :     0.932577
      py      :     0.965751

 35 H s       :     0.659063  s :     0.659063

 36 C s       :     3.336200  s :     3.336200
      pz      :     1.171726  p :     3.080847
      px      :     0.934872
      py      :     0.974249

 37 H s       :     0.792005  s :     0.792005

 38 H s       :     0.801910  s :     0.801910

 39 C s       :     3.337637  s :     3.337637
      pz      :     1.064324  p :     2.849646
      px      :     0.859705
      py      :     0.925617

 40 H s       :     0.792475  s :     0.792475

 41 H s       :     0.793570  s :     0.793570

 42 H s       :     0.789811  s :     0.789811

 43 C s       :     3.346449  s :     3.346449
      pz      :     1.079415  p :     2.905137
      px      :     0.876918
      py      :     0.948804

 44 C s       :     3.365836  s :     3.365836
      pz      :     0.953812  p :     3.261340
      px      :     1.162638
      py      :     1.144889

 45 H s       :     0.794817  s :     0.794817

 46 H s       :     0.790505  s :     0.790505

 47 H s       :     0.799156  s :     0.799156

 48 H s       :     0.780069  s :     0.780069

 49 C s       :     3.347441  s :     3.347441
      pz      :     1.148696  p :     3.273931
      px      :     1.154832
      py      :     0.970402

 50 C s       :     3.334648  s :     3.334648
      pz      :     1.057281  p :     2.840964
      px      :     0.896020
      py      :     0.887664

 51 C s       :     3.335550  s :     3.335550
      pz      :     1.054405  p :     2.834449
      px      :     0.896754
      py      :     0.883291

 52 H s       :     0.792134  s :     0.792134

 53 H s       :     0.792228  s :     0.792228

 54 C s       :     3.338545  s :     3.338545
      pz      :     1.075980  p :     2.903339
      px      :     0.885622
      py      :     0.941737

 55 C s       :     3.343759  s :     3.343759
      pz      :     1.148707  p :     3.272042
      px      :     1.155476
      py      :     0.967859

 56 C s       :     3.310398  s :     3.310398
      pz      :     1.065736  p :     2.892755
      px      :     0.889468
      py      :     0.937551

 57 H s       :     0.786330  s :     0.786330

 58 H s       :     0.790445  s :     0.790445

 59 C s       :     3.341150  s :     3.341150
      pz      :     1.149322  p :     3.265419
      px      :     1.150328
      py      :     0.965769

 60 C s       :     3.341614  s :     3.341614
      pz      :     1.119195  p :     3.269220
      px      :     1.036064
      py      :     1.113961

 61 H s       :     0.806176  s :     0.806176

 62 H s       :     0.789537  s :     0.789537

 63 H s       :     0.793069  s :     0.793069

 64 H s       :     0.791319  s :     0.791319

 65 H s       :     0.809982  s :     0.809982

 66 H s       :     0.798927  s :     0.798927

 67 H s       :     0.790812  s :     0.790812

 68 H s       :     0.794389  s :     0.794389

 69 H s       :     0.807918  s :     0.807918

 70 H s       :     0.788638  s :     0.788638

 71 H s       :     0.806513  s :     0.806513

 72 H s       :     0.795412  s :     0.795412


------------------------
MULLIKEN OVERLAP CHARGES
------------------------
B(  0-C ,  1-C ) :   0.5244 B(  0-C ,  2-C ) :  -0.1801 B(  0-C ,  3-H ) :  -0.0796 
B(  0-C ,  4-H ) :  -0.0864 B(  0-C ,  5-C ) :   0.4156 B(  0-C ,  6-C ) :  -0.1415 
B(  0-C , 14-C ) :   0.9502 B(  0-C , 15-C ) :  -0.2024 B(  0-C , 18-C ) :  -0.1866 
B(  0-C , 19-H ) :  -0.0752 B(  1-C ,  2-C ) :   0.5266 B(  1-C ,  3-H ) :   0.8090 
B(  1-C ,  4-H ) :   0.7737 B(  1-C ,  5-C ) :  -0.1408 B(  1-C ,  7-C ) :  -0.1580 
B(  1-C , 12-O ) :  -0.1100 B(  1-C , 13-H ) :  -0.0573 B(  1-C , 14-C ) :  -0.1136 
B(  2-C ,  3-H ) :  -0.0592 B(  2-C ,  4-H ) :  -0.0535 B(  2-C ,  6-C ) :  -0.1581 
B(  2-C ,  7-C ) :   0.5149 B(  2-C , 10-H ) :  -0.0624 B(  2-C , 11-H ) :  -0.0697 
B(  2-C , 12-O ) :   0.6964 B(  2-C , 13-H ) :   0.8216 B(  2-C , 35-H ) :  -0.1154 
B(  5-C ,  6-C ) :   0.5300 B(  5-C ,  7-C ) :  -0.1575 B(  5-C ,  8-H ) :  -0.0730 
B(  5-C ,  9-H ) :  -0.0938 B(  5-C , 14-C ) :  -0.1992 B(  5-C , 15-C ) :   1.0619 
B(  5-C , 16-H ) :  -0.0996 B(  5-C , 17-H ) :  -0.0952 B(  6-C ,  7-C ) :   0.5526 
B(  6-C ,  8-H ) :   0.8228 B(  6-C ,  9-H ) :   0.7936 B(  6-C , 10-H ) :  -0.0741 
B(  6-C , 11-H ) :  -0.0561 B(  6-C , 15-C ) :  -0.1299 B(  7-C ,  9-H ) :  -0.0776 
B(  7-C , 10-H ) :   0.7763 B(  7-C , 11-H ) :   0.8044 B(  7-C , 12-O ) :  -0.1080 
B(  7-C , 13-H ) :  -0.0826 B( 12-O , 35-H ) :   0.6664 B( 14-C , 18-C ) :   0.6122 
B( 14-C , 19-H ) :   0.8212 B( 14-C , 20-C ) :  -0.1942 B( 14-C , 21-H ) :  -0.0738 
B( 15-C , 16-H ) :   0.8137 B( 15-C , 17-H ) :   0.8065 B( 18-C , 19-H ) :  -0.0600 
B( 18-C , 20-C ) :   0.9186 B( 18-C , 21-H ) :   0.8334 B( 18-C , 22-C ) :  -0.1510 
B( 18-C , 32-C ) :  -0.1497 B( 20-C , 21-H ) :  -0.0830 B( 20-C , 22-C ) :   0.5339 
B( 20-C , 23-C ) :  -0.1723 B( 20-C , 24-H ) :  -0.0673 B( 20-C , 25-H ) :  -0.0915 
B( 20-C , 29-C ) :  -0.1254 B( 20-C , 32-C ) :   0.5193 B( 20-C , 33-H ) :  -0.0910 
[...]
        0.0000         1.3048        0.0000
        0.0000         0.0000        1.3048

 Diagonalized JT*J matrix:
 
 J[55,60](FC)             1.305            1.305            1.305  iso=      1.305
                ---------------  ---------------  ---------------  ---------------
 J[55,60](Total)          1.305            1.305            1.305  iso=      1.305



-----------------------------------------------------------
 NUCLEUS A = C   56 NUCLEUS B = C   59 
 ( 13C  gnA =  1.405  13C  gnB =  1.405) r(AB) =     1.5311
-----------------------------------------------------------

Fermi-contact contribution to J (Hz):
       27.4019         0.0000        0.0000
        0.0000        27.4019        0.0000
        0.0000         0.0000       27.4019

Total spin-spin coupling tensor J (Hz):
       27.4019         0.0000        0.0000
        0.0000        27.4019        0.0000
        0.0000         0.0000       27.4019

 Diagonalized JT*J matrix:
 
 J[56,59](FC)            27.402           27.402           27.402  iso=     27.402
                ---------------  ---------------  ---------------  ---------------
 J[56,59](Total)         27.402           27.402           27.402  iso=     27.402



-----------------------------------------------------------
 NUCLEUS A = C   56 NUCLEUS B = C   60 
 ( 13C  gnA =  1.405  13C  gnB =  1.405) r(AB) =     1.5313
-----------------------------------------------------------

Fermi-contact contribution to J (Hz):
       26.7904         0.0000        0.0000
        0.0000        26.7904        0.0000
        0.0000         0.0000       26.7904

Total spin-spin coupling tensor J (Hz):
       26.7904         0.0000        0.0000
        0.0000        26.7904        0.0000
        0.0000         0.0000       26.7904

 Diagonalized JT*J matrix:
 
 J[56,60](FC)            26.790           26.790           26.790  iso=     26.790
                ---------------  ---------------  ---------------  ---------------
 J[56,60](Total)         26.790           26.790           26.790  iso=     26.790



-----------------------------------------------------------
 NUCLEUS A = C   59 NUCLEUS B = C   60 
 ( 13C  gnA =  1.405  13C  gnB =  1.405) r(AB) =     2.5060
-----------------------------------------------------------

Fermi-contact contribution to J (Hz):
       -0.9917         0.0000        0.0000
        0.0000        -0.9917        0.0000
        0.0000         0.0000       -0.9917

Total spin-spin coupling tensor J (Hz):
       -0.9917         0.0000        0.0000
        0.0000        -0.9917        0.0000
        0.0000         0.0000       -0.9917

 Diagonalized JT*J matrix:
 
 J[59,60](FC)            -0.992           -0.992           -0.992  iso=     -0.992
                ---------------  ---------------  ---------------  ---------------
 J[59,60](Total)         -0.992           -0.992           -0.992  iso=     -0.992



-----------------------------------------------------------------------------
                SUMMARY OF ISOTROPIC COUPLING CONSTANTS J (Hz)                
-----------------------------------------------------------------------------
                  0 C        1 C        2 C        5 C        6 C        7 C  
      0 C        0.000     33.115     -3.751     41.292     -0.889      2.280
      1 C       33.115      0.000     23.417     -1.201      1.442     -0.670
      2 C       -3.751     23.417      0.000      2.294     -2.767     25.900
      5 C       41.292     -1.201      2.294      0.000     30.389     -2.774
      6 C       -0.889      1.442     -2.767     30.389      0.000     24.830
      7 C        2.280     -0.670     25.900     -2.774     24.830      0.000
     14 C       69.382     -0.371      2.841     -3.014      2.182     -0.621
     15 C       -3.412      2.419     -0.862     64.571     -1.088      2.600
     18 C       -2.398      4.172     -1.095      3.184     -0.816      0.191
     20 C        6.806     -1.099      1.084     -1.386      0.606     -0.102
     22 C       -0.926      0.327     -0.330      0.423     -0.182      0.037
     23 C        0.827     -0.287      0.282     -0.344      0.153      0.000
     26 C       -0.096      0.040      0.000      0.049      0.000      0.000
     29 C        1.171     -0.368      0.000     -0.452      0.209      0.000
     32 C       -1.120      0.543     -0.374      0.471     -0.213      0.044
     34 C        0.023     -0.015      0.014     -0.015      0.005     -0.001
     36 C       -0.017      0.000      0.000      0.016     -0.008      0.000
     39 C       -0.069      0.000      0.000      0.030      0.000      0.000
     43 C        0.000      0.000      0.000      0.000      0.000      0.000
     44 C        0.010     -0.003      0.000     -0.002     -0.004      0.000
     49 C        0.000      0.000      0.000      0.000      0.000      0.000
     50 C        0.000      0.000      0.000      0.000      0.000      0.000
     51 C        0.000      0.000      0.000      0.000      0.000      0.000
     54 C        0.000      0.000      0.000      0.000      0.000      0.000
     55 C        0.000      0.000      0.000      0.000      0.000      0.000
     56 C        0.000      0.000      0.000      0.000      0.000      0.000
     59 C        0.000      0.000      0.000      0.000      0.000      0.000
     60 C        0.000      0.000      0.000      0.000      0.000      0.000
                 14 C       15 C       18 C       20 C       22 C       23 C  
      0 C       69.382     -3.412     -2.398      6.806     -0.926      0.827
      1 C       -0.371      2.419      4.172     -1.099      0.327     -0.287
      2 C        2.841     -0.862     -1.095      1.084     -0.330      0.282
      5 C       -3.014     64.571      3.184     -1.386      0.423     -0.344
      6 C        2.182     -1.088     -0.816      0.606     -0.182      0.153
      7 C       -0.621      2.600      0.191     -0.102      0.037      0.000
     14 C        0.000      3.105     54.126     -2.643      3.784     -0.928
     15 C        3.105      0.000     -1.146      1.007     -0.272      0.253
     18 C       54.126     -1.146      0.000     69.983     -2.153      2.360
     20 C       -2.643      1.007     69.983      0.000     32.141     -2.980
     22 C        3.784     -0.272     -2.153     32.141      0.000     24.199
     23 C       -0.928      0.253      2.360     -2.980     24.199      0.000
     26 C        0.137     -0.034     -0.353      1.021     -1.921     25.414
     29 C       -1.144      0.326      2.285     -2.455      1.080     -2.216
     32 C        4.376     -0.314     -1.289     36.793     -0.203      1.518
     34 C        0.069      0.003      2.452     -1.378      1.617     -0.267
     36 C        0.016     -0.014     -0.149      3.441      0.072      0.164
     39 C        0.251     -0.023     -0.045      2.873     -0.332      2.541
     43 C        0.006      0.017      0.277      0.173      0.002     -0.114
     44 C        0.006      0.029     -0.047      0.700     -0.136      0.580
     49 C       -0.002      0.000     -0.009     -0.049      0.137      0.041
     50 C        0.000      0.000      0.022      0.127     -0.005      0.117
     51 C        0.000      0.000      0.016      0.048      0.000     -0.003
     54 C        0.000      0.000      0.000      0.000      0.000      0.000
     55 C        0.000      0.000      0.000      0.000      0.000      0.000
     56 C        0.000      0.000      0.000      0.000      0.000      0.000
     59 C        0.000      0.000      0.000      0.000      0.000      0.000
     60 C        0.000      0.000      0.000      0.000      0.000      0.000
                 26 C       29 C       32 C       34 C       36 C       39 C  
      0 C       -0.096      1.171     -1.120      0.023     -0.017     -0.069
      1 C        0.040     -0.368      0.543     -0.015      0.000      0.000
      2 C        0.000      0.000     -0.374      0.014      0.000      0.000
      5 C        0.049     -0.452      0.471     -0.015      0.016      0.030
      6 C        0.000      0.209     -0.213      0.005     -0.008      0.000
      7 C        0.000      0.000      0.044     -0.001      0.000      0.000
     14 C        0.137     -1.144      4.376      0.069      0.016      0.251
     15 C       -0.034      0.326     -0.314      0.003     -0.014     -0.023
     18 C       -0.353      2.285     -1.289      2.452     -0.149     -0.045
     20 C        1.021     -2.455     36.793     -1.378      3.441      2.873
     22 C       -1.921      1.080     -0.203      1.617      0.072     -0.332
     23 C       25.414     -2.216      1.518     -0.267      0.164      2.541
     26 C        0.000     27.817     -0.912      2.263      3.031     -0.581
     29 C       27.817      0.000     23.037      0.855      0.775     28.381
     32 C       -0.912     23.037      0.000     27.931      1.181      3.357
     34 C        2.263      0.855     27.931      0.000     25.927      0.195
     36 C        3.031      0.775      1.181     25.927      0.000     26.921
     39 C       -0.581     28.381      3.357      0.195     26.921      0.000
     43 C       -0.019     -0.638      2.691      1.802      0.350     28.818
     44 C       -0.580     27.281     -0.966      0.809      0.275     -1.190
     49 C        0.349      0.064     -0.028      0.046      3.232     -1.255
     50 C       -0.116      3.536     -0.086     -0.041      0.669     -1.920
     51 C       -0.022      0.224      0.128      0.064     -0.015      3.261
     54 C       -0.001      0.088     -0.016     -0.004     -0.032     -0.526
     55 C       -0.007      0.122      0.035     -0.005     -0.036      1.030
     56 C        0.000     -0.002      0.000      0.008      0.045      0.472
     59 C        0.000     -0.000      0.000      0.000      0.001      0.065
     60 C        0.000      0.000      0.000      0.000     -0.003     -0.017
                 43 C       44 C       49 C       50 C       51 C       54 C  
      0 C        0.000      0.010      0.000      0.000      0.000      0.000
      1 C        0.000     -0.003      0.000      0.000      0.000      0.000
      2 C        0.000      0.000      0.000      0.000      0.000      0.000
      5 C        0.000     -0.002      0.000      0.000      0.000      0.000
      6 C        0.000     -0.004      0.000      0.000      0.000      0.000
      7 C        0.000      0.000      0.000      0.000      0.000      0.000
     14 C        0.006      0.006     -0.002      0.000      0.000      0.000
     15 C        0.017      0.029      0.000      0.000      0.000      0.000
     18 C        0.277     -0.047     -0.009      0.022      0.016      0.000
     20 C        0.173      0.700     -0.049      0.127      0.048      0.000
     22 C        0.002     -0.136      0.137     -0.005      0.000      0.000
     23 C       -0.114      0.580      0.041      0.117     -0.003      0.000
     26 C       -0.019     -0.580      0.349     -0.116     -0.022     -0.001
     29 C       -0.638     27.281      0.064      3.536      0.224      0.088
     32 C        2.691     -0.966     -0.028     -0.086      0.128     -0.016
     34 C        1.802      0.809      0.046     -0.041      0.064     -0.004
     36 C        0.350      0.275      3.232      0.669     -0.015     -0.032
     39 C       28.818     -1.190     -1.255     -1.920      3.261     -0.526
     43 C        0.000      1.478     25.919     36.039     -0.421      4.104
     44 C        1.478      0.000     -0.102     -0.167     -0.006      0.001
     49 C       25.919     -0.102      0.000     -3.027      3.511     -0.771
     50 C       36.039     -0.167     -3.027      0.000     69.493     -0.689
     51 C       -0.421     -0.006      3.511     69.493      0.000     36.487
     54 C        4.104      0.001     -0.771     -0.689     36.487      0.000
     55 C       -0.729     -0.002      1.087      3.537     -2.822     26.505
     56 C       -0.513      0.001      1.021      3.310     -1.700     26.186
     59 C       -0.044     -0.000     -0.011      0.013      0.781     -0.524
     60 C        0.099      0.000      0.093      0.103      3.388     -0.595
                 55 C       56 C       59 C       60 C  
      0 C        0.000      0.000      0.000      0.000
      1 C        0.000      0.000      0.000      0.000
      2 C        0.000      0.000      0.000      0.000
      5 C        0.000      0.000      0.000      0.000
      6 C        0.000      0.000      0.000      0.000
      7 C        0.000      0.000      0.000      0.000
     14 C        0.000      0.000      0.000      0.000
     15 C        0.000      0.000      0.000      0.000
     18 C        0.000      0.000      0.000      0.000
     20 C        0.000      0.000      0.000      0.000
     22 C        0.000      0.000      0.000      0.000
     23 C        0.000      0.000      0.000      0.000
     26 C       -0.007      0.000      0.000      0.000
     29 C        0.122     -0.002     -0.000      0.000
     32 C        0.035      0.000      0.000      0.000
     34 C       -0.005      0.008      0.000      0.000
     36 C       -0.036      0.045      0.001     -0.003
     39 C        1.030      0.472      0.065     -0.017
     43 C       -0.729     -0.513     -0.044      0.099
     44 C       -0.002      0.001     -0.000      0.000
     49 C        1.087      1.021     -0.011      0.093
     50 C        3.537      3.310      0.013      0.103
     51 C       -2.822     -1.700      0.781      3.388
     54 C       26.505     26.186     -0.524     -0.595
     55 C        0.000     -1.108      2.677      1.305
     56 C       -1.108      0.000     27.402     26.790
     59 C        2.677     27.402      0.000     -0.992
     60 C        1.305     26.790     -0.992      0.000

NMR spin-spin coupling calculation done in   0.3 sec 

Maximum memory used throughout the entire PROP-calculation: 34.0 MB

--------------------------------
SUGGESTED CITATIONS FOR THIS RUN
--------------------------------

Below you find a list of papers that are relevant to this ORCA run
We neither can nor want to force you to cite these papers, but we appreciate if you do
You receive ORCA, which is the product of decades of hard work by many enthusiastic individuals, for free
The only thing we kindly ask in return is that you cite our papers,
We deeply appreciate it, if you show your appreciation for ORCA by not just citing the generic ORCA reference.

Please note that relegating all ORCA citations to the supporting information does *not* help us.
SI sections are not indexed - citations you put there will not count into any citation statistics
But we need these citations in order to attract the funding resources that allow us to do what we are doing

Therefore, if you are a happy ORCA user, please consider citing a few of the papers listed below in the main body of your paper

In addition to the list printed below, the program has created the file inpJ.bibtex that contains the list in bibtex format
You can import this file easily into all common literature databanks and citation aid programs


List of essential papers. We consider these as the minimum necessary citations

  1. Neese,F.
     Software update: the ORCA program system, version 5.0
     WIRES Comput. Molec. Sci., 2022 12(1)e1606
     doi.org/10.1002/wcms.1606

List of papers to cite with high priority. The work reported in these papers was absolutely
necessary for this run to complete.
Our perspective: the developers of density functionals and basis sets usually get cited in chemistry papers
Good! But without the algorithms to do something with them, the functionals or basis sets would not do anything.
Hence, in our opinion, the algorithm design and method developments papers are equally worthy of getting cited

  1. Neese,F.
     An improvement of the resolution of the identity approximation for the formation of the Coulomb matrix
     J. Comp. Chem., 2003 24(14)1740-1747
     doi.org/10.1002/jcc.10318
  2. Neese,F.; Wennmohs,F.; Hansen,A.; Becker,U.
     Efficient, approximate and parallel Hartree-Fock and hybrid DFT calculations. A 'chain-of-spheres' algorithm for the Hartree-Fock exchange
     Chem. Phys., 2009 356(1-3)98-109
     doi.org/10.1016/j.chemphys.2008.10.036
  3. Stoychev,G.L.; Auer,A.A.; Izsak,R.; Neese,F.
     Self-Consistent Field Calculation of Nuclear Magnetic Resonance Chemical Shielding Constants Using Gauge-Including Atomic Orbitals and Approximate Two-Electron Integrals
     J. Chem. Theory Comput., 2018 14(2)619-637
     doi.org/10.1021/acs.jctc.7b01006
  4. Garcia-Rates,M.; Neese,F.
     Effect of the Solute Cavity on the Solvation Energy and its Derivatives within the Framework of the Gaussian Charge Scheme
     J. Comput. Chem., 2020 41 922-939
     doi.org/10.1002/jcc.26139
  5. Helmich-Paris,B.; de Souza,B.; Neese,F.; Izsák,R.
     An improved chain of spheres for exchange algorithm
     J. Chem. Phys., 2021 155 104109
     doi.org/doi: 10.1063/5.0058766.
  6. Neese,F.
     The SHARK Integral Generation and Digestion System
     J. Comp. Chem., 2022  1-16
     doi.org/10.1002/jcc.26942
  7. Grimme,S.; Bannwarth,C.; Dohm,S.; Hansen,A.; Pisarek,J.; Pracht,P.; Seibert,J.; Neese,F.
     Fully Automated Quantum-Chemistry-Based Computation of Spin-Spin-Coupled Nuclear Magnetic Resonance Spectra
     Angew. Chem., Int. Ed., 2017 56 14763-14769
     doi.org/10.1002/anie.201708266
  8. Caldeweyher,E.; Bannwarth,C.; Grimme,S.
     Extension of the D3 dispersion coefficient model
     J. Chem. Phys., 2017 147 034112-XXXX
     doi.org/10.1063/1.4993215
  9. Caldeweyher,E.; Ehlert,S.; Hansen,A.; Neugebauer,H.; Spicher,S.; Bannwarth,C.; Grimme,S.
     A generally applicable atomic-charge dependent London dispersion correction
     J. Chem. Phys., 2019 150 154122-XXXX
     doi.org/10.1063/1.5090222
 10. Caldeweyher,E.; Mewes,J.; Ehlert,S.; Grimme,S.
     Extension and evaluation of the D4 London-dispersion model for periodic systems
     Phys. Chem. Chem. Phys., 2020 22(16)8499-8512
     doi.org/10.1039/D0CP00502A

List of suggested additional citations. These are papers that are important in the 'surrounding' of 
of this run, or papers that preceded the highly important papers. If you like your results we are grateful for a citation.

  1. Izsak,R.; Neese,F.
     An overlap fitted chain of spheres exchange method
     J. Chem. Phys., 2011 135 144105
     doi.org/10.1063/1.3646921
  2. Izsak,R.; Hansen,A.; Neese,F.
     The resolution of identity and chain of spheres approximations for the LPNO-CCSD singles Fock term
     Molec. Phys., 2012 110 2413-2417
     doi.org/10.1080/00268976.2012.687466
  3. Neese,F.
     The ORCA program system
     WIRES Comput. Molec. Sci., 2012 2(1)73-78
     doi.org/10.1002/wcms.81
  4. Izsak,R.; Neese,F.; Klopper,W.
     Robust fitting techniques in the chain of spheres approximation to the Fock exchange: The role of the complementary space
     J. Chem. Phys., 2013 139 
     doi.org/10.1063/1.4819264
  5. Neese,F.
     Software update: the ORCA program system, version 4.0
     WIRES Comput. Molec. Sci., 2018 8(1)1-6
     doi.org/10.1002/wcms.1327
  6. Neese,F.; Wennmohs,F.; Becker,U.; Riplinger,C.
     The ORCA quantum chemistry program package
     J. Chem. Phys., 2020 152 Art. No. L224108
     doi.org/10.1063/5.0004608

Timings for individual modules:

Sum of individual times          ...      138.205 sec (=   2.303 min)
Startup calculation              ...        3.731 sec (=   0.062 min)   2.7 %
SCF iterations                   ...       19.095 sec (=   0.318 min)  13.8 %
Property integrals               ...        0.618 sec (=   0.010 min)   0.4 %
SCF Response                     ...      114.204 sec (=   1.903 min)  82.6 %
Property calculations            ...        0.558 sec (=   0.009 min)   0.4 %
                             ****ORCA TERMINATED NORMALLY****
TOTAL RUN TIME: 0 days 0 hours 2 minutes 18 seconds 470 msec
