
                                 *****************
                                 * O   R   C   A *
                                 *****************

                                            #,                                       
                                            ###                                      
                                            ####                                     
                                            #####                                    
                                            ######                                   
                                           ########,                                 
                                     ,,################,,,,,                         
                               ,,#################################,,                 
                          ,,##########################################,,             
                       ,#########################################, ''#####,          
                    ,#############################################,,   '####,        
                  ,##################################################,,,,####,       
                ,###########''''           ''''###############################       
              ,#####''   ,,,,##########,,,,          '''####'''          '####       
            ,##' ,,,,###########################,,,                        '##       
           ' ,,###''''                  '''############,,,                           
         ,,##''                                '''############,,,,        ,,,,,,###''
      ,#''                                            '''#######################'''  
     '                                                          ''''####''''         
             ,#######,   #######,   ,#######,      ##                                
            ,#'     '#,  ##    ##  ,#'     '#,    #''#        ,####,   ,####,        
            ##       ##  ##   ,#'  ##            #'  '#       #'       #'  '#        
            ##       ##  #######   ##           ,######,      #####,   #    #        
            '#,     ,#'  ##    ##  '#,     ,#' ,#      #,     #,   #   #,  ,#        
             '#######'   ##     ##  '#######'  #'      '#     '####' # '####'        



                #########################################################
                #                        -***-                          #
                #          Department of theory and spectroscopy        #
                #                                                       #
                #                      Frank Neese                      #
                #                                                       #
                #     Directorship, Architecture, Infrastructure        #
                #                    SHARK, DRIVERS                     #
                #        Core code/Algorithms in most modules           #
                #                                                       #
                #        Max Planck Institute fuer Kohlenforschung      #
                #                Kaiser Wilhelm Platz 1                 #
                #                 D-45470 Muelheim/Ruhr                 #
                #                      Germany                          #
                #                                                       #
                #                  All rights reserved                  #
                #                        -***-                          #
                #########################################################


                         Program Version 6.0.0  -   RELEASE  -


 With contributions from (in alphabetic order):
   Daniel Aravena         : Magnetic Suceptibility
   Michael Atanasov       : Ab Initio Ligand Field Theory (pilot matlab implementation)
   Alexander A. Auer      : GIAO ZORA, VPT2 properties, NMR spectrum
   Ute Becker             : All parallelization in ORCA, NUMFREQ, NUMCALC
   Giovanni Bistoni       : ED, misc. LED, open-shell LED, HFLD
   Martin Brehm           : Molecular dynamics
   Dmytro Bykov           : pre 5.0 version of the SCF Hessian
   Marcos Casanova-Páez   : Triplet and SCS-CIS(D). UHF-(DLPNO)-IP/EA/STEOM-CCSD. UHF-CVS-IP/STEOM-CCSD
   Vijay G. Chilkuri      : MRCI spin determinant printing, contributions to CSF-ICE
   Pauline Colinet        : FMM embedding
   Dipayan Datta          : RHF DLPNO-CCSD density
   Achintya Kumar Dutta   : EOM-CC, STEOM-CC
   Nicolas Foglia         : Exact transition moments, OPA infrastructure, MCD improvements
   Dmitry Ganyushin       : Spin-Orbit,Spin-Spin,Magnetic field MRCI
   Miquel Garcia          : C-PCM and meta-GGA Hessian, CCSD/C-PCM, Gaussian charge scheme
   Tiago L. C. Gouveia    : GS-ROHF, GS-ROCIS
   Yang Guo               : DLPNO-NEVPT2, F12-NEVPT2, CIM, IAO-localization
   Andreas Hansen         : Spin unrestricted coupled pair/coupled cluster methods
   Ingolf Harden          : AUTO-CI MPn and infrastructure 
   Benjamin Helmich-Paris : MC-RPA, TRAH-(SCF,CASSCF), AVAS, COSX integrals, SCF dyn. polar.
   Lee Huntington         : MR-EOM, pCC
   Robert Izsak           : Overlap fitted RIJCOSX, COSX-SCS-MP3, EOM
   Riya Kayal             : Wick's Theorem for AUTO-CI, AUTO-CI UHF-CCSDT
   Emily Kempfer          : AUTO-CI, RHF CISDT and CCSDT
   Christian Kollmar      : KDIIS, OOCD, Brueckner-CCSD(T), CCSD density, CASPT2, CASPT2-K, improved NEVPT2
   Axel Koslowski         : Symmetry handling
   Simone Kossmann        : Meta GGA functionals, TD-DFT gradient, OOMP2, (MP2 Hessian; deprecated post 5.0)
   Lucas Lang             : DCDCAS
   Marvin Lechner         : AUTO-CI (C++ implementation), FIC-MRCC
   Spencer Leger          : CASSCF response
   Dagmar Lenk            : GEPOL surface, SMD, ORCA-2-JSON
   Dimitrios Liakos       : Extrapolation schemes; Compound Job, initial MDCI parallelization
   Dimitrios Manganas     : Further ROCIS development; embedding schemes. LFT, Crystal Embedding
   Dimitrios Pantazis     : SARC Basis sets
   Anastasios Papadopoulos: AUTO-CI, single reference methods and gradients
   Taras Petrenko         : pre 6.0 DFT Hessian and TD-DFT gradient, (ASA, deprecated), ECA, 1-Electron XAS/XES, NRVS
   Peter Pinski           : DLPNO-MP2, DLPNO-MP2 Gradient
   Christoph Reimann      : Effective Core Potentials
   Marius Retegan         : Local ZFS, SOC
   Christoph Riplinger    : Optimizer, TS searches, QM/MM, DLPNO-CCSD(T), (RO)-DLPNO pert. Triples
   Michael Roemelt        : Original ROCIS implementation
   Masaaki Saitow         : Open-shell DLPNO-CCSD energy and density
   Barbara Sandhoefer     : DKH picture change effects
   Kantharuban Sivalingam : CASSCF convergence/infrastructure, NEVPT2 and variants, FIC-MRCI
   Bernardo de Souza      : ESD, SOC TD-DFT
   Georgi Stoychev        : AutoAux, RI-MP2 NMR, DLPNO-MP2 response, X2C
   Van Anh Tran           : RI-MP2 g-tensors
   Willem Van den Heuvel  : Paramagnetic NMR
   Zikuan Wang            : NOTCH, Electric field optimization 
   Frank Wennmohs         : Technical directorship and infrastructure
   Hang Xu                : AUTO-CI-Response properties 


 We gratefully acknowledge several colleagues who have allowed us to
 interface, adapt or use parts of their codes:
   Stefan Grimme, W. Hujo, H. Kruse, P. Pracht,  : VdW corrections, initial TS optimization,
                  C. Bannwarth, S. Ehlert,         DFT functionals, gCP, sTDA/sTD-DF
                  L. Wittmann, M. Mueller
   Ed Valeev, F. Pavosevic, A. Kumar             : LibInt (2-el integral package), F12 methods
   Garnet Chan, S. Sharma, J. Yang, R. Olivares  : DMRG
   Ulf Ekstrom                                   : XCFun DFT Library
   Mihaly Kallay                                 : mrcc  (arbitrary order and MRCC methods)
   Frank Weinhold                                : gennbo (NPA and NBO analysis)
   Simon Mueller                                 : openCOSMO-RS
   Christopher J. Cramer and Donald G. Truhlar   : smd solvation model
   Lars Goerigk                                  : TD-DFT with DH, B97 family of functionals
   V. Asgeirsson, H. Jonsson                     : NEB implementation
   FAccTs GmbH                                   : IRC, NEB, NEB-TS, DLPNO-Multilevel, CI-OPT
                                                   MM, QMMM, 2- and 3-layer-ONIOM, Crystal-QMMM,
                                                   LR-CPCM, SF, NACMEs, symmetry and pop. for TD-DFT,
                                                   nearIR, NL-DFT gradient (VV10), updates on ESD,
                                                   ML-optimized integration grids, MBIS, APM,
                                                   GOAT, DOCKER, SOLVATOR, interface openCOSMO-RS
   S Lehtola, MJT Oliveira, MAL Marques          : LibXC Library
   Liviu Ungur et al                             : ANISO software


 Your calculation uses the libint2 library for the computation of 2-el integrals
 For citations please refer to: http://libint.valeyev.net

 Your ORCA version has been built with support for libXC version: 6.2.2
 For citations please refer to: https://libxc.gitlab.io

 This ORCA versions uses:
   CBLAS   interface :  Fast vector & matrix operations
   LAPACKE interface :  Fast linear algebra routines
   SCALAPACK package :  Parallel linear algebra routines
   Shared memory     :  Shared parallel matrices
   BLAS/LAPACK       :  OpenBLAS 0.3.27  USE64BITINT DYNAMIC_ARCH NO_AFFINITY Zen SINGLE_THREADED
        Core in use  :  Zen
   Copyright (c) 2011-2014, The OpenBLAS Project


NOTE: MaxCore=8000 MB was set to SCF,MP2,MDCI,CIPSI,MRCI and CIS
      => If you want to overwrite this, your respective input block should be placed after the MaxCore statement
Your calculation utilizes the atom-pairwise dispersion correction
based on EEQ partial charges (D4)


================================================================================

----- Orbital basis set information -----
Your calculation utilizes the basis: def2-SVP
   F. Weigend and R. Ahlrichs, Phys. Chem. Chem. Phys. 7, 3297 (2005).

----- AuxJ basis set information -----
Your calculation utilizes the auxiliary basis: def2/J
   F. Weigend, Phys. Chem. Chem. Phys. 8, 1057 (2006).

================================================================================
                                        WARNINGS
                       Please study these warnings very carefully!
================================================================================

WARNING: Old DensityContainer found on disk!
         Will remove this file - 
         If you want to keep old densities, please start your calculation with a different basename. 


================================================================================
                                       INPUT FILE
================================================================================
NAME = inpS
|  1> ! wb97x-d4
|  2> ! def2-svp
|  3> ! def2/J RIJCOSX
|  4> ! DEFGRID2
|  5> ! scfconv7
|  6> ! smallprint printgap noloewdin
|  7> ! NOSOSCF
|  8> %MaxCore 8000
|  9> %output
| 10>        print[P_BondOrder_M] 1
| 11>        print[P_Mayer] 1
| 12>        print[P_basis] 2
| 13> end
| 14> %pal
| 15>     nprocs 4
| 16> end
| 17> ! CPCM(chloroform)
| 18> *xyz 0 1
| 19> C   -4.9970955600   0.2151337400  -0.4994928600
| 20> C   -6.4448492500  -0.1838003900  -0.6619555300
| 21> C   -7.3540414000   0.7603346300   0.1350759100
| 22> H   -6.6008698400  -1.2184816400  -0.3361250800
| 23> H   -6.7342648200  -0.1147645300  -1.7210794900
| 24> C   -4.7238973500   1.6309414100  -0.8317393400
| 25> C   -5.6547439200   2.6202012000  -0.1657949900
| 26> C   -7.1268698700   2.2074689000  -0.3051145900
| 27> H   -5.4959495400   3.6237627900  -0.5746624500
| 28> H   -5.4014204500   2.6660448500   0.9043253400
| 29> H   -7.4374041800   2.3018160400  -1.3546254900
| 30> H   -7.7625319600   2.8748051100   0.2883288900
| 31> O   -7.1430383300   0.5953810000   1.5472824700
| 32> H   -8.4031109300   0.4869088500  -0.0327242500
| 33> C   -4.0772516200  -0.6583761700  -0.0250680800
| 34> C   -3.7627750400   2.0106351300  -1.6808234700
| 35> H   -3.1153103500   1.2835236000  -2.1636767400
| 36> H   -3.6100863700   3.0606795500  -1.9189756700
| 37> C   -2.6936961000  -0.3628925300   0.2677947700
| 38> H   -4.4318995900  -1.6678537100   0.1797756900
| 39> C   -1.7432806500  -1.2495370200   0.6324500600
| 40> H   -2.4063349100   0.6832439100   0.1891654100
| 41> C   -1.9331742200  -2.7391576100   0.7642598800
| 42> C   -0.9259202000  -3.5166390500  -0.1057767000
| 43> H   -2.9511966100  -3.0527502800   0.5177221900
| 44> H   -1.7573360400  -3.0112407900   1.8171377800
| 45> C    0.5231174400  -3.0625083500   0.1173300700
| 46> H   -1.1957523100  -3.3921508300  -1.1621251000
| 47> H   -1.0131578200  -4.5878069900   0.1137968000
| 48> C    0.6813700100  -1.5461681200  -0.0598818500
| 49> H    1.1771646400  -3.6141505700  -0.5660944500
| 50> H    0.8320131600  -3.3267464000   1.1399705400
| 51> C   -0.3263467100  -0.8533960600   0.9133877800
| 52> H   -0.0768146900  -1.2659202900   1.9080531000
| 53> C    0.1010593600   0.6114888600   0.9122866200
| 54> H   -6.1892273200   0.5209515500   1.6935987800
| 55> C    1.6437218000   0.5402493100   0.8000005500
| 56> H   -0.2376311400   1.1395491400   1.8098153700
| 57> H   -0.3201419600   1.1392626200   0.0493589400
| 58> C    2.0122215700  -0.9350519700   0.4592789300
| 59> H    2.1365410400   0.8547408400   1.7252847700
| 60> H    2.0106273300   1.2095011100   0.0129905800
| 61> H    2.2529307200  -1.4625659700   1.3968637500
| 62> C    3.2648047400  -1.0110335500  -0.4372797700
| 63> C    0.4180836900  -1.1285237900  -1.5128486300
| 64> H    0.6359715000  -0.0676608600  -1.6722808300
| 65> H   -0.6264802400  -1.2930370400  -1.7948744900
| 66> H    1.0475702800  -1.7037256800  -2.2006510300
| 67> H    3.0545073000  -0.4671368800  -1.3699658600
| 68> C    3.6822884300  -2.4475341500  -0.7867348100
| 69> C    4.4138146500  -0.3222542500   0.2499079200
| 70> C    5.0835123000   0.7248840000  -0.2271487600
| 71> H    4.7138258700  -0.7502807300   1.2117855000
| 72> H    4.7821248700   1.1512038200  -1.1894985700
| 73> C    6.2268727400   1.4185439400   0.4591377400
| 74> C    5.7988949600   2.8489648500   0.8259760200
| 75> C    7.5003151800   1.3960336400  -0.4219597500
| 76> H    6.4559200400   0.8722626200   1.3882549900
| 77> H    7.2513101800   1.9068858300  -1.3663297200
| 78> C    7.9160284100  -0.0413847900  -0.7462482900
| 79> C    8.6675798700   2.1389814100   0.2340520700
| 80> H    5.6515874200   3.4506756100  -0.0797782300
| 81> H    6.5446106000   3.3500233300   1.4501638200
| 82> H    4.8531568600   2.8331094100   1.3775684200
| 83> H    7.1216310500  -0.5842984500  -1.2672499500
| 84> H    8.1445929600  -0.5889324600   0.1775450400
| 85> H    8.8124897600  -0.0548301000  -1.3758343000
| 86> H    8.4684899000   3.2079088400   0.3515575200
| 87> H    9.5747468200   2.0349683900  -0.3712884000
| 88> H    8.8783611700   1.7203562400   1.2267829400
| 89> H    2.9505276700  -2.9391767100  -1.4327658900
| 90> H    3.7951464400  -3.0515512000   0.1220123000
| 91> H    4.6440605200  -2.4439182600  -1.3110445700
| 92> *
| 93> %eprnmr
| 94>  Nuclei = all C { shift }
| 95>  origin giao
| 96>  giao_2el giao_2el_same_as_scf
| 97>  giao_1el giao_1el_analytic
| 98> end
| 99> 
|100>                          ****END OF INPUT****
================================================================================

                       ****************************
                       * Single Point Calculation *
                       ****************************

---------------------------------
CARTESIAN COORDINATES (ANGSTROEM)
---------------------------------
  C     -4.997096    0.215134   -0.499493
  C     -6.444849   -0.183800   -0.661956
  C     -7.354041    0.760335    0.135076
  H     -6.600870   -1.218482   -0.336125
  H     -6.734265   -0.114765   -1.721079
  C     -4.723897    1.630941   -0.831739
  C     -5.654744    2.620201   -0.165795
  C     -7.126870    2.207469   -0.305115
  H     -5.495950    3.623763   -0.574662
  H     -5.401420    2.666045    0.904325
  H     -7.437404    2.301816   -1.354625
  H     -7.762532    2.874805    0.288329
  O     -7.143038    0.595381    1.547282
  H     -8.403111    0.486909   -0.032724
  C     -4.077252   -0.658376   -0.025068
  C     -3.762775    2.010635   -1.680823
  H     -3.115310    1.283524   -2.163677
  H     -3.610086    3.060680   -1.918976
  C     -2.693696   -0.362893    0.267795
  H     -4.431900   -1.667854    0.179776
  C     -1.743281   -1.249537    0.632450
  H     -2.406335    0.683244    0.189165
  C     -1.933174   -2.739158    0.764260
  C     -0.925920   -3.516639   -0.105777
  H     -2.951197   -3.052750    0.517722
  H     -1.757336   -3.011241    1.817138
  C      0.523117   -3.062508    0.117330
  H     -1.195752   -3.392151   -1.162125
  H     -1.013158   -4.587807    0.113797
  C      0.681370   -1.546168   -0.059882
  H      1.177165   -3.614151   -0.566094
  H      0.832013   -3.326746    1.139971
  C     -0.326347   -0.853396    0.913388
  H     -0.076815   -1.265920    1.908053
  C      0.101059    0.611489    0.912287
  H     -6.189227    0.520952    1.693599
  C      1.643722    0.540249    0.800001
  H     -0.237631    1.139549    1.809815
  H     -0.320142    1.139263    0.049359
  C      2.012222   -0.935052    0.459279
  H      2.136541    0.854741    1.725285
  H      2.010627    1.209501    0.012991
  H      2.252931   -1.462566    1.396864
  C      3.264805   -1.011034   -0.437280
  C      0.418084   -1.128524   -1.512849
  H      0.635972   -0.067661   -1.672281
  H     -0.626480   -1.293037   -1.794874
  H      1.047570   -1.703726   -2.200651
  H      3.054507   -0.467137   -1.369966
  C      3.682288   -2.447534   -0.786735
  C      4.413815   -0.322254    0.249908
  C      5.083512    0.724884   -0.227149
  H      4.713826   -0.750281    1.211785
  H      4.782125    1.151204   -1.189499
  C      6.226873    1.418544    0.459138
  C      5.798895    2.848965    0.825976
  C      7.500315    1.396034   -0.421960
  H      6.455920    0.872263    1.388255
  H      7.251310    1.906886   -1.366330
  C      7.916028   -0.041385   -0.746248
  C      8.667580    2.138981    0.234052
  H      5.651587    3.450676   -0.079778
  H      6.544611    3.350023    1.450164
  H      4.853157    2.833109    1.377568
  H      7.121631   -0.584298   -1.267250
  H      8.144593   -0.588932    0.177545
  H      8.812490   -0.054830   -1.375834
  H      8.468490    3.207909    0.351558
  H      9.574747    2.034968   -0.371288
  H      8.878361    1.720356    1.226783
  H      2.950528   -2.939177   -1.432766
  H      3.795146   -3.051551    0.122012
  H      4.644061   -2.443918   -1.311045

----------------------------
CARTESIAN COORDINATES (A.U.)
----------------------------
  NO LB      ZA    FRAG     MASS         X           Y           Z
   0 C     6.0000    0    12.011   -9.443142    0.406544   -0.943905
   1 C     6.0000    0    12.011  -12.179000   -0.347332   -1.250915
   2 C     6.0000    0    12.011  -13.897124    1.436824    0.255256
   3 H     1.0000    0     1.008  -12.473836   -2.302597   -0.635184
   4 H     1.0000    0     1.008  -12.725916   -0.216874   -3.252369
   5 C     6.0000    0    12.011   -8.926872    3.082033   -1.571760
   6 C     6.0000    0    12.011  -10.685917    4.951463   -0.313307
   7 C     6.0000    0    12.011  -13.467832    4.171512   -0.576583
   8 H     1.0000    0     1.008  -10.385839    6.847919   -1.085955
   9 H     1.0000    0     1.008  -10.207205    5.038095    1.708927
  10 H     1.0000    0     1.008  -14.054657    4.349802   -2.559871
  11 H     1.0000    0     1.008  -14.669060    5.432594    0.544863
  12 O     8.0000    0    15.999  -13.498386    1.125107    2.923940
  13 H     1.0000    0     1.008  -15.879578    0.920124   -0.061840
  14 C     6.0000    0    12.011   -7.704889   -1.244151   -0.047372
  15 C     6.0000    0    12.011   -7.110614    3.799550   -3.176296
  16 H     1.0000    0     1.008   -5.887083    2.425508   -4.088756
  17 H     1.0000    0     1.008   -6.822075    5.783846   -3.626338
  18 C     6.0000    0    12.011   -5.090348   -0.685767    0.506059
  19 H     1.0000    0     1.008   -8.375076   -3.151787    0.339727
  20 C     6.0000    0    12.011   -3.294323   -2.361283    1.195157
  21 H     1.0000    0     1.008   -4.547314    1.291144    0.357471
  22 C     6.0000    0    12.011   -3.653170   -5.176258    1.444242
  23 C     6.0000    0    12.011   -1.749736   -6.645485   -0.199889
  24 H     1.0000    0     1.008   -5.576953   -5.768862    0.978353
  25 H     1.0000    0     1.008   -3.320884   -5.690420    3.433893
  26 C     6.0000    0    12.011    0.988549   -5.787302    0.221722
  27 H     1.0000    0     1.008   -2.259644   -6.410236   -2.196098
  28 H     1.0000    0     1.008   -1.914591   -8.669699    0.215045
  29 C     6.0000    0    12.011    1.287603   -2.921834   -0.113160
  30 H     1.0000    0     1.008    2.224519   -6.829755   -1.069763
  31 H     1.0000    0     1.008    1.572277   -6.286640    2.154232
  32 C     6.0000    0    12.011   -0.616706   -1.612685    1.726053
  33 H     1.0000    0     1.008   -0.145159   -2.392243    3.605698
  34 C     6.0000    0    12.011    0.190975    1.155546    1.723972
  35 H     1.0000    0     1.008  -11.695945    0.984456    3.200438
  36 C     6.0000    0    12.011    3.106184    1.020923    1.511782
  37 H     1.0000    0     1.008   -0.449058    2.153436    3.420055
  38 H     1.0000    0     1.008   -0.604981    2.152894    0.093275
  39 C     6.0000    0    12.011    3.802548   -1.766992    0.867911
  40 H     1.0000    0     1.008    4.037477    1.615226    3.260316
  41 H     1.0000    0     1.008    3.799535    2.285626    0.024549
  42 H     1.0000    0     1.008    4.257422   -2.763849    2.639690
  43 C     6.0000    0    12.011    6.169587   -1.910577   -0.826339
  44 C     6.0000    0    12.011    0.790064   -2.132601   -2.858870
  45 H     1.0000    0     1.008    1.201812   -0.127860   -3.160153
  46 H     1.0000    0     1.008   -1.183876   -2.443486   -3.391821
  47 H     1.0000    0     1.008    1.979621   -3.219575   -4.158628
  48 H     1.0000    0     1.008    5.772182   -0.882761   -2.588860
  49 C     6.0000    0    12.011    6.958517   -4.625169   -1.486713
  50 C     6.0000    0    12.011    8.340901   -0.608972    0.472258
  51 C     6.0000    0    12.011    9.606446    1.369832   -0.429249
  52 H     1.0000    0     1.008    8.907840   -1.417825    2.289943
  53 H     1.0000    0     1.008    9.036906    2.175460   -2.247827
  54 C     6.0000    0    12.011   11.767084    2.680660    0.867645
  55 C     6.0000    0    12.011   10.958323    5.383763    1.560868
  56 C     6.0000    0    12.011   14.173542    2.638121   -0.797388
  57 H     1.0000    0     1.008   12.199921    1.648337    2.623422
  58 H     1.0000    0     1.008   13.702990    3.603492   -2.581989
  59 C     6.0000    0    12.011   14.959126   -0.078206   -1.410205
  60 C     6.0000    0    12.011   16.379352    4.042089    0.442294
  61 H     1.0000    0     1.008   10.679952    6.520832   -0.150759
  62 H     1.0000    0     1.008   12.367522    6.330627    2.740412
  63 H     1.0000    0     1.008    9.171137    5.353801    2.603227
  64 H     1.0000    0     1.008   13.457932   -1.104164   -2.394755
  65 H     1.0000    0     1.008   15.391050   -1.112921    0.335512
  66 H     1.0000    0     1.008   16.653192   -0.103614   -2.599950
  67 H     1.0000    0     1.008   16.003127    6.062069    0.664347
  68 H     1.0000    0     1.008   18.093649    3.845533   -0.701633
  69 H     1.0000    0     1.008   16.777671    3.251002    2.318284
  70 H     1.0000    0     1.008    5.575689   -5.554239   -2.707535
  71 H     1.0000    0     1.008    7.171787   -5.766596    0.230570
  72 H     1.0000    0     1.008    8.776003   -4.618336   -2.477515

--------------------------------
INTERNAL COORDINATES (ANGSTROEM)
--------------------------------
 C      0   0   0     0.000000000000     0.00000000     0.00000000
 C      1   0   0     1.510474530117     0.00000000     0.00000000
 C      2   1   0     1.534040552906   110.46502575     0.00000000
 H      2   1   3     1.095934850141   110.72138717   237.87940605
 H      2   1   3     1.100123122551   109.82368673   118.77247738
 C      1   2   3     1.479708195507   113.92365854   306.09926409
 C      6   1   2     1.512809355566   114.40835537    49.79928005
 C      3   2   1     1.529566008952   110.16588236    56.78018473
 H      7   6   1     1.095227884912   110.22109195   188.77643938
 H      7   6   1     1.100650689991   108.27701245    72.11463274
 H      8   3   2     1.098547254210   108.31334147    64.45392552
 H      8   3   2     1.096165623341   109.51496384   181.43472008
 O      3   2   1     1.437379338834   110.66058303   292.78011937
 H      3   2   1     1.097025719680   109.50561241   177.26844831
 C      1   2   3     1.354330575857   121.21940004   122.99104033
 C      6   1   2     1.337485430053   123.15086697   231.75860204
 H     16   6   1     1.086760775058   121.34896981   359.02453842
 H     16   6   1     1.087484981176   120.93286058   178.39316967
 C     15   1   2     1.444750880720   126.12267766   185.01369587
 H     15   1   2     1.089394812039   116.25856342     3.04636884
 C     19  15   1     1.349963503126   126.48678814   186.01260696
 H     19  15   1     1.087731805579   115.78795011     6.47879454
 C     21  19  15     1.507449136365   125.72927125     2.04400581
 C     23  21  19     1.541428461165   111.51565082   124.21837601
 H     23  21  19     1.093385010785   112.39493274     0.60156649
 H     23  21  19     1.101589848670   107.91074307   242.79090690
 C     24  23  21     1.534835953983   112.68340652    51.01251305
 H     24  23  21     1.097350730937   108.99249413   288.88048248
 H     24  23  21     1.096915529988   109.12296119   172.95889217
 C     27  24  23     1.534840588992   111.89306523   306.52724535
 H     27  24  23     1.095059794373   108.91169903   182.99525049
 H     27  24  23     1.100468919954   109.21049790    66.53904663
 C     21  19  15     1.497850277242   122.88525086   179.78286131
 H     33  21  19     1.105351332452   106.47695337   127.76120480
 C     33  21  19     1.525963626719   121.24577271     5.06964097
 H     13   3   2     0.967834514985   107.57938414    42.32911551
 C     35  33  21     1.548383233824   103.58804817   196.96704252
 H     35  33  21     1.095041903847   112.06789279    74.91501853
 H     35  33  21     1.095718884853   110.81120096   315.32108669
 C     30  27  24     1.553755688336   115.99615160   166.26924582
 H     37  35  33     1.094498338755   111.96740850   249.65148272
 H     37  35  33     1.096313063238   110.94109017   131.06143891
 H     40  30  27     1.102396121993   106.43917339   321.26595885
 C     40  30  27     1.542256561280   118.81880434    82.03699247
 C     30  27  24     1.534554963650   111.13151980   294.10782420
 H     45  30  27     1.094679807246   111.56161616   186.28061082
 H     45  30  27     1.094402576291   111.52111306    66.25394125
 H     45  30  27     1.095528512954   110.66886154   306.10225936
 H     44  40  30     1.099978155868   108.25712648    60.98233042
 C     44  40  30     1.536211388513   113.51736592   300.13845701
 C     44  40  30     1.505612041223   109.38693051   178.27003887
 C     51  44  40     1.331381437816   125.46013734   239.88432444
 H     51  44  40     1.094724567466   115.55042522    61.03725853
 H     52  51  44     1.094851646888   118.86448506     1.16459536
 C     52  51  44     1.503138838631   125.58914994   179.70791192
 C     55  52  51     1.537478222159   109.05892576   245.70930216
 C     55  52  51     1.548707573586   111.03826061   121.54685557
 H     55  52  51     1.101882394117   108.31933595     3.65964868
 H     57  55  52     1.102183328803   107.15528690    59.32006390
 C     57  55  52     1.531062470860   110.94107112   301.21295056
 C     57  55  52     1.531283694633   112.08670718   178.02944542
 H     56  55  52     1.097335915494   110.52296195   292.61594564
 H     56  55  52     1.093966099013   111.87079046   172.05488884
 H     56  55  52     1.094954850442   110.31323309    51.89261162
 H     60  57  55     1.094196114740   111.68811716    58.69304539
 H     60  57  55     1.097927284018   110.27454997   298.95369612
 H     60  57  55     1.095537435414   110.81940875   179.56821503
 H     61  57  55     1.093640799139   112.42526757   295.47845118
 H     61  57  55     1.095539898005   110.39121398   175.27982985
 H     61  57  55     1.097811627575   110.41066320    56.27361234
 H     50  44  40     1.092951221695   111.90946890    67.40265755
 H     50  44  40     1.096993544669   110.75599061   306.68992508
 H     50  44  40     1.095408303873   110.14530560   187.35818879

---------------------------
INTERNAL COORDINATES (A.U.)
---------------------------
 C      0   0   0     0.000000000000     0.00000000     0.00000000
 C      1   0   0     2.854383194184     0.00000000     0.00000000
 C      2   1   0     2.898916523322   110.46502575     0.00000000
 H      2   1   3     2.071016727386   110.72138717   237.87940605
 H      2   1   3     2.078931415215   109.82368673   118.77247738
 C      1   2   3     2.796243247627   113.92365854   306.09926409
 C      6   1   2     2.858795374854   114.40835537    49.79928005
 C      3   2   1     2.890460860674   110.16588236    56.78018473
 H      7   6   1     2.069680756718   110.22109195   188.77643938
 H      7   6   1     2.079928373194   108.27701245    72.11463274
 H      8   3   2     2.075953455628   108.31334147    64.45392552
 H      8   3   2     2.071452825534   109.51496384   181.43472008
 O      3   2   1     2.716253300953   110.66058303   292.78011937
 H      3   2   1     2.073078172063   109.50561241   177.26844831
 C      1   2   3     2.559313883165   121.21940004   122.99104033
 C      6   1   2     2.527481170911   123.15086697   231.75860204
 H     16   6   1     2.053680237948   121.34896981   359.02453842
 H     16   6   1     2.055048789176   120.93286058   178.39316967
 C     15   1   2     2.730183496302   126.12267766   185.01369587
 H     15   1   2     2.058657846468   116.25856342     3.04636884
 C     19  15   1     2.551061311696   126.48678814   186.01260696
 H     19  15   1     2.055515219700   115.78795011     6.47879454
 C     21  19  15     2.848666028546   125.72927125     2.04400581
 C     23  21  19     2.912877646633   111.51565082   124.21837601
 H     23  21  19     2.066198229318   112.39493274     0.60156649
 H     23  21  19     2.081703125894   107.91074307   242.79090690
 C     24  23  21     2.900419613524   112.68340652    51.01251305
 H     24  23  21     2.073692354330   108.99249413   288.88048248
 H     24  23  21     2.072869943723   109.12296119   172.95889217
 C     27  24  23     2.900428372422   111.89306523   306.52724535
 H     27  24  23     2.069363111633   108.91169903   182.99525049
 H     27  24  23     2.079584877604   109.21049790    66.53904663
 C     21  19  15     2.830526813604   122.88525086   179.78286131
 H     33  21  19     2.088811300099   106.47695337   127.76120480
 C     33  21  19     2.883653344824   121.24577271     5.06964097
 H     13   3   2     1.828942176278   107.57938414    42.32911551
 C     35  33  21     2.926020262283   103.58804817   196.96704252
 H     35  33  21     2.069329303438   112.06789279    74.91501853
 H     35  33  21     2.070608612139   110.81120096   315.32108669
 C     30  27  24     2.936172729977   115.99615160   166.26924582
 H     37  35  33     2.068302114278   111.96740850   249.65148272
 H     37  35  33     2.071731446561   110.94109017   131.06143891
 H     40  30  27     2.083226761663   106.43917339   321.26595885
 C     40  30  27     2.914442529063   118.81880434    82.03699247
 C     30  27  24     2.899888618749   111.13151980   294.10782420
 H     45  30  27     2.068645040028   111.56161616   186.28061082
 H     45  30  27     2.068121149447   111.52111306    66.25394125
 H     45  30  27     2.070248861385   110.66886154   306.10225936
 H     44  40  30     2.078657467887   108.25712648    60.98233042
 C     44  40  30     2.903018808101   113.51736592   300.13845701
 C     44  40  30     2.845194421845   109.38693051   178.27003887
 C     51  44  40     2.515946297259   125.46013734   239.88432444
 H     51  44  40     2.068729624586   115.55042522    61.03725853
 H     52  51  44     2.068969769891   118.86448506     1.16459536
 C     52  51  44     2.840520746272   125.58914994   179.70791192
 C     55  52  51     2.905412776748   109.05892576   245.70930216
 C     55  52  51     2.926633175608   111.03826061   121.54685557
 H     55  52  51     2.082255956671   108.31933595     3.65964868
 H     57  55  52     2.082824640811   107.15528690    59.32006390
 C     57  55  52     2.893288763850   110.94107112   301.21295056
 C     57  55  52     2.893706816195   112.08670718   178.02944542
 H     56  55  52     2.073664357200   110.52296195   292.61594564
 H     56  55  52     2.067296326928   111.87079046   172.05488884
 H     56  55  52     2.069164796345   110.31323309    51.89261162
 H     60  57  55     2.067730993659   111.68811716    58.69304539
 H     60  57  55     2.074781881754   110.27454997   298.95369612
 H     60  57  55     2.070265722390   110.81940875   179.56821503
 H     61  57  55     2.066681599255   112.42526757   295.47845118
 H     61  57  55     2.070270376014   110.39121398   175.27982985
 H     61  57  55     2.074563322751   110.41066320    56.27361234
 H     50  44  40     2.065378486739   111.90946890    67.40265755
 H     50  44  40     2.073017370104   110.75599061   306.68992508
 H     50  44  40     2.070021699144   110.14530560   187.35818879

---------------------
BASIS SET INFORMATION
---------------------
There are 3 groups of distinct atoms

 Group   1 Type C   : 7s4p1d contracted to 3s2p1d pattern {511/31/1}
 Group   2 Type H   : 4s1p contracted to 2s1p pattern {31/1}
 Group   3 Type O   : 7s4p1d contracted to 3s2p1d pattern {511/31/1}

Atom   0C    basis set group =>   1
Atom   1C    basis set group =>   1
Atom   2C    basis set group =>   1
Atom   3H    basis set group =>   2
Atom   4H    basis set group =>   2
Atom   5C    basis set group =>   1
Atom   6C    basis set group =>   1
Atom   7C    basis set group =>   1
Atom   8H    basis set group =>   2
Atom   9H    basis set group =>   2
Atom  10H    basis set group =>   2
Atom  11H    basis set group =>   2
Atom  12O    basis set group =>   3
Atom  13H    basis set group =>   2
Atom  14C    basis set group =>   1
Atom  15C    basis set group =>   1
Atom  16H    basis set group =>   2
Atom  17H    basis set group =>   2
Atom  18C    basis set group =>   1
Atom  19H    basis set group =>   2
Atom  20C    basis set group =>   1
Atom  21H    basis set group =>   2
Atom  22C    basis set group =>   1
Atom  23C    basis set group =>   1
Atom  24H    basis set group =>   2
Atom  25H    basis set group =>   2
Atom  26C    basis set group =>   1
Atom  27H    basis set group =>   2
Atom  28H    basis set group =>   2
Atom  29C    basis set group =>   1
Atom  30H    basis set group =>   2
Atom  31H    basis set group =>   2
Atom  32C    basis set group =>   1
Atom  33H    basis set group =>   2
Atom  34C    basis set group =>   1
Atom  35H    basis set group =>   2
Atom  36C    basis set group =>   1
Atom  37H    basis set group =>   2
Atom  38H    basis set group =>   2
Atom  39C    basis set group =>   1
Atom  40H    basis set group =>   2
Atom  41H    basis set group =>   2
Atom  42H    basis set group =>   2
Atom  43C    basis set group =>   1
Atom  44C    basis set group =>   1
Atom  45H    basis set group =>   2
Atom  46H    basis set group =>   2
Atom  47H    basis set group =>   2
Atom  48H    basis set group =>   2
Atom  49C    basis set group =>   1
Atom  50C    basis set group =>   1
Atom  51C    basis set group =>   1
Atom  52H    basis set group =>   2
Atom  53H    basis set group =>   2
Atom  54C    basis set group =>   1
Atom  55C    basis set group =>   1
Atom  56C    basis set group =>   1
Atom  57H    basis set group =>   2
Atom  58H    basis set group =>   2
Atom  59C    basis set group =>   1
Atom  60C    basis set group =>   1
Atom  61H    basis set group =>   2
Atom  62H    basis set group =>   2
Atom  63H    basis set group =>   2
Atom  64H    basis set group =>   2
Atom  65H    basis set group =>   2
Atom  66H    basis set group =>   2
Atom  67H    basis set group =>   2
Atom  68H    basis set group =>   2
Atom  69H    basis set group =>   2
Atom  70H    basis set group =>   2
Atom  71H    basis set group =>   2
Atom  72H    basis set group =>   2

-------------------------
BASIS SET IN INPUT FORMAT
-------------------------

 # Basis set for element : H 
 NewGTO H 
 S 3 
   1      13.0107010000      0.0334854848
   2       1.9622572000      0.2347218709
   3       0.4445379600      0.8137702853
 S 1 
   1       0.1219496200      1.0000000000
 P 1 
   1       0.8000000000      1.0000000000
  end;

 # Basis set for element : C 
 NewGTO C 
 S 5 
   1    1238.4016938000      0.0055173650
   2     186.2900499200      0.0410888285
   3      42.2511763460      0.1822538213
   4      11.6765579320      0.4682845944
   5       3.5930506482      0.4457581734
 S 1 
   1       0.4024514736      1.0000000000
 S 1 
   1       0.1309018267      1.0000000000
 P 3 
   1       9.4680970621      0.0568883320
   2       2.0103545142      0.3129405934
   3       0.5477100471      0.7606501651
 P 1 
   1       0.1526861379      1.0000000000
 D 1 
   1       0.8000000000      1.0000000000
  end;

 # Basis set for element : O 
 NewGTO O 
 S 5 
   1    2266.1767785000     -0.0053893504
   2     340.8701019100     -0.0402347214
   3      77.3631351670     -0.1800818421
   4      21.4796449400     -0.4682885766
   5       6.6589433124     -0.4469261716
 S 1 
   1       0.8097597567      1.0000000000
 S 1 
   1       0.2553077223      1.0000000000
 P 3 
   1      17.7215043170      0.0626302488
   2       3.8635505440      0.3333113849
   3       1.0480920883      0.7414863830
 P 1 
   1       0.2764154441      1.0000000000
 D 1 
   1       1.2000000000      1.0000000000
  end;

---------------------------------
AUXILIARY/J BASIS SET INFORMATION
---------------------------------
There are 3 groups of distinct atoms

 Group   1 Type C   : 12s5p4d2f1g contracted to 6s4p3d1f1g pattern {711111/2111/211/2/1}
 Group   2 Type H   : 5s2p1d contracted to 3s1p1d pattern {311/2/1}
 Group   3 Type O   : 12s5p4d2f1g contracted to 6s4p3d1f1g pattern {711111/2111/211/2/1}

Atom   0C    basis set group =>   1
Atom   1C    basis set group =>   1
Atom   2C    basis set group =>   1
Atom   3H    basis set group =>   2
Atom   4H    basis set group =>   2
Atom   5C    basis set group =>   1
Atom   6C    basis set group =>   1
Atom   7C    basis set group =>   1
Atom   8H    basis set group =>   2
Atom   9H    basis set group =>   2
Atom  10H    basis set group =>   2
Atom  11H    basis set group =>   2
Atom  12O    basis set group =>   3
Atom  13H    basis set group =>   2
Atom  14C    basis set group =>   1
Atom  15C    basis set group =>   1
Atom  16H    basis set group =>   2
Atom  17H    basis set group =>   2
Atom  18C    basis set group =>   1
Atom  19H    basis set group =>   2
Atom  20C    basis set group =>   1
Atom  21H    basis set group =>   2
Atom  22C    basis set group =>   1
Atom  23C    basis set group =>   1
Atom  24H    basis set group =>   2
Atom  25H    basis set group =>   2
Atom  26C    basis set group =>   1
Atom  27H    basis set group =>   2
Atom  28H    basis set group =>   2
Atom  29C    basis set group =>   1
Atom  30H    basis set group =>   2
Atom  31H    basis set group =>   2
Atom  32C    basis set group =>   1
Atom  33H    basis set group =>   2
Atom  34C    basis set group =>   1
Atom  35H    basis set group =>   2
Atom  36C    basis set group =>   1
Atom  37H    basis set group =>   2
Atom  38H    basis set group =>   2
Atom  39C    basis set group =>   1
Atom  40H    basis set group =>   2
Atom  41H    basis set group =>   2
Atom  42H    basis set group =>   2
Atom  43C    basis set group =>   1
Atom  44C    basis set group =>   1
Atom  45H    basis set group =>   2
Atom  46H    basis set group =>   2
Atom  47H    basis set group =>   2
Atom  48H    basis set group =>   2
Atom  49C    basis set group =>   1
Atom  50C    basis set group =>   1
Atom  51C    basis set group =>   1
Atom  52H    basis set group =>   2
Atom  53H    basis set group =>   2
Atom  54C    basis set group =>   1
Atom  55C    basis set group =>   1
Atom  56C    basis set group =>   1
Atom  57H    basis set group =>   2
Atom  58H    basis set group =>   2
Atom  59C    basis set group =>   1
Atom  60C    basis set group =>   1
Atom  61H    basis set group =>   2
Atom  62H    basis set group =>   2
Atom  63H    basis set group =>   2
Atom  64H    basis set group =>   2
Atom  65H    basis set group =>   2
Atom  66H    basis set group =>   2
Atom  67H    basis set group =>   2
Atom  68H    basis set group =>   2
Atom  69H    basis set group =>   2
Atom  70H    basis set group =>   2
Atom  71H    basis set group =>   2
Atom  72H    basis set group =>   2

-------------------------------------
AUXILIARY/J BASIS SET IN INPUT FORMAT
-------------------------------------

 # Auxiliary/J basis set for element : H 
 NewAuxJGTO H 
 S 3 
   1      15.6752927000      0.1007184237
   2       3.6063578000      0.3404257499
   3       1.2080016000      0.6491996172
 S 1 
   1       0.4726794000      1.0000000000
 S 1 
   1       0.2018100000      1.0000000000
 P 2 
   1       2.0281365000      0.5596620919
   2       0.5358730000      0.5596620919
 D 1 
   1       2.2165124000      1.0000000000
  end;

 # Auxiliary/J basis set for element : C 
 NewAuxJGTO C 
 S 7 
   1    1861.0916331000      0.0134602335
   2     642.9939764000      0.0299160374
   3     235.1105725000      0.1008649584
   4      90.7028894000      0.2370970548
   5      36.7794552000      0.3924037254
   6      15.6046273000      0.3195862154
   7       6.8907294000      0.0530104441
 S 1 
   1       3.1478850000     -1.0000000000
 S 1 
   1       1.4777287000      1.0000000000
 S 1 
   1       0.7076466000      1.0000000000
 S 1 
   1       0.3430122000      1.0000000000
 S 1 
   1       0.1669453000      1.0000000000
 P 2 
   1      13.5472892000     -0.6769313712
   2       5.4669419000     -0.3779500978
 P 1 
   1       2.1751721000      1.0000000000
 P 1 
   1       0.8582194000      1.0000000000
 P 1 
   1       0.3376720000      1.0000000000
 D 2 
   1       5.9287253000     -0.3533329857
   2       1.9809209000     -0.7456525731
 D 1 
   1       0.8055417000     -1.0000000000
 D 1 
   1       0.3531244000     -1.0000000000
 F 2 
   1       1.6755626000      0.6311076882
   2       0.5997536000      0.4968166032
 G 1 
   1       1.0024600000     -1.0000000000
  end;

 # Auxiliary/J basis set for element : O 
 NewAuxJGTO O 
 S 7 
   1    2876.8216605000      0.0168151159
   2    1004.7443032000      0.0340137548
   3     369.7579954000      0.1194951309
   4     142.9442404000      0.2664627624
   5      57.8366425000      0.4202764046
   6      24.3864983000      0.2765077335
   7      10.6622662000      0.0057008815
 S 1 
   1       4.8070437000     -1.0000000000
 S 1 
   1       2.2210770000      1.0000000000
 S 1 
   1       1.0447795000      1.0000000000
 S 1 
   1       0.4968425000      1.0000000000
 S 1 
   1       0.2371384000      1.0000000000
 P 2 
   1      64.2613382000     -0.2731534179
   2      16.3006076000     -0.8168011598
 P 1 
   1       4.3550542000      1.0000000000
 P 1 
   1       1.2019554000      1.0000000000
 P 1 
   1       0.3354196000      1.0000000000
 D 2 
   1       9.2146611000     -0.4661230638
   2       2.8435251000     -0.6600908911
 D 1 
   1       0.9955759000     -1.0000000000
 D 1 
   1       0.3649441000     -1.0000000000
 F 2 
   1       2.6420115000      0.5931563945
   2       0.7345613000      0.5931563945
 G 1 
   1       1.3931000000     -1.0000000000
  end;


Checking for AutoStart:
The File: inpS.gbw exists
Trying to determine its content:
     ... Fine, the file contains calculation information
     ... Fine, the calculation information was read
     ... Fine, the file contains a basis set
     ... Fine, the basis set was read
     ... Fine, the file contains a geometry
     ... Fine, the geometry was read
     ... Fine, the file contains a set of orbitals
     ... Fine, the orbitals can be read
     => possible old guess file was deleted
     => GBW file was renamed to GES file
     => GES file is set as startup file
     => Guess is set to MORead
     ... now leaving AutoStart



           ************************************************************
           *        Program running with 4 parallel MPI-processes     *
           *              working on a common directory               *
           ************************************************************
------------------------------------------------------------------------------
                             ORCA STARTUP CALCULATIONS
                           -- RI-GTO INTEGRALS CHOSEN --
------------------------------------------------------------------------------
------------------------------------------------------------------------------
                   ___                                                        
                  /   \      - P O W E R E D   B Y -                         
                 /     \                                                     
                 |  |  |   _    _      __       _____    __    __             
                 |  |  |  | |  | |    /  \     |  _  \  |  |  /  |          
                  \  \/   | |  | |   /    \    | | | |  |  | /  /          
                 / \  \   | |__| |  /  /\  \   | |_| |  |  |/  /          
                |  |  |   |  __  | /  /__\  \  |    /   |      \           
                |  |  |   | |  | | |   __   |  |    \   |  |\   \          
                \     /   | |  | | |  |  |  |  | |\  \  |  | \   \       
                 \___/    |_|  |_| |__|  |__|  |_| \__\ |__|  \__/        
                                                                              
                      - O R C A' S   B I G   F R I E N D -                    
                                      &                                       
                       - I N T E G R A L  F E E D E R -                       
                                                                              
 v1 FN, 2020, v2 2021, v3 2022-2024                                           
------------------------------------------------------------------------------


----------------------
SHARK INTEGRAL PACKAGE
----------------------

Number of atoms                             ...     73
Number of basis functions                   ...    626
Number of shells                            ...    306
Maximum angular momentum                    ...      2
Integral batch strategy                     ... SHARK/LIBINT Hybrid
RI-J (if used) integral strategy            ... SPLIT-RIJ (Revised 2003 algorithm where possible)
Printlevel                                  ...      1
Contraction scheme used                     ... SEGMENTED contraction
Prescreening option                         ... SCHWARTZ
   Thresh                                   ... 3.000e-11
   Tcut                                     ... 1.000e-12
   Tpresel                                  ... 1.000e-12 
Coulomb Range Separation                    ... NOT USED
Exchange Range Separation                   ... Long Range
   Mu parameter                             ... 3.000e-01
   Scaling (regular/separated)              ... 1.670e-01 8.330e-01
Multipole approximations                    ... NOT USED
Finite Nucleus Model                        ... NOT USED
CABS basis                                  ... NOT available
Auxiliary Coulomb fitting basis             ... AVAILABLE
   # of basis functions in Aux-J            ...   1905
   # of shells in Aux-J                     ...    655
   Maximum angular momentum in Aux-J        ...      4
Auxiliary J/K fitting basis                 ... NOT available
Auxiliary Correlation fitting basis         ... NOT available
Auxiliary 'external' fitting basis          ... NOT available

Checking pre-screening integrals            ... done (  0.0 sec) Dimension = 306
Check shell pair data                       ... done (  0.0 sec)
Shell pair information
Shell pair cut-off parameter TPreSel        ...   1.0e-12
Total number of shell pairs                 ...     46971
Shell pairs after pre-screening             ...     27259
Total number of primitive shell pairs       ...    162105
Primitive shell pairs kept                  ...     60236
          la=0 lb=0:   9537 shell pairs
          la=1 lb=0:  10449 shell pairs
          la=1 lb=1:   2896 shell pairs
          la=2 lb=0:   2729 shell pairs
          la=2 lb=1:   1452 shell pairs
          la=2 lb=2:    196 shell pairs

Calculating one electron integrals          ... done (  0.1 sec)
Calculating RI/J V-Matrix + Cholesky decomp.... done (  0.2 sec)
Calculating Nuclear repulsion               ... done (  0.0 sec) ENN=   2772.582069227696 Eh

Diagonalization of the overlap matrix:
Smallest eigenvalue                        ... 4.567e-04
Time for diagonalization                   ...    0.047 sec
Threshold for overlap eigenvalues          ... 1.000e-07
Number of eigenvalues below threshold      ... 0
Time for construction of square roots      ...    0.031 sec
Total time needed                          ...    0.081 sec

-------------------
DFT GRID GENERATION
-------------------

General Integration Accuracy     IntAcc      ... 4.388
Radial Grid Type                 RadialGrid  ... OptM3 with GC (2021)
Angular Grid (max. ang.)         AngularGrid ... 4 (Lebedev-302)
Angular grid pruning method      GridPruning ... 4 (adaptive)
Weight generation scheme         WeightScheme... mBecke (2022)
Basis function cutoff            BFCut       ... 1.0000e-11
Integration weight cutoff        WCut        ... 1.0000e-14
Partially contracted basis set               ... off
Rotationally invariant grid construction     ... off
Angular grids for H and He will be reduced by one unit

Total number of grid points                  ...   310038
Total number of batches                      ...     4882
Average number of points per batch           ...       63
Average number of grid points per atom       ...     4247

--------------------
COSX GRID GENERATION
--------------------

GRIDX 1
-------
General Integration Accuracy     IntAcc      ... 3.816
Radial Grid Type                 RadialGrid  ... OptM3 with GC (2021)
Angular Grid (max. ang.)         AngularGrid ... 1 (Lebedev-50)
Angular grid pruning method      GridPruning ... 4 (adaptive)
Weight generation scheme         WeightScheme... mBecke (2022)
Basis function cutoff            BFCut       ... 1.0000e-11
Integration weight cutoff        WCut        ... 1.0000e-14
Partially contracted basis set               ... on
Rotationally invariant grid construction     ... off
Angular grids for H and He will be reduced by one unit

Total number of grid points                  ...    39409
Total number of batches                      ...      351
Average number of points per batch           ...      112
Average number of grid points per atom       ...      540
UseSFitting                                  ... on

GRIDX 2
-------
General Integration Accuracy     IntAcc      ... 4.020
Radial Grid Type                 RadialGrid  ... OptM3 with GC (2021)
Angular Grid (max. ang.)         AngularGrid ... 2 (Lebedev-110)
Angular grid pruning method      GridPruning ... 4 (adaptive)
Weight generation scheme         WeightScheme... mBecke (2022)
Basis function cutoff            BFCut       ... 1.0000e-11
Integration weight cutoff        WCut        ... 1.0000e-14
Partially contracted basis set               ... on
Rotationally invariant grid construction     ... off
Angular grids for H and He will be reduced by one unit

Total number of grid points                  ...    81448
Total number of batches                      ...      679
Average number of points per batch           ...      119
Average number of grid points per atom       ...     1116
UseSFitting                                  ... on

GRIDX 3
-------
General Integration Accuracy     IntAcc      ... 4.338
Radial Grid Type                 RadialGrid  ... OptM3 with GC (2021)
Angular Grid (max. ang.)         AngularGrid ... 3 (Lebedev-194)
Angular grid pruning method      GridPruning ... 4 (adaptive)
Weight generation scheme         WeightScheme... mBecke (2022)
Basis function cutoff            BFCut       ... 1.0000e-11
Integration weight cutoff        WCut        ... 1.0000e-14
Partially contracted basis set               ... on
Rotationally invariant grid construction     ... off
Angular grids for H and He will be reduced by one unit

Total number of grid points                  ...   176405
Total number of batches                      ...     1421
Average number of points per batch           ...      124
Average number of grid points per atom       ...     2417
UseSFitting                                  ... on
Initializing property integral containers    ... done (  0.0 sec)

SHARK setup successfully completed in   4.4 seconds

Maximum memory used throughout the entire STARTUP-calculation: 95.5 MB


           ************************************************************
           *        Program running with 4 parallel MPI-processes     *
           *              working on a common directory               *
           ************************************************************
-------------------------------------------------------------------------------
                                 ORCA GUESS
                   Start orbitals & Density for SCF / CASSCF
-------------------------------------------------------------------------------

------------
SCF SETTINGS
------------
Hamiltonian:
 Density Functional     Method          .... DFT(GTOs)
 Exchange Functional    Exchange        .... WB97X-V
 Correlation Functional Correlation     .... WB97X-V
 Gradients option       PostSCFGGA      .... off
 Hybrid DFT is turned on
   Fraction HF Exchange ScalHFX         ....  0.167000
   Scaling of DF-GGA-X  ScalDFX         ....  0.000000
   Scaling of DF-GGA-C  ScalDFC         ....  1.000000
   Scaling of DF-LDA-C  ScalLDAC        ....  1.000000
   Perturbative correction              ....  0.000000
 Long-range corrected/Screened/Range-Separated Hybrid DFT is turned on
   Amount of maximum screened exact exchange              ....  0.833000
   Range separation parameter mu (erf(mu*r12)/r12)        ....  0.300000
 RI-approximation to the Coulomb term is turned on
   Number of AuxJ basis functions       .... 1905
   RIJ-COSX (HFX calculated with COS-X)).... on


General Settings:
 Integral files         IntName         .... inpS
 Hartree-Fock type      HFTyp           .... RHF
 Total Charge           Charge          ....    0
 Multiplicity           Mult            ....    1
 Number of Electrons    NEL             ....  220
 Basis Dimension        Dim             ....  626
 Nuclear Repulsion      ENuc            ....   2772.5820692277 Eh

Convergence Acceleration:
 AO-DIIS                CNVDIIS         .... on
   Start iteration      DIISMaxIt       ....    12
   Startup error        DIISStart       ....  0.200000
   # of expansion vecs  DIISMaxEq       ....     5
   Bias factor          DIISBfac        ....   1.050
   Max. coefficient     DIISMaxC        ....  10.000
 MO-DIIS                CNVKDIIS        .... off
 Trust-Rad. Augm. Hess. CNVTRAH         .... auto
   Auto Start mean grad. ratio tolernc. ....  1.125000
   Auto Start start iteration           ....     1
   Auto Start num. interpolation iter.  ....    10
   Max. Number of Micro iterations      ....    24
   Max. Number of Macro iterations      .... Maxiter - #DIIS iter
   Number of Davidson start vectors     ....     2
   Converg. threshold    (grad. norm)   ....   1.000e-04
   Grad. Scal. Fac. for Micro threshold ....   0.100
   Minimum threshold for Micro iter.    ....   1.000e-02
   NR start threshold (gradient norm)   ....   1.000e-04
   Initial trust radius                 ....   0.400
   Minimum AH scaling param. (alpha)    ....   1.000
   Maximum AH scaling param. (alpha)    .... 1000.000
   Quad. conv. algorithm                .... NR
   White noise on init. David. guess    .... on
   Maximum white noise                  ....   0.010
   Pseudo random numbers                .... off
   Inactive MOs                         .... canonical
   Orbital update algorithm             .... Taylor
   Preconditioner                       .... Diag
   Full preconditioner red. dimension   ....   250
 SOSCF                  CNVSOSCF        .... off
 Level Shifting         CNVShift        .... on
   Level shift para.    LevelShift      ....    0.2500
   Turn off err/grad.   ShiftErr        ....    0.0010
 Zerner damping         CNVZerner       .... off
 Static damping         CNVDamp         .... on
   Fraction old density DampFac         ....    0.7000
   Max. Damping (<1)    DampMax         ....    0.9800
   Min. Damping (>=0)   DampMin         ....    0.0000
   Turn off err/grad.   DampErr         ....    0.1000

SCF Procedure:
 Maximum # iterations   MaxIter         ....   125
 SCF integral mode      SCFMode         .... Direct
   Integral package                     .... SHARK and LIBINT hybrid scheme
 Reset frequency        DirectResetFreq ....    20
 Integral Threshold     Thresh          ....  3.000e-11 Eh
 Primitive CutOff       TCut            ....  1.000e-12 Eh

Convergence Tolerance:
 Convergence Check Mode ConvCheckMode   .... Total+1el-Energy
 Convergence forced     ConvForced      .... 0
 Energy Change          TolE            ....  1.000e-07 Eh
 1-El. energy change                    ....  1.000e-04 Eh
 DIIS Error             TolErr          ....  1.000e-07

---------------------
INITIAL GUESS: MOREAD
---------------------
Guess MOs are being read from file: inpS.ges
Input Geometry matches current geometry (good)
Input basis set matches current basis set (good)
Occupation numbers will be reassigned to an Aufbau configuration
MOs were renormalized
MOs were reorthogonalized (Cholesky)
                      ------------------
                      INITIAL GUESS DONE (   0.2 sec)
                      ------------------
             **** ENERGY FILE WAS UPDATED (inpS.en.tmp) ****
Finished Guess after   0.3 sec
Maximum memory used throughout the entire GUESS-calculation: 52.1 MB


           ************************************************************
           *        Program running with 4 parallel MPI-processes     *
           *              working on a common directory               *
           ************************************************************

-------------------------------------------------------------------------------------------
                                      ORCA LEAN-SCF
                              memory conserving SCF solver
-------------------------------------------------------------------------------------------

--------------------
CPCM SOLVATION MODEL
--------------------
CPCM parameters:
  Epsilon                                         ...       4.8030
  Refrac                                          ...       1.4459
  Rsolv                                           ...       1.3000
  Surface type                                    ... GAUSSIAN VDW
  Discretization scheme                           ... Constant charge density
    Threshold for H atoms                         ...       5.0000 (charges/Ang^2)
    Threshold for non-H atoms                     ...       5.0000 (charges/Ang^2)
  Epsilon function type                           ...         CPCM
Solvent:                                          ... CHLOROFORM
Radii:
  Scheme                                          ... Element-dependent radii
  Radius for C  used is    3.8550 Bohr (=   2.0400 Ang.)
  Radius for H  used is    2.4944 Bohr (=   1.3200 Ang.)
  Radius for O  used is    3.4469 Bohr (=   1.8240 Ang.)
Calculating surface                               ...        done! (  0.0s)
Cavity surface points                             ...         5405
Cavity Volume                                     ...    3613.0326
Cavity Surface-area                               ...    1803.5209
Calculating surface distance matrix               ...        done! (  0.3s)
Performing Cholesky decomposition & store         ...        done! (  1.4s)
Overall time for CPCM initialization              ...                 1.6s

----------------------------------------D-I-I-S--------------------------------------------
Iteration    Energy (Eh)           Delta-E    RMSDP     MaxDP     DIISErr   Damp  Time(sec)
-------------------------------------------------------------------------------------------
               ***  Starting incremental Fock matrix formation  ***
    1    -1168.3646293093356689     0.00e+00  3.21e-08  2.18e-06  4.56e-06  0.700  23.3

  HOMO= 109 E= -7.959 eV LUMO=  8.071 eV gap=  16.029 eV
    2    -1168.3646292993257703     1.00e-08  2.75e-08  1.39e-06  2.61e-06  0.700   5.0
                 **** Energy Check signals convergence ****

  HOMO= 109 E= -7.959 eV LUMO=  8.071 eV gap=  16.029 eV

               *****************************************************
               *                     SUCCESS                       *
               *           SCF CONVERGED AFTER   2 CYCLES          *
               *****************************************************

Recomputing exchange energy using gridx3       ... done (   39.986 sec)
Old exchange energy                            :    -56.782070914 Eh
New exchange energy                            :    -56.782034117 Eh
Exchange energy change after final integration :      0.000036797 Eh
Total energy after final integration           :  -1168.364592502 Eh
             **** ENERGY FILE WAS UPDATED (inpS.en.tmp) ****

----------------
TOTAL SCF ENERGY
----------------

Total Energy       :      -1168.36459250212874 Eh          -31792.81688 eV

Components:
Nuclear Repulsion  :       2772.58206922769568 Eh           75445.79369 eV
Electronic Energy  :      -3940.93763627325416 Eh         -107238.36498 eV
One Electron Energy:      -7090.21009729230991 Eh         -192934.42534 eV
Two Electron Energy:       3149.27246101905575 Eh           85696.06037 eV
CPCM Dielectric    :         -0.00906225376742 Eh              -0.24660 eV

Virial components:
Potential Energy   :      -2321.66772092650262 Eh          -63175.79048 eV
Kinetic Energy     :       1153.30312842437411 Eh           31382.97360 eV
Virial Ratio       :          2.01305941491577

DFT components:
N(Alpha)           :      110.000024422081 electrons
N(Beta)            :      110.000024422081 electrons
N(Total)           :      220.000048844163 electrons
E(X)               :     -111.767480185033 Eh       
E(C)               :       -8.950439778319 Eh       
E(XC)              :     -120.717919963352 Eh       

CPCM Solvation Model Properties:
Surface-charge          :         -0.04237279572687
Corrected charge        :          0.00000000000000
Outlying charge corr.   :          0.00006270886356 Eh               0.00171 eV
Free-energy (cav+disp)  :  This term is not implemented in the current solvation scheme

---------------
SCF CONVERGENCE
---------------

  Last Energy change         ...   -1.0010e-08  Tolerance :   1.0000e-07
  Last MAX-Density change    ...    1.3918e-06  Tolerance :   1.0000e-05
  Last RMS-Density change    ...    2.7529e-08  Tolerance :   1.0000e-06
  Last DIIS Error            ...    2.6066e-06  Tolerance :   1.0000e-07


----------------
ORBITAL ENERGIES
----------------

  NO   OCC          E(Eh)            E(eV) 
   0   2.0000     -19.212369      -522.7951 
   1   2.0000     -10.330302      -281.1018 
   2   2.0000     -10.294238      -280.1204 
   3   2.0000     -10.292027      -280.0603 
   4   2.0000     -10.287503      -279.9372 
   5   2.0000     -10.286591      -279.9124 
   6   2.0000     -10.285467      -279.8818 
   7   2.0000     -10.284130      -279.8454 
   8   2.0000     -10.282969      -279.8138 
   9   2.0000     -10.281812      -279.7823 
  10   2.0000     -10.281439      -279.7722 
  11   2.0000     -10.281004      -279.7603 
  12   2.0000     -10.279286      -279.7136 
  13   2.0000     -10.278067      -279.6804 
  14   2.0000     -10.277644      -279.6689 
  15   2.0000     -10.277479      -279.6644 
  16   2.0000     -10.277423      -279.6629 
  17   2.0000     -10.276996      -279.6513 
  18   2.0000     -10.273783      -279.5638 
  19   2.0000     -10.273005      -279.5427 
  20   2.0000     -10.272973      -279.5418 
  21   2.0000     -10.272242      -279.5219 
  22   2.0000     -10.270875      -279.4847 
  23   2.0000     -10.270396      -279.4717 
  24   2.0000     -10.270214      -279.4667 
  25   2.0000     -10.269933      -279.4591 
  26   2.0000     -10.268389      -279.4171 
  27   2.0000     -10.267287      -279.3871 
  28   2.0000     -10.266503      -279.3657 
  29   2.0000      -1.130908       -30.7736 
  30   2.0000      -0.998667       -27.1751 
  31   2.0000      -0.977263       -26.5927 
  32   2.0000      -0.957760       -26.0620 
  33   2.0000      -0.943344       -25.6697 
  34   2.0000      -0.918025       -24.9807 
  35   2.0000      -0.910925       -24.7875 
  36   2.0000      -0.890182       -24.2231 
  37   2.0000      -0.888064       -24.1654 
  38   2.0000      -0.874029       -23.7835 
  39   2.0000      -0.853605       -23.2278 
  40   2.0000      -0.836075       -22.7508 
  41   2.0000      -0.830448       -22.5976 
  42   2.0000      -0.809647       -22.0316 
  43   2.0000      -0.798692       -21.7335 
  44   2.0000      -0.797021       -21.6881 
  45   2.0000      -0.791408       -21.5353 
  46   2.0000      -0.760640       -20.6981 
  47   2.0000      -0.751674       -20.4541 
  48   2.0000      -0.721695       -19.6383 
  49   2.0000      -0.712946       -19.4003 
  50   2.0000      -0.703829       -19.1522 
  51   2.0000      -0.696279       -18.9467 
  52   2.0000      -0.688671       -18.7397 
  53   2.0000      -0.668733       -18.1972 
  54   2.0000      -0.666922       -18.1479 
  55   2.0000      -0.645282       -17.5590 
  56   2.0000      -0.630487       -17.1564 
  57   2.0000      -0.619881       -16.8678 
  58   2.0000      -0.607470       -16.5301 
  59   2.0000      -0.601372       -16.3642 
  60   2.0000      -0.588729       -16.0201 
  61   2.0000      -0.580799       -15.8043 
  62   2.0000      -0.571336       -15.5468 
  63   2.0000      -0.569446       -15.4954 
  64   2.0000      -0.562994       -15.3198 
  65   2.0000      -0.555817       -15.1245 
  66   2.0000      -0.554495       -15.0886 
  67   2.0000      -0.551561       -15.0087 
  68   2.0000      -0.549559       -14.9543 
  69   2.0000      -0.541043       -14.7225 
  70   2.0000      -0.537131       -14.6161 
  71   2.0000      -0.531763       -14.4700 
  72   2.0000      -0.525417       -14.2973 
  73   2.0000      -0.520365       -14.1598 
  74   2.0000      -0.518356       -14.1052 
  75   2.0000      -0.513931       -13.9848 
  76   2.0000      -0.508439       -13.8353 
  77   2.0000      -0.501024       -13.6336 
  78   2.0000      -0.499924       -13.6036 
  79   2.0000      -0.490645       -13.3511 
  80   2.0000      -0.488168       -13.2837 
  81   2.0000      -0.486509       -13.2386 
  82   2.0000      -0.485474       -13.2104 
  83   2.0000      -0.478347       -13.0165 
  84   2.0000      -0.477858       -13.0032 
  85   2.0000      -0.467315       -12.7163 
  86   2.0000      -0.462625       -12.5887 
  87   2.0000      -0.461266       -12.5517 
  88   2.0000      -0.456202       -12.4139 
  89   2.0000      -0.451345       -12.2817 
  90   2.0000      -0.448950       -12.2165 
  91   2.0000      -0.443892       -12.0789 
  92   2.0000      -0.438107       -11.9215 
  93   2.0000      -0.434054       -11.8112 
  94   2.0000      -0.428468       -11.6592 
  95   2.0000      -0.426386       -11.6026 
  96   2.0000      -0.422988       -11.5101 
  97   2.0000      -0.421884       -11.4801 
  98   2.0000      -0.416749       -11.3403 
  99   2.0000      -0.416055       -11.3214 
 100   2.0000      -0.410362       -11.1665 
 101   2.0000      -0.409876       -11.1533 
 102   2.0000      -0.405631       -11.0378 
 103   2.0000      -0.402399       -10.9498 
 104   2.0000      -0.392443       -10.6789 
 105   2.0000      -0.380480       -10.3534 
 106   2.0000      -0.372659       -10.1406 
 107   2.0000      -0.355747        -9.6804 
 108   2.0000      -0.337113        -9.1733 
 109   2.0000      -0.292479        -7.9587 
 110   0.0000       0.046586         1.2677 
 111   0.0000       0.099426         2.7055 
 112   0.0000       0.109821         2.9884 
 113   0.0000       0.133933         3.6445 
 114   0.0000       0.141833         3.8595 
 115   0.0000       0.143377         3.9015 
 116   0.0000       0.149080         4.0567 
 117   0.0000       0.155656         4.2356 
 118   0.0000       0.158158         4.3037 
 119   0.0000       0.162746         4.4286 
 120   0.0000       0.167735         4.5643 
*Only the first 10 virtual orbitals were printed.

                    ********************************
                    * MULLIKEN POPULATION ANALYSIS *
                    ********************************

-----------------------
MULLIKEN ATOMIC CHARGES
-----------------------
   0 C :   -0.174667
   1 C :    0.142061
   2 C :    0.068321
   3 H :    0.017283
   4 H :    0.030758
   5 C :   -0.170265
   6 C :    0.095384
   7 C :    0.024145
   8 H :    0.013624
   9 H :    0.027399
  10 H :    0.019868
  11 H :    0.022587
  12 O :   -0.359166
  13 H :    0.018164
  14 C :   -0.008269
  15 C :   -0.046733
  16 H :    0.035411
  17 H :    0.029395
  18 C :   -0.062215
  19 H :   -0.002225
  20 C :   -0.113822
  21 H :    0.003328
  22 C :    0.114192
  23 C :   -0.001783
  24 H :    0.014203
  25 H :    0.016817
  26 C :    0.106772
  27 H :    0.013126
  28 H :    0.015764
  29 C :   -0.412879
  30 H :    0.009031
  31 H :   -0.002475
  32 C :   -0.042147
  33 H :    0.010651
  34 C :    0.121331
  35 H :    0.178923
  36 C :    0.069080
  37 H :    0.007331
  38 H :    0.015298
  39 C :   -0.035782
  40 H :    0.010096
  41 H :    0.001049
  42 H :   -0.008210
  43 C :   -0.043999
  44 C :    0.091771
  45 H :    0.019758
  46 H :    0.024745
  47 H :    0.018624
  48 H :    0.000645
  49 C :    0.049146
  50 C :   -0.035502
  51 C :   -0.046526
  52 H :    0.002671
  53 H :    0.005146
  54 C :   -0.075218
  55 C :    0.036461
  56 C :   -0.167910
  57 H :    0.002465
  58 H :    0.008644
  59 C :    0.035013
  60 C :    0.029513
  61 H :    0.015896
  62 H :    0.027136
  63 H :    0.019981
  64 H :    0.022612
  65 H :    0.010411
  66 H :    0.018055
  67 H :    0.023765
  68 H :    0.017995
  69 H :    0.013565
  70 H :    0.031036
  71 H :    0.013187
  72 H :    0.020158
Sum of atomic charges:    0.0000000

--------------------------------
MULLIKEN REDUCED ORBITAL CHARGES
--------------------------------
  0 C s       :     3.102592  s :     3.102592
      pz      :     1.015484  p :     3.029052
      px      :     1.004595
      py      :     1.008972
      dz2     :     0.005347  d :     0.043023
      dxz     :     0.006445
      dyz     :     0.005871
      dx2y2   :     0.013834
      dxy     :     0.011525

  1 C s       :     2.939558  s :     2.939558
      pz      :     0.990236  p :     2.883987
      px      :     0.929174
      py      :     0.964577
      dz2     :     0.008063  d :     0.034394
      dxz     :     0.006357
      dyz     :     0.003933
      dx2y2   :     0.009831
      dxy     :     0.006209

  2 C s       :     3.085282  s :     3.085282
      pz      :     0.735109  p :     2.775747
      px      :     1.047603
      py      :     0.993035
      dz2     :     0.023098  d :     0.070650
      dxz     :     0.011246
      dyz     :     0.017648
      dx2y2   :     0.011335
      dxy     :     0.007324

  3 H s       :     0.960063  s :     0.960063
      pz      :     0.005198  p :     0.022654
      px      :     0.003740
      py      :     0.013717

  4 H s       :     0.945930  s :     0.945930
      pz      :     0.014414  p :     0.023311
      px      :     0.004529
      py      :     0.004368

  5 C s       :     3.108805  s :     3.108805
      pz      :     0.974284  p :     3.016661
      px      :     0.986616
      py      :     1.055761
      dz2     :     0.009440  d :     0.044799
      dxz     :     0.005486
      dyz     :     0.008808
      dx2y2   :     0.011015
      dxy     :     0.010051

  6 C s       :     2.955334  s :     2.955334
      pz      :     1.003436  p :     2.913835
      px      :     0.945954
      py      :     0.964445
      dz2     :     0.008866  d :     0.035447
      dxz     :     0.005960
      dyz     :     0.004416
      dx2y2   :     0.008755
      dxy     :     0.007450

  7 C s       :     3.002427  s :     3.002427
      pz      :     0.984968  p :     2.938642
      px      :     0.981268
      py      :     0.972406
      dz2     :     0.007741  d :     0.034785
      dxz     :     0.005986
      dyz     :     0.004531
      dx2y2   :     0.008473
      dxy     :     0.008055

  8 H s       :     0.963543  s :     0.963543
      pz      :     0.005896  p :     0.022833
      px      :     0.003799
      py      :     0.013137

  9 H s       :     0.949203  s :     0.949203
      pz      :     0.014467  p :     0.023399
      px      :     0.004507
      py      :     0.004424

 10 H s       :     0.957307  s :     0.957307
      pz      :     0.014158  p :     0.022825
      px      :     0.004582
      py      :     0.004084

 11 H s       :     0.954783  s :     0.954783
      pz      :     0.007686  p :     0.022629
      px      :     0.007346
      py      :     0.007598

 12 O s       :     3.713553  s :     3.713553
      pz      :     1.396932  p :     4.633472
      px      :     1.348163
      py      :     1.888377
      dz2     :     0.005382  d :     0.012142
      dxz     :     0.001421
      dyz     :     0.001585
      dx2y2   :     0.003184
      dxy     :     0.000569

 13 H s       :     0.961489  s :     0.961489
      pz      :     0.001890  p :     0.020348
      px      :     0.014138
      py      :     0.004320

 14 C s       :     3.194207  s :     3.194207
      pz      :     0.992911  p :     2.777696
      px      :     0.871217
      py      :     0.913568
      dz2     :     0.004237  d :     0.036366
      dxz     :     0.007544
      dyz     :     0.003302
      dx2y2   :     0.010884
      dxy     :     0.010398

 15 C s       :     3.124387  s :     3.124387
      pz      :     1.009300  p :     2.896083
      px      :     0.981917
      py      :     0.904865
      dz2     :     0.005301  d :     0.026264
      dxz     :     0.004102
      dyz     :     0.004469
      dx2y2   :     0.006453
      dxy     :     0.005939

 16 H s       :     0.940050  s :     0.940050
      pz      :     0.006586  p :     0.024540
      px      :     0.008441
      py      :     0.009512

 17 H s       :     0.945991  s :     0.945991
      pz      :     0.004949  p :     0.024615
      px      :     0.004420
      py      :     0.015245

 18 C s       :     3.199694  s :     3.199694
      pz      :     1.030511  p :     2.827345
      px      :     0.881977
      py      :     0.914857
      dz2     :     0.003632  d :     0.035176
      dxz     :     0.006645
      dyz     :     0.003217
      dx2y2   :     0.011987
      dxy     :     0.009696

 19 H s       :     0.977912  s :     0.977912
      pz      :     0.004754  p :     0.024313
      px      :     0.004896
      py      :     0.014663

 20 C s       :     3.100290  s :     3.100290
      pz      :     0.958870  p :     2.969403
      px      :     0.985934
      py      :     1.024599
      dz2     :     0.004497  d :     0.044129
      dxz     :     0.006999
      dyz     :     0.006941
      dx2y2   :     0.014176
      dxy     :     0.011515

 21 H s       :     0.972078  s :     0.972078
      pz      :     0.004635  p :     0.024594
      px      :     0.004428
      py      :     0.015531

 22 C s       :     2.926345  s :     2.926345
      pz      :     1.002093  p :     2.923951
      px      :     0.976295
      py      :     0.945563
      dz2     :     0.009703  d :     0.035512
      dxz     :     0.004081
      dyz     :     0.005579
      dx2y2   :     0.009785
      dxy     :     0.006365

 23 C s       :     3.000719  s :     3.000719
      pz      :     1.011806  p :     2.964613
      px      :     0.964671
      py      :     0.988136
      dz2     :     0.010030  d :     0.036451
      dxz     :     0.007269
      dyz     :     0.003005
      dx2y2   :     0.010208
      dxy     :     0.005939

 24 H s       :     0.962602  s :     0.962602
      pz      :     0.004959  p :     0.023194
      px      :     0.013510
      py      :     0.004725

 25 H s       :     0.959919  s :     0.959919
      pz      :     0.013906  p :     0.023264
      px      :     0.004705
      py      :     0.004653

 26 C s       :     2.969300  s :     2.969300
      pz      :     0.969584  p :     2.888607
      px      :     0.975045
      py      :     0.943977
      dz2     :     0.007312  d :     0.035322
      dxz     :     0.006386
      dyz     :     0.005479
      dx2y2   :     0.008535
      dxy     :     0.007611

 27 H s       :     0.964021  s :     0.964021
      pz      :     0.013910  p :     0.022852
      px      :     0.004252
      py      :     0.004690

 28 H s       :     0.961594  s :     0.961594
      pz      :     0.004780  p :     0.022641
      px      :     0.003783
      py      :     0.014078

 29 C s       :     3.256092  s :     3.256092
      pz      :     1.049366  p :     3.105786
      px      :     1.000124
      py      :     1.056296
      dz2     :     0.011790  d :     0.051001
      dxz     :     0.010362
      dyz     :     0.009357
      dx2y2   :     0.010725
      dxy     :     0.008767

 30 H s       :     0.967926  s :     0.967926
      pz      :     0.008690  p :     0.023043
      px      :     0.007925
      py      :     0.006429

 31 H s       :     0.979937  s :     0.979937
      pz      :     0.013388  p :     0.022538
      px      :     0.004758
      py      :     0.004392

 32 C s       :     3.034783  s :     3.034783
      pz      :     0.989962  p :     2.963641
      px      :     0.944669
      py      :     1.029010
      dz2     :     0.008830  d :     0.043722
      dxz     :     0.007046
      dyz     :     0.007722
      dx2y2   :     0.011120
      dxy     :     0.009005

 33 H s       :     0.968083  s :     0.968083
      pz      :     0.012666  p :     0.021267
      px      :     0.004011
      py      :     0.004589

 34 C s       :     2.898375  s :     2.898375
      pz      :     0.988727  p :     2.945483
      px      :     0.977180
      py      :     0.979576
      dz2     :     0.005471  d :     0.034811
      dxz     :     0.005862
      dyz     :     0.008167
      dx2y2   :     0.008938
      dxy     :     0.006373

 35 H s       :     0.752290  s :     0.752290
[...]
 Total          139.571          174.205          192.129  iso=     168.635

 Orientation: 
  X           0.2418435   -0.4846505    0.8406102
  Y          -0.1325692   -0.8747069   -0.4661687
  Z           0.9612165    0.0013008   -0.2757920

 --------------
 Nucleus  39C :
 --------------

Diamagnetic contribution to the shielding tensor (ppm) : 
           264.346          2.976        -6.560
             2.468        262.607        10.599
            -6.620          8.956       260.153

Paramagnetic contribution to the shielding tensor (ppm): 
           -99.397          1.221         9.730
             5.786       -126.990        -5.180
            14.377         -6.032      -130.248

Total shielding tensor (ppm): 
           164.949          4.197         3.170
             8.254        135.618         5.420
             7.756          2.924       129.905


 Diagonalized sT*s matrix:
 
 sDSO           253.905          269.345          263.857  iso=     262.369
 sPSO          -126.319         -133.703          -96.612  iso=    -118.878
        ---------------  ---------------  ---------------
 Total          127.586          135.641          167.245  iso=     143.491

 Orientation: 
  X          -0.0578008   -0.2516471   -0.9660915
  Y          -0.4266883    0.8810958   -0.2039789
  Z           0.9025498    0.4004298   -0.1583029

 --------------
 Nucleus  43C :
 --------------

Diamagnetic contribution to the shielding tensor (ppm) : 
           258.857         -1.853        -5.649
            -6.435        248.990        12.614
            -7.620         14.649       244.787

Paramagnetic contribution to the shielding tensor (ppm): 
           -94.078         -1.241         4.390
             9.694        -97.533       -10.015
             8.256        -12.917       -92.103

Total shielding tensor (ppm): 
           164.780         -3.094        -1.259
             3.258        151.457         2.599
             0.636          1.732       152.685


 Diagonalized sT*s matrix:
 
 sDSO           234.301          259.046          259.288  iso=     250.878
 sPSO           -84.485         -104.727          -94.501  iso=     -94.571
        ---------------  ---------------  ---------------
 Total          149.816          154.319          164.786  iso=     156.307

 Orientation: 
  X          -0.0105290    0.0270041   -0.9995799
  Y           0.7959154    0.6053553    0.0079702
  Z          -0.6053163    0.7954971    0.0278668

 --------------
 Nucleus  44C :
 --------------

Diamagnetic contribution to the shielding tensor (ppm) : 
           250.524         -0.303         1.107
            -2.022        256.664         1.675
            -0.395          5.709       271.923

Paramagnetic contribution to the shielding tensor (ppm): 
           -71.021         -3.836        -2.166
            -0.361        -77.272        -4.748
            -0.500         -9.189       -79.103

Total shielding tensor (ppm): 
           179.503         -4.139        -1.059
            -2.383        179.392        -3.073
            -0.896         -3.480       192.820


 Diagonalized sT*s matrix:
 
 sDSO           254.358          255.205          269.548  iso=     259.704
 sPSO           -78.715          -72.714          -75.967  iso=     -75.799
        ---------------  ---------------  ---------------
 Total          175.643          182.491          193.580  iso=     183.905

 Orientation: 
  X           0.6627215    0.7486799   -0.0166882
  Y           0.7276504   -0.6490534   -0.2219336
  Z           0.1769888   -0.1349371    0.9749190

 --------------
 Nucleus  49C :
 --------------

Diamagnetic contribution to the shielding tensor (ppm) : 
           242.993         -7.321        -2.499
           -21.938        258.311         8.376
            -8.414          8.162       242.738

Paramagnetic contribution to the shielding tensor (ppm): 
           -69.059          2.405        -3.407
            20.442        -70.770        -0.711
             3.873         -3.189       -76.169

Total shielding tensor (ppm): 
           173.933         -4.915        -5.906
            -1.497        187.541         7.665
            -4.541          4.973       166.569


 Diagonalized sT*s matrix:
 
 sDSO           238.846          236.813          268.382  iso=     248.014
 sPSO           -75.762          -62.414          -77.822  iso=     -71.999
        ---------------  ---------------  ---------------
 Total          163.085          174.399          190.560  iso=     176.015

 Orientation: 
  X           0.3820594   -0.8851405    0.2656256
  Y          -0.1894527   -0.3563448   -0.9149459
  Z           0.9045100    0.2992402   -0.3038372

 --------------
 Nucleus  50C :
 --------------

Diamagnetic contribution to the shielding tensor (ppm) : 
           264.238         13.309         7.673
            11.840        262.264         0.182
            17.040        -11.107       255.723

Paramagnetic contribution to the shielding tensor (ppm): 
          -184.948        -28.484       -84.535
           -33.204       -160.883        31.783
           -90.690         45.757      -254.316

Total shielding tensor (ppm): 
            79.290        -15.175       -76.862
           -21.365        101.382        31.965
           -73.650         34.650         1.407


 Diagonalized sT*s matrix:
 
 sDSO           269.297          271.649          241.279  iso=     260.742
 sPSO          -315.011         -192.700          -92.436  iso=    -200.049
        ---------------  ---------------  ---------------
 Total          -45.714           78.950          148.843  iso=      60.693

 Orientation: 
  X          -0.5448235    0.5087366   -0.6665992
  Y           0.0527387    0.8141565    0.5782455
  Z          -0.8368907   -0.2798861    0.4704017

 --------------
 Nucleus  51C :
 --------------

Diamagnetic contribution to the shielding tensor (ppm) : 
           263.673         13.489         8.121
            14.703        267.393        -9.535
            -1.633         -1.284       271.334

Paramagnetic contribution to the shielding tensor (ppm): 
          -185.046        -29.310       -83.852
           -37.209       -165.411        38.541
           -69.423         34.350      -265.201

Total shielding tensor (ppm): 
            78.627        -15.821       -75.731
           -22.506        101.982        29.006
           -71.056         33.066         6.133


 Diagonalized sT*s matrix:
 
 sDSO           271.724          279.922          250.754  iso=     267.467
 sPSO          -311.691         -201.305         -102.663  iso=    -205.220
        ---------------  ---------------  ---------------
 Total          -39.967           78.618          148.091  iso=      62.247

 Orientation: 
  X          -0.5615126    0.4965735   -0.6619050
  Y           0.0296033    0.8114593    0.5836587
  Z          -0.8269385   -0.3081372    0.4703448

 --------------
 Nucleus  54C :
 --------------

Diamagnetic contribution to the shielding tensor (ppm) : 
           254.195          0.883        -3.234
             9.368        254.617         2.393
             3.483         -1.405       250.568

Paramagnetic contribution to the shielding tensor (ppm): 
           -88.443          1.338         4.243
            -4.952       -113.802        -4.058
            -4.104         -0.340       -98.611

Total shielding tensor (ppm): 
           165.751          2.220         1.009
             4.416        140.815        -1.666
            -0.621         -1.745       151.957


 Diagonalized sT*s matrix:
 
 sDSO           253.404          250.491          255.486  iso=     253.127
 sPSO          -113.271          -98.284          -89.301  iso=    -100.285
        ---------------  ---------------  ---------------
 Total          140.133          152.207          166.185  iso=     152.841

 Orientation: 
  X          -0.1250443    0.0176622   -0.9919939
  Y           0.9816964   -0.1425639   -0.1262845
  Z           0.1436530    0.9896280   -0.0004879

 --------------
 Nucleus  55C :
 --------------

Diamagnetic contribution to the shielding tensor (ppm) : 
           238.668         -3.863        -2.010
            23.543        261.101         2.577
             8.994          1.981       252.595

Paramagnetic contribution to the shielding tensor (ppm): 
           -65.526         -1.378        -3.154
           -26.138        -70.707         4.939
           -12.223          1.532       -85.591

Total shielding tensor (ppm): 
           173.141         -5.241        -5.164
            -2.595        190.395         7.517
            -3.230          3.513       167.004


 Diagonalized sT*s matrix:
 
 sDSO           251.502          245.205          255.657  iso=     250.788
 sPSO           -87.064          -71.898          -62.862  iso=     -73.941
        ---------------  ---------------  ---------------
 Total          164.438          173.307          192.794  iso=     176.847

 Orientation: 
  X           0.3810200   -0.8942681    0.2347515
  Y          -0.1437929   -0.3081309   -0.9404143
  Z           0.9133167    0.3245611   -0.2459934

 --------------
 Nucleus  56C :
 --------------

Diamagnetic contribution to the shielding tensor (ppm) : 
           253.721          3.357        -4.227
             0.949        234.160         0.077
             0.982          2.318       237.693

Paramagnetic contribution to the shielding tensor (ppm): 
           -81.425         -6.152        -1.466
            -3.379        -76.758        -2.277
            -7.606         -2.543       -72.354

Total shielding tensor (ppm): 
           172.296         -2.795        -5.693
            -2.430        157.401        -2.200
            -6.624         -0.226       165.339


 Diagonalized sT*s matrix:
 
 sDSO           237.295          237.398          250.881  iso=     241.858
 sPSO           -81.048          -74.647          -74.842  iso=     -76.846
        ---------------  ---------------  ---------------
 Total          156.247          162.751          176.039  iso=     165.012

 Orientation: 
  X          -0.2649969    0.4196974   -0.8681191
  Y          -0.9166569   -0.3890018    0.0917480
  Z          -0.2991935    0.8200803    0.4878028

 --------------
 Nucleus  59C :
 --------------

Diamagnetic contribution to the shielding tensor (ppm) : 
           249.912         -3.288        -2.636
           -28.338        239.905        -3.275
            -5.441         -0.821       232.187

Paramagnetic contribution to the shielding tensor (ppm): 
           -78.394         -4.496        -2.726
            25.531        -51.651        12.866
             2.249          5.252       -67.244

Total shielding tensor (ppm): 
           171.518         -7.784        -5.362
            -2.807        188.255         9.591
            -3.192          4.431       164.943


 Diagonalized sT*s matrix:
 
 sDSO           234.579          239.499          247.925  iso=     240.668
 sPSO           -72.489          -68.989          -55.811  iso=     -65.763
        ---------------  ---------------  ---------------
 Total          162.090          170.511          192.115  iso=     174.905

 Orientation: 
  X           0.3177295   -0.9040259    0.2859811
  Y          -0.1944268   -0.3573183   -0.9135217
  Z           0.9280335    0.2346504   -0.2892974

 --------------
 Nucleus  60C :
 --------------

Diamagnetic contribution to the shielding tensor (ppm) : 
           249.032          9.707         2.605
            19.674        220.125         3.431
            14.535         -3.492       222.540

Paramagnetic contribution to the shielding tensor (ppm): 
           -64.773          3.656         4.597
           -11.724        -46.840         1.419
            -7.208         11.593       -49.846

Total shielding tensor (ppm): 
           184.258         13.363         7.201
             7.950        173.286         4.850
             7.327          8.101       172.695


 Diagonalized sT*s matrix:
 
 sDSO           218.475          219.152          254.070  iso=     230.566
 sPSO           -52.643          -49.648          -59.168  iso=     -53.819
        ---------------  ---------------  ---------------
 Total          165.832          169.504          194.903  iso=     176.746

 Orientation: 
  X           0.2995386    0.5679787    0.7666008
  Y          -0.8260377   -0.2476855    0.5062743
  Z           0.4774289   -0.7848899    0.3949804



--------------------------------
CHEMICAL SHIELDING SUMMARY (ppm)
--------------------------------


  Nucleus  Element    Isotropic     Anisotropy
  -------  -------  ------------   ------------
      0       C           61.477        151.795 
      1       C          154.550         12.206 
      2       C          132.371         50.913 
      5       C           50.820        177.595 
      6       C          167.973         31.849 
      7       C          164.905         17.253 
     14       C           71.767        133.304 
     15       C           83.737        119.495 
     18       C           80.236        134.062 
     20       C           52.176        175.851 
     22       C          169.059          7.364 
     23       C          174.123         13.248 
     26       C          158.722         24.128 
     29       C          154.234         16.943 
     32       C          142.683         28.209 
     34       C          174.854         23.873 
     36       C          168.635         35.241 
     39       C          143.491         35.631 
     43       C          156.307         12.719 
     44       C          183.905         14.513 
     49       C          176.015         21.818 
     50       C           60.693        132.225 
     51       C           62.247        128.766 
     54       C          152.841         20.016 
     55       C          176.847         23.922 
     56       C          165.012         16.540 
     59       C          174.905         25.815 
     60       C          176.746         27.235 


NMR shielding tensor and spin rotation calculation done in   1.0 sec 

Maximum memory used throughout the entire PROP-calculation: 51.6 MB

--------------------------------
SUGGESTED CITATIONS FOR THIS RUN
--------------------------------

Below you find a list of papers that are relevant to this ORCA run
We neither can nor want to force you to cite these papers, but we appreciate if you do
You receive ORCA, which is the product of decades of hard work by many enthusiastic individuals, for free
The only thing we kindly ask in return is that you cite our papers,
We deeply appreciate it, if you show your appreciation for ORCA by not just citing the generic ORCA reference.

Please note that relegating all ORCA citations to the supporting information does *not* help us.
SI sections are not indexed - citations you put there will not count into any citation statistics
But we need these citations in order to attract the funding resources that allow us to do what we are doing

Therefore, if you are a happy ORCA user, please consider citing a few of the papers listed below in the main body of your paper

In addition to the list printed below, the program has created the file inpS.bibtex that contains the list in bibtex format
You can import this file easily into all common literature databanks and citation aid programs


List of essential papers. We consider these as the minimum necessary citations

  1. Neese,F.
     Software update: the ORCA program system, version 5.0
     WIRES Comput. Molec. Sci., 2022 12(1)e1606
     doi.org/10.1002/wcms.1606

List of papers to cite with high priority. The work reported in these papers was absolutely
necessary for this run to complete.
Our perspective: the developers of density functionals and basis sets usually get cited in chemistry papers
Good! But without the algorithms to do something with them, the functionals or basis sets would not do anything.
Hence, in our opinion, the algorithm design and method developments papers are equally worthy of getting cited

  1. Neese,F.
     An improvement of the resolution of the identity approximation for the formation of the Coulomb matrix
     J. Comp. Chem., 2003 24(14)1740-1747
     doi.org/10.1002/jcc.10318
  2. Neese,F.; Wennmohs,F.; Hansen,A.; Becker,U.
     Efficient, approximate and parallel Hartree-Fock and hybrid DFT calculations. A 'chain-of-spheres' algorithm for the Hartree-Fock exchange
     Chem. Phys., 2009 356(1-3)98-109
     doi.org/10.1016/j.chemphys.2008.10.036
  3. Stoychev,G.L.; Auer,A.A.; Izsak,R.; Neese,F.
     Self-Consistent Field Calculation of Nuclear Magnetic Resonance Chemical Shielding Constants Using Gauge-Including Atomic Orbitals and Approximate Two-Electron Integrals
     J. Chem. Theory Comput., 2018 14(2)619-637
     doi.org/10.1021/acs.jctc.7b01006
  4. Garcia-Rates,M.; Neese,F.
     Effect of the Solute Cavity on the Solvation Energy and its Derivatives within the Framework of the Gaussian Charge Scheme
     J. Comput. Chem., 2020 41 922-939
     doi.org/10.1002/jcc.26139
  5. Helmich-Paris,B.; de Souza,B.; Neese,F.; Izsák,R.
     An improved chain of spheres for exchange algorithm
     J. Chem. Phys., 2021 155 104109
     doi.org/doi: 10.1063/5.0058766.
  6. Neese,F.
     The SHARK Integral Generation and Digestion System
     J. Comp. Chem., 2022  1-16
     doi.org/10.1002/jcc.26942
  7. Caldeweyher,E.; Bannwarth,C.; Grimme,S.
     Extension of the D3 dispersion coefficient model
     J. Chem. Phys., 2017 147 034112-XXXX
     doi.org/10.1063/1.4993215
  8. Caldeweyher,E.; Ehlert,S.; Hansen,A.; Neugebauer,H.; Spicher,S.; Bannwarth,C.; Grimme,S.
     A generally applicable atomic-charge dependent London dispersion correction
     J. Chem. Phys., 2019 150 154122-XXXX
     doi.org/10.1063/1.5090222
  9. Caldeweyher,E.; Mewes,J.; Ehlert,S.; Grimme,S.
     Extension and evaluation of the D4 London-dispersion model for periodic systems
     Phys. Chem. Chem. Phys., 2020 22(16)8499-8512
     doi.org/10.1039/D0CP00502A

List of suggested additional citations. These are papers that are important in the 'surrounding' of 
of this run, or papers that preceded the highly important papers. If you like your results we are grateful for a citation.

  1. Izsak,R.; Neese,F.
     An overlap fitted chain of spheres exchange method
     J. Chem. Phys., 2011 135 144105
     doi.org/10.1063/1.3646921
  2. Izsak,R.; Hansen,A.; Neese,F.
     The resolution of identity and chain of spheres approximations for the LPNO-CCSD singles Fock term
     Molec. Phys., 2012 110 2413-2417
     doi.org/10.1080/00268976.2012.687466
  3. Neese,F.
     The ORCA program system
     WIRES Comput. Molec. Sci., 2012 2(1)73-78
     doi.org/10.1002/wcms.81
  4. Izsak,R.; Neese,F.; Klopper,W.
     Robust fitting techniques in the chain of spheres approximation to the Fock exchange: The role of the complementary space
     J. Chem. Phys., 2013 139 
     doi.org/10.1063/1.4819264
  5. Neese,F.
     Software update: the ORCA program system, version 4.0
     WIRES Comput. Molec. Sci., 2018 8(1)1-6
     doi.org/10.1002/wcms.1327
  6. Neese,F.; Wennmohs,F.; Becker,U.; Riplinger,C.
     The ORCA quantum chemistry program package
     J. Chem. Phys., 2020 152 Art. No. L224108
     doi.org/10.1063/5.0004608

Timings for individual modules:

Sum of individual times          ...      177.574 sec (=   2.960 min)
Startup calculation              ...        4.619 sec (=   0.077 min)   2.6 %
SCF iterations                   ...       71.380 sec (=   1.190 min)  40.2 %
Property integrals               ...       60.321 sec (=   1.005 min)  34.0 %
SCF Response                     ...       39.906 sec (=   0.665 min)  22.5 %
Property calculations            ...        1.349 sec (=   0.022 min)   0.8 %
                             ****ORCA TERMINATED NORMALLY****
TOTAL RUN TIME: 0 days 0 hours 2 minutes 57 seconds 875 msec
