
                                 *****************
                                 * O   R   C   A *
                                 *****************

                                            #,                                       
                                            ###                                      
                                            ####                                     
                                            #####                                    
                                            ######                                   
                                           ########,                                 
                                     ,,################,,,,,                         
                               ,,#################################,,                 
                          ,,##########################################,,             
                       ,#########################################, ''#####,          
                    ,#############################################,,   '####,        
                  ,##################################################,,,,####,       
                ,###########''''           ''''###############################       
              ,#####''   ,,,,##########,,,,          '''####'''          '####       
            ,##' ,,,,###########################,,,                        '##       
           ' ,,###''''                  '''############,,,                           
         ,,##''                                '''############,,,,        ,,,,,,###''
      ,#''                                            '''#######################'''  
     '                                                          ''''####''''         
             ,#######,   #######,   ,#######,      ##                                
            ,#'     '#,  ##    ##  ,#'     '#,    #''#        ######   ,####,        
            ##       ##  ##   ,#'  ##            #'  '#       #        #'  '#        
            ##       ##  #######   ##           ,######,      #####,   #    #        
            '#,     ,#'  ##    ##  '#,     ,#' ,#      #,         ##   #,  ,#        
             '#######'   ##     ##  '#######'  #'      '#     #####' # '####'        



                  #######################################################
                  #                        -***-                        #
                  #          Department of theory and spectroscopy      #
                  #    Directorship and core code : Frank Neese         #
                  #        Max Planck Institute fuer Kohlenforschung    #
                  #                Kaiser Wilhelm Platz 1               #
                  #                 D-45470 Muelheim/Ruhr               #
                  #                      Germany                        #
                  #                                                     #
                  #                  All rights reserved                #
                  #                        -***-                        #
                  #######################################################


                         Program Version 5.0.2 -  RELEASE  -


 With contributions from (in alphabetic order):
   Daniel Aravena         : Magnetic Suceptibility
   Michael Atanasov       : Ab Initio Ligand Field Theory (pilot matlab implementation)
   Alexander A. Auer      : GIAO ZORA, VPT2 properties, NMR spectrum
   Ute Becker             : Parallelization
   Giovanni Bistoni       : ED, misc. LED, open-shell LED, HFLD
   Martin Brehm           : Molecular dynamics
   Dmytro Bykov           : SCF Hessian
   Vijay G. Chilkuri      : MRCI spin determinant printing, contributions to CSF-ICE
   Dipayan Datta          : RHF DLPNO-CCSD density
   Achintya Kumar Dutta   : EOM-CC, STEOM-CC
   Dmitry Ganyushin       : Spin-Orbit,Spin-Spin,Magnetic field MRCI
   Miquel Garcia          : C-PCM and meta-GGA Hessian, CC/C-PCM, Gaussian charge scheme
   Yang Guo               : DLPNO-NEVPT2, F12-NEVPT2, CIM, IAO-localization
   Andreas Hansen         : Spin unrestricted coupled pair/coupled cluster methods
   Benjamin Helmich-Paris : MC-RPA, TRAH-SCF, COSX integrals
   Lee Huntington         : MR-EOM, pCC
   Robert Izsak           : Overlap fitted RIJCOSX, COSX-SCS-MP3, EOM
   Marcus Kettner         : VPT2
   Christian Kollmar      : KDIIS, OOCD, Brueckner-CCSD(T), CCSD density, CASPT2, CASPT2-K
   Simone Kossmann        : Meta GGA functionals, TD-DFT gradient, OOMP2, MP2 Hessian
   Martin Krupicka        : Initial AUTO-CI
   Lucas Lang             : DCDCAS
   Marvin Lechner         : AUTO-CI (C++ implementation), FIC-MRCC
   Dagmar Lenk            : GEPOL surface, SMD
   Dimitrios Liakos       : Extrapolation schemes; Compound Job, initial MDCI parallelization
   Dimitrios Manganas     : Further ROCIS development; embedding schemes
   Dimitrios Pantazis     : SARC Basis sets
   Anastasios Papadopoulos: AUTO-CI, single reference methods and gradients
   Taras Petrenko         : DFT Hessian,TD-DFT gradient, ASA, ECA, R-Raman, ABS, FL, XAS/XES, NRVS
   Peter Pinski           : DLPNO-MP2, DLPNO-MP2 Gradient
   Christoph Reimann      : Effective Core Potentials
   Marius Retegan         : Local ZFS, SOC
   Christoph Riplinger    : Optimizer, TS searches, QM/MM, DLPNO-CCSD(T), (RO)-DLPNO pert. Triples
   Tobias Risthaus        : Range-separated hybrids, TD-DFT gradient, RPA, STAB
   Michael Roemelt        : Original ROCIS implementation
   Masaaki Saitow         : Open-shell DLPNO-CCSD energy and density
   Barbara Sandhoefer     : DKH picture change effects
   Avijit Sen             : IP-ROCIS
   Kantharuban Sivalingam : CASSCF convergence, NEVPT2, FIC-MRCI
   Bernardo de Souza      : ESD, SOC TD-DFT
   Georgi Stoychev        : AutoAux, RI-MP2 NMR, DLPNO-MP2 response
   Willem Van den Heuvel  : Paramagnetic NMR
   Boris Wezisla          : Elementary symmetry handling
   Frank Wennmohs         : Technical directorship


 We gratefully acknowledge several colleagues who have allowed us to
 interface, adapt or use parts of their codes:
   Stefan Grimme, W. Hujo, H. Kruse, P. Pracht,  : VdW corrections, initial TS optimization,
                  C. Bannwarth, S. Ehlert          DFT functionals, gCP, sTDA/sTD-DF
   Ed Valeev, F. Pavosevic, A. Kumar             : LibInt (2-el integral package), F12 methods
   Garnet Chan, S. Sharma, J. Yang, R. Olivares  : DMRG
   Ulf Ekstrom                                   : XCFun DFT Library
   Mihaly Kallay                                 : mrcc  (arbitrary order and MRCC methods)
   Jiri Pittner, Ondrej Demel                    : Mk-CCSD
   Frank Weinhold                                : gennbo (NPA and NBO analysis)
   Christopher J. Cramer and Donald G. Truhlar   : smd solvation model
   Lars Goerigk                                  : TD-DFT with DH, B97 family of functionals
   V. Asgeirsson, H. Jonsson                     : NEB implementation
   FAccTs GmbH                                   : IRC, NEB, NEB-TS, DLPNO-Multilevel, CI-OPT
                                                   MM, QMMM, 2- and 3-layer-ONIOM, Crystal-QMMM,
                                                   LR-CPCM, SF, NACMEs, symmetry and pop. for TD-DFT,
                                                   nearIR, NL-DFT gradient (VV10), updates on ESD,
                                                   ML-optimized integration grids
   S Lehtola, MJT Oliveira, MAL Marques          : LibXC Library
   Liviu Ungur et al                             : ANISO software


 Your calculation uses the libint2 library for the computation of 2-el integrals
 For citations please refer to: http://libint.valeyev.net

 Your ORCA version has been built with support for libXC version: 5.1.0
 For citations please refer to: https://tddft.org/programs/libxc/

 This ORCA versions uses:
   CBLAS   interface :  Fast vector & matrix operations
   LAPACKE interface :  Fast linear algebra routines
   SCALAPACK package :  Parallel linear algebra routines
   Shared memory     :  Shared parallel matrices
   BLAS/LAPACK       :  OpenBLAS 0.3.15  USE64BITINT DYNAMIC_ARCH NO_AFFINITY Zen SINGLE_THREADED
        Core in use  :  Zen
   Copyright (c) 2011-2014, The OpenBLAS Project


Your calculation utilizes the atom-pairwise dispersion correction
based on tight binding partial charges (D4)
Cite in your paper:
E.Caldeweyher, C.Bannwarth, S.Grimme, J.Chem.Phys., (2017), 147, 034112.
E.Caldeweyher, S.Ehlert, A.Hansen, H.Neugebauer, S.Grimme, J.Chem.Phys., (2018), in progress.
   

================================================================================

----- Orbital basis set information -----
Your calculation utilizes the basis: pcJ-0
   F. Jensen, Theor. Chem. Acc. 126, 371 (2010).

----- AuxJ basis set information -----
Your calculation utilizes the auxiliary basis: def2/J
   F. Weigend, Phys. Chem. Chem. Phys. 8, 1057 (2006).

================================================================================
                                        WARNINGS
                       Please study these warnings very carefully!
================================================================================


INFO   : the flag for use of the SHARK integral package has been found!

================================================================================
                                       INPUT FILE
================================================================================
NAME = inpJ
|  1> ! pbe0
|  2> ! D4
|  3> ! pcJ-0
|  4> ! def2/J RIJCOSX
|  5> ! DEFGRID2
|  6> ! scfconv7
|  7> ! smallprint printgap noloewdin
|  8> ! NOSOSCF
|  9> %MaxCore 4000
| 10> %output
| 11>        print[P_BondOrder_M] 1
| 12>        print[P_Mayer] 1
| 13>        print[P_basis] 2
| 14> end
| 15> %pal
| 16>     nprocs 4
| 17> end
| 18> ! CPCM(chloroform)
| 19> *xyz 0 1
| 20> C   -5.1081181600   0.2110846100  -0.6241322000
| 21> C   -6.5499186900  -0.2014836700  -0.8029376400
| 22> C   -7.4783272600   0.7536818000  -0.0416588000
| 23> H   -6.7051531300  -1.2298639300  -0.4573882600
| 24> H   -6.8216288600  -0.1568978600  -1.8680334800
| 25> C   -4.8391060300   1.6204286000  -0.9866842100
| 26> C   -5.7859175400   2.6181592700  -0.3569923800
| 27> C   -7.2532051600   2.1925983800  -0.5090548400
| 28> H   -5.6273862400   3.6134379600  -0.7857312000
| 29> H   -5.5489916000   2.6896902400   0.7155223300
| 30> H   -7.5486957000   2.2627028200  -1.5647873500
| 31> H   -7.9019193600   2.8681673400   0.0605273100
| 32> O   -7.2901436900   0.6198266600   1.3769593200
| 33> H   -8.5227013500   0.4697788700  -0.2209136900
| 34> C   -4.1919473900  -0.6420943900  -0.1075332800
| 35> C   -3.8688681200   1.9863615900  -1.8312713000
| 36> H   -3.2098726200   1.2522937300  -2.2872489100
| 37> H   -3.7195529500   3.0314371900  -2.0923902700
| 38> C   -2.8169373700  -0.3270592000   0.2038915500
| 39> H   -4.5436398800  -1.6479471200   0.1191962200
| 40> C   -1.8714804300  -1.1903548700   0.6321352200
| 41> H   -2.5324641600   0.7162510100   0.0865438000
| 42> C   -2.0583154200  -2.6723374800   0.8354186200
| 43> C   -1.0101429900  -3.4908973200   0.0564178100
| 44> H   -3.0631137000  -3.0058950000   0.5620729800
| 45> H   -1.9293968000  -2.8848164600   1.9087561200
| 46> C    0.4253504300  -3.0122179500   0.3129950300
| 47> H   -1.2350338700  -3.4322741600  -1.0160727100
| 48> H   -1.1003687900  -4.5478362000   0.3356577800
| 49> C    0.5824581300  -1.5079106000   0.0497896500
| 50> H    1.1121812800  -3.5996469500  -0.3053520600
| 51> H    0.6913721900  -3.2089823200   1.3625320400
| 52> C   -0.4677314100  -0.7667833400   0.9373838300
| 53> H   -0.2534084800  -1.1103299500   1.9663521700
| 54> C   -0.0504324900   0.6970562000   0.8539800300
| 55> H   -6.3382271300   0.5594736800   1.5411819600
| 56> C    1.4956137100   0.6273348100   0.8503971200
| 57> H   -0.4461462200   1.2891953700   1.6859124200
| 58> H   -0.4193791800   1.1532249300  -0.0715078000
| 59> C    1.8915209000  -0.8600413500   0.5869941600
| 60> H    1.9085184800   0.9765899800   1.8007084100
| 61> H    1.9208634900   1.2733758900   0.0731321600
| 62> H    2.0942205800  -1.3504038800   1.5521260400
| 63> C    3.1563089000  -0.9689586200  -0.2757760200
| 64> C    0.3662324700  -1.1810610500  -1.4342741000
| 65> H    0.5945256200  -0.1336119300  -1.6555166600
| 66> H   -0.6714025300  -1.3584768400  -1.7339023600
| 67> H    1.0091036000  -1.8015045100  -2.0676222300
| 68> H    2.9539738300  -0.4384127600  -1.2196936300
| 69> C    3.5538466700  -2.4120257300  -0.6361770300
| 70> C    4.3703195100  -0.3053268300   0.3408205300
| 71> C    4.5762141200  -0.0541204300   1.6331973300
| 72> H    5.1605815800  -0.0843340100  -0.3781307700
| 73> H    3.7831440100  -0.2900198800   2.3451316400
| 74> C    5.8040105900   0.5383568100   2.2834705200
| 75> C    5.3640069800   1.6370685000   3.2669188200
| 76> C    6.9039773600   1.0026431800   1.3061346000
| 77> H    6.2473904900  -0.2690616600   2.8917938000
| 78> H    7.0273913300   0.2032962200   0.5612014300
| 79> C    8.2531365600   1.1578388800   2.0152946800
| 80> C    6.5444361800   2.2949983500   0.5652448300
| 81> H    4.8295839900   2.4392520400   2.7468557600
| 82> H    6.2181698100   2.0768229300   3.7915106900
| 83> H    4.6867428800   1.2218330600   4.0210914100
| 84> H    8.5485363800   0.2289723200   2.5163718000
| 85> H    8.2202097800   1.9541164800   2.7677700800
| 86> H    9.0376768800   1.4188747900   1.2961530700
| 87> H    5.5424561200   2.2514506000   0.1266050200
| 88> H    7.2617642200   2.4842439500  -0.2410211700
| 89> H    6.5777391100   3.1550560600   1.2440122300
| 90> H    2.8316801400  -2.8829110900  -1.3081014700
| 91> H    3.6363772300  -3.0226496700   0.2707503200
| 92> H    4.5291335700  -2.4233861100  -1.1358782600
| 93> *
| 94> %eprnmr
| 95>  Nuclei = all H { ssfc }
| 96>  SpinSpinRThresh 8.0
| 97> end
| 98> 
| 99>                          ****END OF INPUT****
================================================================================

                       ****************************
                       * Single Point Calculation *
                       ****************************

---------------------------------
CARTESIAN COORDINATES (ANGSTROEM)
---------------------------------
  C     -5.108118    0.211085   -0.624132
  C     -6.549919   -0.201484   -0.802938
  C     -7.478327    0.753682   -0.041659
  H     -6.705153   -1.229864   -0.457388
  H     -6.821629   -0.156898   -1.868033
  C     -4.839106    1.620429   -0.986684
  C     -5.785918    2.618159   -0.356992
  C     -7.253205    2.192598   -0.509055
  H     -5.627386    3.613438   -0.785731
  H     -5.548992    2.689690    0.715522
  H     -7.548696    2.262703   -1.564787
  H     -7.901919    2.868167    0.060527
  O     -7.290144    0.619827    1.376959
  H     -8.522701    0.469779   -0.220914
  C     -4.191947   -0.642094   -0.107533
  C     -3.868868    1.986362   -1.831271
  H     -3.209873    1.252294   -2.287249
  H     -3.719553    3.031437   -2.092390
  C     -2.816937   -0.327059    0.203892
  H     -4.543640   -1.647947    0.119196
  C     -1.871480   -1.190355    0.632135
  H     -2.532464    0.716251    0.086544
  C     -2.058315   -2.672337    0.835419
  C     -1.010143   -3.490897    0.056418
  H     -3.063114   -3.005895    0.562073
  H     -1.929397   -2.884816    1.908756
  C      0.425350   -3.012218    0.312995
  H     -1.235034   -3.432274   -1.016073
  H     -1.100369   -4.547836    0.335658
  C      0.582458   -1.507911    0.049790
  H      1.112181   -3.599647   -0.305352
  H      0.691372   -3.208982    1.362532
  C     -0.467731   -0.766783    0.937384
  H     -0.253408   -1.110330    1.966352
  C     -0.050432    0.697056    0.853980
  H     -6.338227    0.559474    1.541182
  C      1.495614    0.627335    0.850397
  H     -0.446146    1.289195    1.685912
  H     -0.419379    1.153225   -0.071508
  C      1.891521   -0.860041    0.586994
  H      1.908518    0.976590    1.800708
  H      1.920863    1.273376    0.073132
  H      2.094221   -1.350404    1.552126
  C      3.156309   -0.968959   -0.275776
  C      0.366232   -1.181061   -1.434274
  H      0.594526   -0.133612   -1.655517
  H     -0.671403   -1.358477   -1.733902
  H      1.009104   -1.801505   -2.067622
  H      2.953974   -0.438413   -1.219694
  C      3.553847   -2.412026   -0.636177
  C      4.370320   -0.305327    0.340821
  C      4.576214   -0.054120    1.633197
  H      5.160582   -0.084334   -0.378131
  H      3.783144   -0.290020    2.345132
  C      5.804011    0.538357    2.283471
  C      5.364007    1.637069    3.266919
  C      6.903977    1.002643    1.306135
  H      6.247390   -0.269062    2.891794
  H      7.027391    0.203296    0.561201
  C      8.253137    1.157839    2.015295
  C      6.544436    2.294998    0.565245
  H      4.829584    2.439252    2.746856
  H      6.218170    2.076823    3.791511
  H      4.686743    1.221833    4.021091
  H      8.548536    0.228972    2.516372
  H      8.220210    1.954116    2.767770
  H      9.037677    1.418875    1.296153
  H      5.542456    2.251451    0.126605
  H      7.261764    2.484244   -0.241021
  H      6.577739    3.155056    1.244012
  H      2.831680   -2.882911   -1.308101
  H      3.636377   -3.022650    0.270750
  H      4.529134   -2.423386   -1.135878

----------------------------
CARTESIAN COORDINATES (A.U.)
----------------------------
  NO LB      ZA    FRAG     MASS         X           Y           Z
   0 C     6.0000    0    12.011   -9.652944    0.398892   -1.179439
   1 C     6.0000    0    12.011  -12.377553   -0.380749   -1.517332
   2 C     6.0000    0    12.011  -14.131990    1.424252   -0.078724
   3 H     1.0000    0     1.008  -12.670903   -2.324106   -0.864339
   4 H     1.0000    0     1.008  -12.891010   -0.296494   -3.530072
   5 C     6.0000    0    12.011   -9.144585    3.062166   -1.864563
   6 C     6.0000    0    12.011  -10.933800    4.947604   -0.674618
   7 C     6.0000    0    12.011  -13.706571    4.143410   -0.961974
   8 H     1.0000    0     1.008  -10.634219    6.828408   -1.484817
   9 H     1.0000    0     1.008  -10.486074    5.082778    1.352141
  10 H     1.0000    0     1.008  -14.264968    4.275889   -2.957020
  11 H     1.0000    0     1.008  -14.932464    5.420051    0.114380
  12 O     8.0000    0    15.999  -13.776375    1.171303    2.602076
  13 H     1.0000    0     1.008  -16.105571    0.887753   -0.417466
  14 C     6.0000    0    12.011   -7.921633   -1.213383   -0.203208
  15 C     6.0000    0    12.011   -7.311101    3.753679   -3.460601
  16 H     1.0000    0     1.008   -6.065780    2.366492   -4.322274
  17 H     1.0000    0     1.008   -7.028936    5.728586   -3.954045
  18 C     6.0000    0    12.011   -5.323240   -0.618052    0.385299
  19 H     1.0000    0     1.008   -8.586235   -3.114169    0.225248
  20 C     6.0000    0    12.011   -3.536585   -2.249445    1.194562
  21 H     1.0000    0     1.008   -4.785664    1.353518    0.163544
  22 C     6.0000    0    12.011   -3.889652   -5.049986    1.578712
  23 C     6.0000    0    12.011   -1.908894   -6.596840    0.106614
  24 H     1.0000    0     1.008   -5.788446   -5.680318    1.062164
  25 H     1.0000    0     1.008   -3.646032   -5.451513    3.607026
  26 C     6.0000    0    12.011    0.803796   -5.692267    0.591475
  27 H     1.0000    0     1.008   -2.333876   -6.486058   -1.920099
  28 H     1.0000    0     1.008   -2.079396   -8.594165    0.634301
  29 C     6.0000    0    12.011    1.100686   -2.849538    0.094089
  30 H     1.0000    0     1.008    2.101718   -6.802347   -0.577032
  31 H     1.0000    0     1.008    1.306504   -6.064098    2.574812
  32 C     6.0000    0    12.011   -0.883884   -1.449011    1.771399
  33 H     1.0000    0     1.008   -0.478873   -2.098220    3.715867
  34 C     6.0000    0    12.011   -0.095304    1.317245    1.613788
  35 H     1.0000    0     1.008  -11.977513    1.057252    2.912412
  36 C     6.0000    0    12.011    2.826300    1.185491    1.607018
  37 H     1.0000    0     1.008   -0.843094    2.436226    3.185913
  38 H     1.0000    0     1.008   -0.792512    2.179279   -0.135130
  39 C     6.0000    0    12.011    3.574456   -1.625243    1.109258
  40 H     1.0000    0     1.008    3.606577    1.845488    3.402846
  41 H     1.0000    0     1.008    3.629906    2.406332    0.138200
  42 H     1.0000    0     1.008    3.957503   -2.551894    2.933093
  43 C     6.0000    0    12.011    5.964559   -1.831066   -0.521141
  44 C     6.0000    0    12.011    0.692079   -2.231882   -2.710385
  45 H     1.0000    0     1.008    1.123491   -0.252490   -3.128473
  46 H     1.0000    0     1.008   -1.268767   -2.567149   -3.276601
  47 H     1.0000    0     1.008    1.906929   -3.404350   -3.907240
  48 H     1.0000    0     1.008    5.582202   -0.828480   -2.304887
  49 C     6.0000    0    12.011    6.715797   -4.558068   -1.202200
  50 C     6.0000    0    12.011    8.258707   -0.576984    0.644057
  51 C     6.0000    0    12.011    8.647791   -0.102273    3.086296
  52 H     1.0000    0     1.008    9.752086   -0.159368   -0.714564
  53 H     1.0000    0     1.008    7.149106   -0.548058    4.431657
  54 C     6.0000    0    12.011   10.967990    1.017347    4.315134
  55 C     6.0000    0    12.011   10.136504    3.093611    6.173582
  56 C     6.0000    0    12.011   13.046626    1.894721    2.468237
  57 H     1.0000    0     1.008   11.805857   -0.508453    5.464698
  58 H     1.0000    0     1.008   13.279845    0.384174    1.060517
  59 C     6.0000    0    12.011   15.596168    2.187998    3.808355
  60 C     6.0000    0    12.011   12.367192    4.336918    1.068158
  61 H     1.0000    0     1.008    9.126591    4.609518    5.190805
  62 H     1.0000    0     1.008   11.750638    3.924627    7.164917
  63 H     1.0000    0     1.008    8.856661    2.308930    7.598762
  64 H     1.0000    0     1.008   16.154393    0.432695    4.755254
  65 H     1.0000    0     1.008   15.533945    3.692745    5.230327
  66 H     1.0000    0     1.008   17.078734    2.681285    2.449374
  67 H     1.0000    0     1.008   10.473724    4.254625    0.239249
  68 H     1.0000    0     1.008   13.722746    4.694541   -0.455464
  69 H     1.0000    0     1.008   12.430125    5.962192    2.350842
  70 H     1.0000    0     1.008    5.351100   -5.447912   -2.471954
  71 H     1.0000    0     1.008    6.871757   -5.711980    0.511644
  72 H     1.0000    0     1.008    8.558822   -4.579536   -2.146499

--------------------------------
INTERNAL COORDINATES (ANGSTROEM)
--------------------------------
 C      0   0   0     0.000000000000     0.00000000     0.00000000
 C      1   0   0     1.510288958890     0.00000000     0.00000000
 C      2   1   0     1.534219352036   110.41864869     0.00000000
 H      2   1   3     1.095932509116   110.74609389   237.90809756
 H      2   1   3     1.100110657761   109.83644088   118.75599676
 C      1   2   3     1.479885795658   113.87118957   305.89981573
 C      6   1   2     1.512755871281   114.35297972    50.05159582
 C      3   2   1     1.529581623293   110.18083834    56.79930001
 H      7   6   1     1.095230030461   110.23139863   188.67395574
 H      7   6   1     1.100699043281   108.28451841    72.01671530
 H      8   3   2     1.098544684757   108.30690794    64.56462073
 H      8   3   2     1.096196770017   109.50455253   181.52400453
 O      3   2   1     1.437291767497   110.64290748   292.76798959
 H      3   2   1     1.097018882752   109.50538525   177.28339199
 C      1   2   3     1.354310795198   121.25696144   122.56952905
 C      6   1   2     1.337383979180   123.17281906   232.01100789
 H     16   6   1     1.086759528565   121.33686153   358.99644562
 H     16   6   1     1.087502251125   120.94307591   178.39587973
 C     15   1   2     1.444605534663   126.06789777   185.08652949
 H     15   1   2     1.089418922243   116.27305065     3.06083989
 C     19  15   1     1.350022548008   126.54960294   184.88328945
 H     19  15   1     1.087746154178   115.77495008     5.55691959
 C     21  19  15     1.507482640214   125.77679520     1.76464888
 C     23  21  19     1.541281258127   111.69491421   125.65768568
 H     23  21  19     1.093434059076   112.33837264     1.93979686
 H     23  21  19     1.101735320497   107.84646506   244.28001535
 C     24  23  21     1.534798738581   112.70158833    50.72350443
 H     24  23  21     1.097382566968   109.03948990   288.55510915
 H     24  23  21     1.096920895911   109.09469096   172.65948740
 C     27  24  23     1.535220018344   111.87960134   306.39646853
 H     27  24  23     1.095062815670   108.96086767   182.79208454
 H     27  24  23     1.100459780935   109.25468604    66.30852279
 C     21  19  15     1.497698523096   122.69700980   180.32435049
 H     33  21  19     1.105773230047   106.46637925   126.18568734
 C     33  21  19     1.524441137386   121.13048660     3.54745692
 H     13   3   2     0.967861919328   107.58081924    42.63632289
 C     35  33  21     1.547621646916   103.31633607   195.14997412
 H     35  33  21     1.095139102712   112.25500810    73.37025127
 H     35  33  21     1.095782502949   110.71913466   313.67438120
 C     30  27  24     1.556267517640   115.77345678   166.40361321
 H     37  35  33     1.093417153131   111.15187904   252.06777804
 H     37  35  33     1.096515969095   111.25519485   133.75469355
 H     40  30  27     1.101372832828   105.78027829   322.32747141
 C     40  30  27     1.534901964343   118.00552827    83.28228936
 C     30  27  24     1.534936278300   111.10013512   294.65354644
 H     45  30  27     1.094630390443   111.70328386   186.92315889
 H     45  30  27     1.094504385536   111.32864328    66.97934727
 H     45  30  27     1.095154432315   110.84376087   306.94087711
 H     44  40  30     1.101543845965   107.22538383    62.54201116
 C     44  40  30     1.539599899503   114.25891176   303.70953491
 C     44  40  30     1.514734372543   113.61089146   180.00574517
 C     51  44  40     1.332567086118   126.95690520    23.39361692
 H     51  44  40     1.090982556022   113.64333663   199.27844445
 H     52  51  44     1.091539835114   118.65644654   356.38773118
 C     52  51  44     1.510420032076   128.10355969   176.47219473
 C     55  52  51     1.538811591238   108.83151762   133.32873932
 C     55  52  51     1.542943365453   115.14033581     5.03632709
 H     55  52  51     1.103887464559   106.07151228   247.62845619
 H     57  55  52     1.099596288744   106.88114178   314.66505489
 C     57  55  52     1.532065361304   111.41221777   198.38785685
 C     57  55  52     1.532439035274   113.12554846    73.61032470
 H     56  55  52     1.095249720595   111.03911805   299.10281047
 H     56  55  52     1.094611679514   111.71595285   178.07770228
 H     56  55  52     1.095391905798   110.25176978    58.29940312
 H     60  57  55     1.095961869834   111.29265349    56.00048443
 H     60  57  55     1.096066337731   111.40231945   295.33406580
 H     60  57  55     1.095813814135   110.53812762   176.00857777
 H     61  57  55     1.094653063799   112.02060171   310.87787653
 H     61  57  55     1.095645141844   110.35493514   190.33495331
 H     61  57  55     1.096144850364   110.80491042    71.41604107
 H     50  44  40     1.093041615120   112.15385048    67.49166266
 H     50  44  40     1.096444302103   110.35305316   306.32155199
 H     50  44  40     1.095908260216   110.25761732   187.44096892

---------------------------
INTERNAL COORDINATES (A.U.)
---------------------------
 C      0   0   0     0.000000000000     0.00000000     0.00000000
 C      1   0   0     2.854032515387     0.00000000     0.00000000
 C      2   1   0     2.899254404710   110.41864869     0.00000000
 H      2   1   3     2.071012303491   110.74609389   237.90809756
 H      2   1   3     2.078907860177   109.83644088   118.75599676
 C      1   2   3     2.796578863274   113.87118957   305.89981573
 C      6   1   2     2.858694304203   114.35297972    50.05159582
 C      3   2   1     2.890490367502   110.18083834    56.79930001
 H      7   6   1     2.069684811217   110.23139863   188.67395574
 H      7   6   1     2.080019747671   108.28451841    72.01671530
 H      8   3   2     2.075948600066   108.30690794    64.56462073
 H      8   3   2     2.071511684221   109.50455253   181.52400453
 O      3   2   1     2.716087815109   110.64290748   292.76798959
 H      3   2   1     2.073065252142   109.50538525   177.28339199
 C      1   2   3     2.559276503136   121.25696144   122.56952905
 C      6   1   2     2.527289456543   123.17281906   232.01100789
 H     16   6   1     2.053677882417   121.33686153   358.99644562
 H     16   6   1     2.055081424649   120.94307591   178.39587973
 C     15   1   2     2.729908832060   126.06789777   185.08652949
 H     15   1   2     2.058703408151   116.27305065     3.06083989
 C     19  15   1     2.551172890354   126.54960294   184.88328945
 H     19  15   1     2.055542334622   115.77495008     5.55691959
 C     21  19  15     2.848729341645   125.77679520     1.76464888
 C     23  21  19     2.912599473206   111.69491421   125.65768568
 H     23  21  19     2.066290917155   112.33837264     1.93979686
 H     23  21  19     2.081978027807   107.84646506   244.28001535
 C     24  23  21     2.900349286606   112.70158833    50.72350443
 H     24  23  21     2.073752515709   109.03948990   288.55510915
 H     24  23  21     2.072880083848   109.09469096   172.65948740
 C     27  24  23     2.901145389984   111.87960134   306.39646853
 H     27  24  23     2.069368821058   108.96086767   182.79208454
 H     27  24  23     2.079567607361   109.25468604    66.30852279
 C     21  19  15     2.830240039830   122.69700980   180.32435049
 H     33  21  19     2.089608571010   106.46637925   126.18568734
 C     33  21  19     2.880776256943   121.13048660     3.54745692
 H     13   3   2     1.828993962982   107.58081924    42.63632289
 C     35  33  21     2.924581071599   103.31633607   195.14997412
 H     35  33  21     2.069512982675   112.25500810    73.37025127
 H     35  33  21     2.070728832917   110.71913466   313.67438120
 C     30  27  24     2.940919399456   115.77345678   166.40361321
 H     37  35  33     2.066258969550   111.15187904   252.06777804
 H     37  35  33     2.072114883062   111.25519485   133.75469355
 H     40  30  27     2.081293025387   105.78027829   322.32747141
 C     40  30  27     2.900544355027   118.00552827    83.28228936
 C     30  27  24     2.900609199007   111.10013512   294.65354644
 H     45  30  27     2.068551655804   111.70328386   186.92315889
 H     45  30  27     2.068313541038   111.32864328    66.97934727
 H     45  30  27     2.069541951425   110.84376087   306.94087711
 H     44  40  30     2.081616193380   107.22538383    62.54201116
 C     44  40  30     2.909422165873   114.25891176   303.70953491
 C     44  40  30     2.862433129743   113.61089146   180.00574517
 C     51  44  40     2.518186847841   126.95690520    23.39361692
 H     51  44  40     2.061658247767   113.64333663   199.27844445
 H     52  51  44     2.062711352631   118.65644654   356.38773118
 C     52  51  44     2.854280207811   128.10355969   176.47219473
 C     55  52  51     2.907932479143   108.83151762   133.32873932
 C     55  52  51     2.915740400856   115.14033581     5.03632709
 H     55  52  51     2.086044990686   106.07151228   247.62845619
 H     57  55  52     2.077935843602   106.88114178   314.66505489
 C     57  55  52     2.895183952132   111.41221777   198.38785685
 C     57  55  52     2.895890093599   113.12554846    73.61032470
 H     56  55  52     2.069722020179   111.03911805   299.10281047
 H     56  55  52     2.068516297273   111.71595285   178.07770228
 H     56  55  52     2.069990711273   110.25176978    58.29940312
 H     60  57  55     2.071067787206   111.29265349    56.00048443
 H     60  57  55     2.071265202923   111.40231945   295.33406580
 H     60  57  55     2.070788002482   110.53812762   176.00857777
 H     61  57  55     2.068594502238   112.02060171   310.87787653
 H     61  57  55     2.070469258046   110.35493514   190.33495331
 H     61  57  55     2.071413570296   110.80491042    71.41604107
 H     50  44  40     2.065549305556   112.15385048    67.49166266
 H     50  44  40     2.071979452072   110.35305316   306.32155199
 H     50  44  40     2.070966479710   110.25761732   187.44096892

---------------------
BASIS SET INFORMATION
---------------------
There are 3 groups of distinct atoms

 Group   1 Type C   : 7s4p contracted to 4s3p pattern {4111/211}
 Group   2 Type H   : 5s contracted to 3s pattern {311}
 Group   3 Type O   : 7s4p contracted to 4s3p pattern {4111/211}

Atom   0C    basis set group =>   1
Atom   1C    basis set group =>   1
Atom   2C    basis set group =>   1
Atom   3H    basis set group =>   2
Atom   4H    basis set group =>   2
Atom   5C    basis set group =>   1
Atom   6C    basis set group =>   1
Atom   7C    basis set group =>   1
Atom   8H    basis set group =>   2
Atom   9H    basis set group =>   2
Atom  10H    basis set group =>   2
Atom  11H    basis set group =>   2
Atom  12O    basis set group =>   3
Atom  13H    basis set group =>   2
Atom  14C    basis set group =>   1
Atom  15C    basis set group =>   1
Atom  16H    basis set group =>   2
Atom  17H    basis set group =>   2
Atom  18C    basis set group =>   1
Atom  19H    basis set group =>   2
Atom  20C    basis set group =>   1
Atom  21H    basis set group =>   2
Atom  22C    basis set group =>   1
Atom  23C    basis set group =>   1
Atom  24H    basis set group =>   2
Atom  25H    basis set group =>   2
Atom  26C    basis set group =>   1
Atom  27H    basis set group =>   2
Atom  28H    basis set group =>   2
Atom  29C    basis set group =>   1
Atom  30H    basis set group =>   2
Atom  31H    basis set group =>   2
Atom  32C    basis set group =>   1
Atom  33H    basis set group =>   2
Atom  34C    basis set group =>   1
Atom  35H    basis set group =>   2
Atom  36C    basis set group =>   1
Atom  37H    basis set group =>   2
Atom  38H    basis set group =>   2
Atom  39C    basis set group =>   1
Atom  40H    basis set group =>   2
Atom  41H    basis set group =>   2
Atom  42H    basis set group =>   2
Atom  43C    basis set group =>   1
Atom  44C    basis set group =>   1
Atom  45H    basis set group =>   2
Atom  46H    basis set group =>   2
Atom  47H    basis set group =>   2
Atom  48H    basis set group =>   2
Atom  49C    basis set group =>   1
Atom  50C    basis set group =>   1
Atom  51C    basis set group =>   1
Atom  52H    basis set group =>   2
Atom  53H    basis set group =>   2
Atom  54C    basis set group =>   1
Atom  55C    basis set group =>   1
Atom  56C    basis set group =>   1
Atom  57H    basis set group =>   2
Atom  58H    basis set group =>   2
Atom  59C    basis set group =>   1
Atom  60C    basis set group =>   1
Atom  61H    basis set group =>   2
Atom  62H    basis set group =>   2
Atom  63H    basis set group =>   2
Atom  64H    basis set group =>   2
Atom  65H    basis set group =>   2
Atom  66H    basis set group =>   2
Atom  67H    basis set group =>   2
Atom  68H    basis set group =>   2
Atom  69H    basis set group =>   2
Atom  70H    basis set group =>   2
Atom  71H    basis set group =>   2
Atom  72H    basis set group =>   2

-------------------------
BASIS SET IN INPUT FORMAT
-------------------------

 # Basis set for element : H 
 NewGTO H 
 S 3 
   1    1357.7500000000      0.0012928364
   2      54.3100000000      0.0588280685
   3       4.3448000000      0.9761499708
 S 1 
   1       0.6604910000      1.0000000000
 S 1 
   1       0.1366870000      1.0000000000
  end;

 # Basis set for element : C 
 NewGTO C 
 S 4 
   1  139534.0000000000      0.0001655246
   2    5581.3600000000      0.0074486101
   3     446.5090000000      0.1285821065
   4      67.4620000000      0.9218029311
 S 1 
   1      15.0674000000      1.0000000000
 S 1 
   1       3.9387600000      1.0000000000
 S 1 
   1       0.2999150000      1.0000000000
 P 2 
   1      28.3900000000      0.0816325586
   2       4.3676900000      0.9660360576
 P 1 
   1       0.8698170000      1.0000000000
 P 1 
   1       0.1889340000      1.0000000000
  end;

 # Basis set for element : O 
 NewGTO O 
 S 4 
   1  253789.0000000000      0.0001641076
   2   10151.6000000000      0.0074010921
   3     812.1250000000      0.1277711901
   4     122.6930000000      0.9223372164
 S 1 
   1      27.5608000000      1.0000000000
 S 1 
   1       7.3172600000      1.0000000000
 S 1 
   1       0.5792400000      1.0000000000
 P 2 
   1      53.4157000000      0.0793786106
   2       8.2177900000      0.9670506337
 P 1 
   1       1.6754400000      1.0000000000
 P 1 
   1       0.3506720000      1.0000000000
  end;

---------------------------------
AUXILIARY/J BASIS SET INFORMATION
---------------------------------
There are 3 groups of distinct atoms

 Group   1 Type C   : 12s5p4d2f1g contracted to 6s4p3d1f1g pattern {711111/2111/211/2/1}
 Group   2 Type H   : 5s2p1d contracted to 3s1p1d pattern {311/2/1}
 Group   3 Type O   : 12s5p4d2f1g contracted to 6s4p3d1f1g pattern {711111/2111/211/2/1}

Atom   0C    basis set group =>   1
Atom   1C    basis set group =>   1
Atom   2C    basis set group =>   1
Atom   3H    basis set group =>   2
Atom   4H    basis set group =>   2
Atom   5C    basis set group =>   1
Atom   6C    basis set group =>   1
Atom   7C    basis set group =>   1
Atom   8H    basis set group =>   2
Atom   9H    basis set group =>   2
Atom  10H    basis set group =>   2
Atom  11H    basis set group =>   2
Atom  12O    basis set group =>   3
Atom  13H    basis set group =>   2
Atom  14C    basis set group =>   1
Atom  15C    basis set group =>   1
Atom  16H    basis set group =>   2
Atom  17H    basis set group =>   2
Atom  18C    basis set group =>   1
Atom  19H    basis set group =>   2
Atom  20C    basis set group =>   1
Atom  21H    basis set group =>   2
Atom  22C    basis set group =>   1
Atom  23C    basis set group =>   1
Atom  24H    basis set group =>   2
Atom  25H    basis set group =>   2
Atom  26C    basis set group =>   1
Atom  27H    basis set group =>   2
Atom  28H    basis set group =>   2
Atom  29C    basis set group =>   1
Atom  30H    basis set group =>   2
Atom  31H    basis set group =>   2
Atom  32C    basis set group =>   1
Atom  33H    basis set group =>   2
Atom  34C    basis set group =>   1
Atom  35H    basis set group =>   2
Atom  36C    basis set group =>   1
Atom  37H    basis set group =>   2
Atom  38H    basis set group =>   2
Atom  39C    basis set group =>   1
Atom  40H    basis set group =>   2
Atom  41H    basis set group =>   2
Atom  42H    basis set group =>   2
Atom  43C    basis set group =>   1
Atom  44C    basis set group =>   1
Atom  45H    basis set group =>   2
Atom  46H    basis set group =>   2
Atom  47H    basis set group =>   2
Atom  48H    basis set group =>   2
Atom  49C    basis set group =>   1
Atom  50C    basis set group =>   1
Atom  51C    basis set group =>   1
Atom  52H    basis set group =>   2
Atom  53H    basis set group =>   2
Atom  54C    basis set group =>   1
Atom  55C    basis set group =>   1
Atom  56C    basis set group =>   1
Atom  57H    basis set group =>   2
Atom  58H    basis set group =>   2
Atom  59C    basis set group =>   1
Atom  60C    basis set group =>   1
Atom  61H    basis set group =>   2
Atom  62H    basis set group =>   2
Atom  63H    basis set group =>   2
Atom  64H    basis set group =>   2
Atom  65H    basis set group =>   2
Atom  66H    basis set group =>   2
Atom  67H    basis set group =>   2
Atom  68H    basis set group =>   2
Atom  69H    basis set group =>   2
Atom  70H    basis set group =>   2
Atom  71H    basis set group =>   2
Atom  72H    basis set group =>   2

-------------------------------------
AUXILIARY/J BASIS SET IN INPUT FORMAT
-------------------------------------

 # Auxiliary/J basis set for element : H 
 NewAuxJGTO H 
 S 3 
   1      15.6752927000      0.1007184237
   2       3.6063578000      0.3404257499
   3       1.2080016000      0.6491996172
 S 1 
   1       0.4726794000      1.0000000000
 S 1 
   1       0.2018100000      1.0000000000
 P 2 
   1       2.0281365000      0.5596620919
   2       0.5358730000      0.5596620919
 D 1 
   1       2.2165124000      1.0000000000
  end;

 # Auxiliary/J basis set for element : C 
 NewAuxJGTO C 
 S 7 
   1    1861.0916331000      0.0134602335
   2     642.9939764000      0.0299160374
   3     235.1105725000      0.1008649584
   4      90.7028894000      0.2370970548
   5      36.7794552000      0.3924037254
   6      15.6046273000      0.3195862154
   7       6.8907294000      0.0530104441
 S 1 
   1       3.1478850000     -1.0000000000
 S 1 
   1       1.4777287000      1.0000000000
 S 1 
   1       0.7076466000      1.0000000000
 S 1 
   1       0.3430122000      1.0000000000
 S 1 
   1       0.1669453000      1.0000000000
 P 2 
   1      13.5472892000     -0.6769313712
   2       5.4669419000     -0.3779500978
 P 1 
   1       2.1751721000      1.0000000000
 P 1 
   1       0.8582194000      1.0000000000
 P 1 
   1       0.3376720000      1.0000000000
 D 2 
   1       5.9287253000     -0.3533329857
   2       1.9809209000     -0.7456525731
 D 1 
   1       0.8055417000     -1.0000000000
 D 1 
   1       0.3531244000     -1.0000000000
 F 2 
   1       1.6755626000      0.6311076882
   2       0.5997536000      0.4968166032
 G 1 
   1       1.0024600000     -1.0000000000
  end;

 # Auxiliary/J basis set for element : O 
 NewAuxJGTO O 
 S 7 
   1    2876.8216605000      0.0168151159
   2    1004.7443032000      0.0340137548
   3     369.7579954000      0.1194951309
   4     142.9442404000      0.2664627624
   5      57.8366425000      0.4202764046
   6      24.3864983000      0.2765077335
   7      10.6622662000      0.0057008815
 S 1 
   1       4.8070437000     -1.0000000000
 S 1 
   1       2.2210770000      1.0000000000
 S 1 
   1       1.0447795000      1.0000000000
 S 1 
   1       0.4968425000      1.0000000000
 S 1 
   1       0.2371384000      1.0000000000
 P 2 
   1      64.2613382000     -0.2731534179
   2      16.3006076000     -0.8168011598
 P 1 
   1       4.3550542000      1.0000000000
 P 1 
   1       1.2019554000      1.0000000000
 P 1 
   1       0.3354196000      1.0000000000
 D 2 
   1       9.2146611000     -0.4661230638
   2       2.8435251000     -0.6600908911
 D 1 
   1       0.9955759000     -1.0000000000
 D 1 
   1       0.3649441000     -1.0000000000
 F 2 
   1       2.6420115000      0.5931563945
   2       0.7345613000      0.5931563945
 G 1 
   1       1.3931000000     -1.0000000000
  end;



           ************************************************************
           *        Program running with 4 parallel MPI-processes     *
           *              working on a common directory               *
           ************************************************************
------------------------------------------------------------------------------
                           ORCA GTO INTEGRAL CALCULATION
                           -- RI-GTO INTEGRALS CHOSEN --
------------------------------------------------------------------------------
------------------------------------------------------------------------------
                   ___                                                        
                  /   \      - P O W E R E D   B Y -                         
                 /     \                                                     
                 |  |  |   _    _      __       _____    __    __             
                 |  |  |  | |  | |    /  \     |  _  \  |  |  /  |          
                  \  \/   | |  | |   /    \    | | | |  |  | /  /          
                 / \  \   | |__| |  /  /\  \   | |_| |  |  |/  /          
                |  |  |   |  __  | /  /__\  \  |    /   |      \           
                |  |  |   | |  | | |   __   |  |    \   |  |\   \          
                \     /   | |  | | |  |  |  |  | |\  \  |  | \   \       
                 \___/    |_|  |_| |__|  |__|  |_| \__\ |__|  \__/        
                                                                              
                      - O R C A' S   B I G   F R I E N D -                    
                                      &                                       
                       - I N T E G R A L  F E E D E R -                       
                                                                              
 v1 FN, 2020, v2 2021                                                         
------------------------------------------------------------------------------


Reading SHARK input file inpJ.SHARKINP.tmp ... ok
----------------------
SHARK INTEGRAL PACKAGE
----------------------

Number of atoms                             ...     73
Number of basis functions                   ...    509
Number of shells                            ...    335
Maximum angular momentum                    ...      1
Integral batch strategy                     ... SHARK/LIBINT Hybrid
RI-J (if used) integral strategy            ... SPLIT-RIJ (Revised 2003 algorithm where possible)
Printlevel                                  ...      1
Contraction scheme used                     ... SEGMENTED contraction
Coulomb Range Separation                    ... NOT USED
Exchange Range Separation                   ... NOT USED
Finite Nucleus Model                        ... NOT USED
Auxiliary Coulomb fitting basis             ... AVAILABLE
   # of basis functions in Aux-J            ...   1905
   # of shells in Aux-J                     ...    655
   Maximum angular momentum in Aux-J        ...      4
Auxiliary J/K fitting basis                 ... NOT available
Auxiliary Correlation fitting basis         ... NOT available
Auxiliary 'external' fitting basis          ... NOT available
Integral threshold                          ...     3.000000e-11
Primitive cut-off                           ...     1.000000e-12
Primitive pair pre-selection threshold      ...     1.000000e-12

Calculating pre-screening integrals         ... done (  0.0 sec) Dimension = 335
Organizing shell pair data                  ... done (  0.1 sec)
Shell pair information
Total number of shell pairs                 ...     56280
Shell pairs after pre-screening             ...     21986
Total number of primitive shell pairs       ...    145865
Primitive shell pairs kept                  ...     37800
          la=0 lb=0:  11058 shell pairs
          la=1 lb=0:   9045 shell pairs
          la=1 lb=1:   1883 shell pairs

Calculating one electron integrals          ... done (  0.0 sec)
Calculating RI/J V-Matrix + Cholesky decomp.... done (  0.2 sec)
Calculating Nuclear repulsion               ... done (  0.0 sec) ENN=   2795.014838453426 Eh

SHARK setup successfully completed in   0.4 seconds

Maximum memory used throughout the entire GTOINT-calculation: 46.4 MB


           ************************************************************
           *        Program running with 4 parallel MPI-processes     *
           *              working on a common directory               *
           ************************************************************
-------------------------------------------------------------------------------
                                 ORCA SCF
-------------------------------------------------------------------------------

------------
SCF SETTINGS
------------
Hamiltonian:
 Density Functional     Method          .... DFT(GTOs)
 Exchange Functional    Exchange        .... PBE
   PBE kappa parameter   XKappa         ....  0.804000
   PBE mue parameter    XMuePBE         ....  0.219520
 Correlation Functional Correlation     .... PBE
   PBE beta parameter  CBetaPBE         ....  0.066725
 LDA part of GGA corr.  LDAOpt          .... PW91-LDA
 Gradients option       PostSCFGGA      .... off
 Hybrid DFT is turned on
   Fraction HF Exchange ScalHFX         ....  0.250000
   Scaling of DF-GGA-X  ScalDFX         ....  0.750000
   Scaling of DF-GGA-C  ScalDFC         ....  1.000000
   Scaling of DF-LDA-C  ScalLDAC        ....  1.000000
   Perturbative correction              ....  0.000000
   Density functional embedding theory  .... OFF
   NL short-range parameter             ....  6.900000
 RI-approximation to the Coulomb term is turned on
   Number of AuxJ basis functions       .... 1905
   RIJ-COSX (HFX calculated with COS-X)).... on


General Settings:
 Integral files         IntName         .... inpJ
 Hartree-Fock type      HFTyp           .... RHF
 Total Charge           Charge          ....    0
 Multiplicity           Mult            ....    1
 Number of Electrons    NEL             ....  220
 Basis Dimension        Dim             ....  509
 Nuclear Repulsion      ENuc            ....   2795.0148384534 Eh

Convergence Acceleration:
 DIIS                   CNVDIIS         .... on
   Start iteration      DIISMaxIt       ....    12
   Startup error        DIISStart       ....  0.200000
   # of expansion vecs  DIISMaxEq       ....     5
   Bias factor          DIISBfac        ....   1.050
   Max. coefficient     DIISMaxC        ....  10.000
 Trust-Rad. Augm. Hess. CNVTRAH         .... auto
   Auto Start mean grad. ratio tolernc. ....  1.125000
   Auto Start start iteration           ....    20
   Auto Start num. interpolation iter.  ....    10
   Max. Number of Micro iterations      ....    16
   Max. Number of Macro iterations      .... Maxiter - #DIIS iter
   Number of Davidson start vectors     ....     2
   Converg. threshold I  (grad. norm)   ....   1.000e-04
   Converg. threshold II (energy diff.) ....   1.000e-07
   Grad. Scal. Fac. for Micro threshold ....   0.100
   Minimum threshold for Micro iter.    ....   0.010
   NR start threshold (gradient norm)   ....   0.001
   Initial trust radius                 ....   0.400
   Minimum AH scaling param. (alpha)    ....   1.000
   Maximum AH scaling param. (alpha)    .... 1000.000
   Orbital update algorithm             .... Taylor
   White noise on init. David. guess    .... on
   Maximum white noise                  ....   0.010
   Quad. conv. algorithm                .... NR
 SOSCF                  CNVSOSCF        .... off
 Level Shifting         CNVShift        .... on
   Level shift para.    LevelShift      ....    0.2500
   Turn off err/grad.   ShiftErr        ....    0.0010
 Zerner damping         CNVZerner       .... off
 Static damping         CNVDamp         .... on
   Fraction old density DampFac         ....    0.7000
   Max. Damping (<1)    DampMax         ....    0.9800
   Min. Damping (>=0)   DampMin         ....    0.0000
   Turn off err/grad.   DampErr         ....    0.1000
 Fernandez-Rico         CNVRico         .... off

SCF Procedure:
 Maximum # iterations   MaxIter         ....   125
 SCF integral mode      SCFMode         .... Direct
   Integral package                     .... SHARK and LIBINT hybrid scheme
 Reset frequency        DirectResetFreq ....    20
 Integral Threshold     Thresh          ....  3.000e-11 Eh
 Primitive CutOff       TCut            ....  1.000e-12 Eh

Convergence Tolerance:
 Convergence Check Mode ConvCheckMode   .... Total+1el-Energy
 Convergence forced     ConvForced      .... 0
 Energy Change          TolE            ....  1.000e-07 Eh
 1-El. energy change                    ....  1.000e-04 Eh
 DIIS Error             TolErr          ....  1.000e-07


Diagonalization of the overlap matrix:
Smallest eigenvalue                        ... 7.559e-03
Time for diagonalization                   ...    0.026 sec
Threshold for overlap eigenvalues          ... 1.000e-08
Number of eigenvalues below threshold      ... 0
Time for construction of square roots      ...    0.020 sec
Total time needed                          ...    0.047 sec

Time for model grid setup =    0.740 sec

------------------------------
INITIAL GUESS: MODEL POTENTIAL
------------------------------
Loading Hartree-Fock densities                     ... done
Calculating cut-offs                               ... done
Initializing the effective Hamiltonian             ... done
Setting up the integral package (SHARK)            ... done
Starting the Coulomb interaction                   ... done (   0.4 sec)
Reading the grid                                   ... done
Mapping shells                                     ... done
Starting the XC term evaluation                    ... done (   0.1 sec)
  promolecular density results
     # of electrons  =    219.974633718
     EX              =   -164.432104614
     EC              =     -7.329875780
     EX+EC           =   -171.761980394
Transforming the Hamiltonian                       ... done (   0.0 sec)
Diagonalizing the Hamiltonian                      ... done (   0.0 sec)
Back transforming the eigenvectors                 ... done (   0.0 sec)
Now organizing SCF variables                       ... done
                      ------------------
                      INITIAL GUESS DONE (   1.3 sec)
                      ------------------
-------------------
DFT GRID GENERATION
-------------------

General Integration Accuracy     IntAcc      ... 4.388
Radial Grid Type                 RadialGrid  ... OptM3 with GC (2021)
Angular Grid (max. ang.)         AngularGrid ... 4 (Lebedev-302)
Angular grid pruning method      GridPruning ... 4 (adaptive)
Weight generation scheme         WeightScheme... Becke
Basis function cutoff            BFCut       ... 1.0000e-11
Integration weight cutoff        WCut        ... 1.0000e-14
Angular grids for H and He will be reduced by one unit
Partially contracted basis set               ... off
Rotationally invariant grid construction     ... off

Total number of grid points                  ...   309743
Total number of batches                      ...     4876
Average number of points per batch           ...       63
Average number of grid points per atom       ...     4243
Time for grid setup =    2.742 sec

--------------------
COSX GRID GENERATION
--------------------

GRIDX 1
-------
General Integration Accuracy     IntAcc      ... 3.816
Radial Grid Type                 RadialGrid  ... OptM3 with GC (2021)
Angular Grid (max. ang.)         AngularGrid ... 1 (Lebedev-50)
Angular grid pruning method      GridPruning ... 4 (adaptive)
Weight generation scheme         WeightScheme... Becke
Basis function cutoff            BFCut       ... 1.0000e-11
Integration weight cutoff        WCut        ... 1.0000e-14
Angular grids for H and He will be reduced by one unit
Partially contracted basis set               ... on
Rotationally invariant grid construction     ... off

Total number of grid points                  ...    39371
Total number of batches                      ...      653
Average number of points per batch           ...       60
Average number of grid points per atom       ...      539
UseSFitting                                  ... on

GRIDX 2
-------
General Integration Accuracy     IntAcc      ... 4.020
Radial Grid Type                 RadialGrid  ... OptM3 with GC (2021)
Angular Grid (max. ang.)         AngularGrid ... 2 (Lebedev-110)
Angular grid pruning method      GridPruning ... 4 (adaptive)
Weight generation scheme         WeightScheme... Becke
Basis function cutoff            BFCut       ... 1.0000e-11
Integration weight cutoff        WCut        ... 1.0000e-14
Angular grids for H and He will be reduced by one unit
Partially contracted basis set               ... on
Rotationally invariant grid construction     ... off

Total number of grid points                  ...    81346
Total number of batches                      ...     1309
Average number of points per batch           ...       62
Average number of grid points per atom       ...     1114
UseSFitting                                  ... on

GRIDX 3
-------
General Integration Accuracy     IntAcc      ... 4.338
Radial Grid Type                 RadialGrid  ... OptM3 with GC (2021)
Angular Grid (max. ang.)         AngularGrid ... 3 (Lebedev-194)
Angular grid pruning method      GridPruning ... 4 (adaptive)
Weight generation scheme         WeightScheme... Becke
Basis function cutoff            BFCut       ... 1.0000e-11
Integration weight cutoff        WCut        ... 1.0000e-14
Angular grids for H and He will be reduced by one unit
Partially contracted basis set               ... on
Rotationally invariant grid construction     ... off

Total number of grid points                  ...   176124
Total number of batches                      ...     2790
Average number of points per batch           ...       63
Average number of grid points per atom       ...     2413
UseSFitting                                  ... on

Time for X-Grid setup             =    2.790 sec


--------------------
CPCM SOLVATION MODEL
--------------------
CPCM parameters:
  Epsilon                                         ...       4.9000
  Refrac                                          ...       1.4500
  Rsolv                                           ...       1.3000
  Surface type                                    ... GAUSSIAN VDW
  Epsilon function type                           ...         CPCM
Radii:
 Radius for C  used is    3.8550 Bohr (=   2.0400 Ang.)
 Radius for H  used is    2.4944 Bohr (=   1.3200 Ang.)
 Radius for O  used is    3.4469 Bohr (=   1.8240 Ang.)
Calculating surface                               ...        done! (  0.0s)
GEPOL surface points                              ...         3609
GEPOL Volume                                      ...    3597.3586
GEPOL Surface-area                                ...    1774.6813
Calculating surface distance matrix               ...        done! (  0.1s)
Performing Cholesky decomposition & store         ...        done! (  0.5s)
Overall time for CPCM initialization              ...                 0.6s
--------------
SCF ITERATIONS
--------------
ITER       Energy         Delta-E        Max-DP      RMS-DP      [F,P]     Damp
               ***  Starting incremental Fock matrix formation  ***

  HOMO= 109 E= -3.992 eV LUMO=  7.701 eV gap=  11.693 eV
  0  -1165.0075170418   0.000000000000 0.09761772  0.00106796  0.1968557 0.7000

  HOMO= 109 E= -4.851 eV LUMO=  7.020 eV gap=  11.871 eV
  1  -1165.2267327324  -0.219215690621 0.06549151  0.00078545  0.0953276 0.7000
                               ***Turning on DIIS***

  HOMO= 109 E= -5.447 eV LUMO=  6.473 eV gap=  11.919 eV
  2  -1165.3275359849  -0.100803252480 0.10320948  0.00138803  0.0375628 0.0000

  HOMO= 109 E= -6.002 eV LUMO=  5.945 eV gap=  11.947 eV
  3  -1165.4718274145  -0.144291429592 0.05142084  0.00057452  0.0462458 0.0000

  HOMO= 109 E= -6.073 eV LUMO=  5.872 eV gap=  11.946 eV
  4  -1165.5074637826  -0.035636368118 0.01168584  0.00013412  0.0058484 0.0000

  HOMO= 109 E= -6.022 eV LUMO=  5.931 eV gap=  11.953 eV
  5  -1165.5083095020  -0.000845719470 0.00250742  0.00003789  0.0050742 0.0000

  HOMO= 109 E= -6.008 eV LUMO=  5.945 eV gap=  11.953 eV
  6  -1165.5083880349  -0.000078532877 0.00117008  0.00001172  0.0010797 0.0000

  HOMO= 109 E= -6.010 eV LUMO= -0.859 eV gap=   5.151 eV
  7  -1165.5083932710  -0.000005236036 0.00049870  0.00000600  0.0002299 0.0000
               *** Restarting incremental Fock matrix formation ***
                                   *** Resetting DIIS ***

  HOMO= 109 E= -6.009 eV LUMO= -0.858 eV gap=   5.151 eV
  8  -1165.5083962104  -0.000002939437 0.00032366  0.00000272  0.0001166 0.0000

  HOMO= 109 E= -6.010 eV LUMO= -0.858 eV gap=   5.152 eV
  9  -1165.5083962493  -0.000000038865 0.00013401  0.00000124  0.0001570 0.0000

  HOMO= 109 E= -6.010 eV LUMO= -0.858 eV gap=   5.152 eV
 10  -1165.5083963790  -0.000000129774 0.00006049  0.00000038  0.0000300 0.0000

  HOMO= 109 E= -6.010 eV LUMO= -0.858 eV gap=   5.152 eV
 11  -1165.5083964183  -0.000000039240 0.00002379  0.00000017  0.0000169 0.0000

  HOMO= 109 E= -6.010 eV LUMO= -0.858 eV gap=   5.152 eV
 12  -1165.5083964065   0.000000011738 0.00000697  0.00000004  0.0000032 0.0000
                 **** Energy Check signals convergence ****

               *****************************************************
               *                     SUCCESS                       *
               *           SCF CONVERGED AFTER  13 CYCLES          *
               *****************************************************

Old exchange energy                            =    -42.067663422 Eh
New exchange energy                            =    -42.067691162 Eh
Exchange energy change after final integration =     -0.000027739 Eh
Total energy after final integration           =  -1165.508424154 Eh
Final COS-X integration done in                =    13.436 sec

----------------
TOTAL SCF ENERGY
----------------

Total Energy       :        -1165.50842415 Eh          -31715.09659 eV

Components:
Nuclear Repulsion  :         2795.01483845 Eh           76056.22038 eV
Electronic Energy  :        -3960.52326261 Eh         -107771.31696 eV
One Electron Energy:        -7131.79171448 Eh         -194065.91867 eV
Two Electron Energy:         3171.26845188 Eh           86294.60171 eV
Max COSX asymmetry :            0.00000178 Eh               0.00005 eV
CPCM Dielectric    :           -0.01363208 Eh              -0.37095 eV

Virial components:
Potential Energy   :        -2322.40133937 Eh          -63195.75325 eV
Kinetic Energy     :         1156.89291521 Eh           31480.65667 eV
Virial Ratio       :            2.00744711


DFT components:
N(Alpha)           :      109.999722972216 electrons
N(Beta)            :      109.999722972216 electrons
N(Total)           :      219.999445944432 electrons
E(X)               :     -125.745401513811 Eh       
E(C)               :       -7.329381828878 Eh       
E(XC)              :     -133.074783342689 Eh       
DFET-embed. en.    :        0.000000000000 Eh       
CPCM Solvation Model Properties:
Surface-charge          :           -0.03433448
Charge-correction       :           -0.00008476 Eh              -0.00231 eV
Free-energy (cav+disp)  :  This term is not implemented in the current solvation scheme

---------------
SCF CONVERGENCE
---------------

  Last Energy change         ...   -7.8380e-09  Tolerance :   1.0000e-07
  Last MAX-Density change    ...    0.0000e+00  Tolerance :   1.0000e-05
  Last RMS-Density change    ...    0.0000e+00  Tolerance :   1.0000e-06
  Last DIIS Error            ...    2.0277e-06  Tolerance :   1.0000e-07

             **** THE GBW FILE WAS UPDATED (inpJ.gbw) ****
             **** DENSITY inpJ.scfp WAS UPDATED ****
             **** ENERGY FILE WAS UPDATED (inpJ.en.tmp) ****
             **** THE GBW FILE WAS UPDATED (inpJ.gbw) ****
             **** DENSITY inpJ.scfp WAS UPDATED ****
----------------
ORBITAL ENERGIES
----------------

  NO   OCC          E(Eh)            E(eV) 
   0   2.0000     -19.212436      -522.7970 
   1   2.0000     -10.300447      -280.2894 
   2   2.0000     -10.270349      -279.4704 
   3   2.0000     -10.268225      -279.4126 
   4   2.0000     -10.263602      -279.2868 
   5   2.0000     -10.257370      -279.1172 
   6   2.0000     -10.256997      -279.1071 
   7   2.0000     -10.251846      -278.9669 
   8   2.0000     -10.251685      -278.9625 
   9   2.0000     -10.248115      -278.8654 
  10   2.0000     -10.247580      -278.8508 
  11   2.0000     -10.247341      -278.8443 
  12   2.0000     -10.245893      -278.8049 
  13   2.0000     -10.244435      -278.7653 
  14   2.0000     -10.244318      -278.7621 
  15   2.0000     -10.243898      -278.7506 
  16   2.0000     -10.243139      -278.7300 
  17   2.0000     -10.242895      -278.7233 
  18   2.0000     -10.241778      -278.6929 
  19   2.0000     -10.241329      -278.6807 
  20   2.0000     -10.240053      -278.6460 
  21   2.0000     -10.233996      -278.4812 
  22   2.0000     -10.233913      -278.4789 
  23   2.0000     -10.232723      -278.4466 
  24   2.0000     -10.226856      -278.2869 
  25   2.0000     -10.226453      -278.2759 
  26   2.0000     -10.224747      -278.2295 
  27   2.0000     -10.222024      -278.1554 
  28   2.0000     -10.220610      -278.1169 
  29   2.0000      -1.043235       -28.3879 
  30   2.0000      -0.901406       -24.5285 
  31   2.0000      -0.882124       -24.0038 
  32   2.0000      -0.860119       -23.4050 
  33   2.0000      -0.845661       -23.0116 
  34   2.0000      -0.822002       -22.3678 
  35   2.0000      -0.813945       -22.1486 
  36   2.0000      -0.795738       -21.6531 
  37   2.0000      -0.794865       -21.6294 
  38   2.0000      -0.776167       -21.1206 
  39   2.0000      -0.758288       -20.6341 
  40   2.0000      -0.741106       -20.1665 
  41   2.0000      -0.735610       -20.0170 
  42   2.0000      -0.715090       -19.4586 
  43   2.0000      -0.702931       -19.1277 
  44   2.0000      -0.701961       -19.1013 
  45   2.0000      -0.695959       -18.9380 
  46   2.0000      -0.670543       -18.2464 
  47   2.0000      -0.661933       -18.0121 
  48   2.0000      -0.632150       -17.2017 
  49   2.0000      -0.622277       -16.9330 
  50   2.0000      -0.613066       -16.6824 
  51   2.0000      -0.608656       -16.5624 
  52   2.0000      -0.596611       -16.2346 
  53   2.0000      -0.587204       -15.9786 
  54   2.0000      -0.562210       -15.2985 
  55   2.0000      -0.540879       -14.7181 
  56   2.0000      -0.529945       -14.4205 
  57   2.0000      -0.529026       -14.3955 
  58   2.0000      -0.515128       -14.0173 
  59   2.0000      -0.510411       -13.8890 
  60   2.0000      -0.500306       -13.6140 
  61   2.0000      -0.492346       -13.3974 
  62   2.0000      -0.488883       -13.3032 
  63   2.0000      -0.481506       -13.1024 
  64   2.0000      -0.474814       -12.9204 
  65   2.0000      -0.471130       -12.8201 
  66   2.0000      -0.465189       -12.6584 
  67   2.0000      -0.459301       -12.4982 
  68   2.0000      -0.457599       -12.4519 
  69   2.0000      -0.451085       -12.2747 
  70   2.0000      -0.448436       -12.2026 
  71   2.0000      -0.440901       -11.9975 
  72   2.0000      -0.436729       -11.8840 
  73   2.0000      -0.432851       -11.7785 
  74   2.0000      -0.427276       -11.6268 
  75   2.0000      -0.422340       -11.4925 
  76   2.0000      -0.415255       -11.2997 
  77   2.0000      -0.412094       -11.2136 
  78   2.0000      -0.410448       -11.1689 
  79   2.0000      -0.404822       -11.0158 
  80   2.0000      -0.403487       -10.9794 
  81   2.0000      -0.399879       -10.8813 
  82   2.0000      -0.397513       -10.8169 
  83   2.0000      -0.388466       -10.5707 
  84   2.0000      -0.385779       -10.4976 
  85   2.0000      -0.381900       -10.3920 
  86   2.0000      -0.376116       -10.2346 
  87   2.0000      -0.374779       -10.1983 
  88   2.0000      -0.372136       -10.1263 
  89   2.0000      -0.364295        -9.9130 
  90   2.0000      -0.361276        -9.8308 
  91   2.0000      -0.358712        -9.7611 
  92   2.0000      -0.354417        -9.6442 
  93   2.0000      -0.345333        -9.3970 
  94   2.0000      -0.340701        -9.2709 
  95   2.0000      -0.339532        -9.2391 
  96   2.0000      -0.336300        -9.1512 
  97   2.0000      -0.333509        -9.0752 
  98   2.0000      -0.330681        -8.9983 
  99   2.0000      -0.328749        -8.9457 
 100   2.0000      -0.326404        -8.8819 
 101   2.0000      -0.323237        -8.7957 
 102   2.0000      -0.319036        -8.6814 
 103   2.0000      -0.313742        -8.5374 
 104   2.0000      -0.310098        -8.4382 
 105   2.0000      -0.300848        -8.1865 
 106   2.0000      -0.276577        -7.5260 
 107   2.0000      -0.274868        -7.4795 
 108   2.0000      -0.255483        -6.9520 
 109   2.0000      -0.220858        -6.0099 
 110   0.0000      -0.031538        -0.8582 
 111   0.0000       0.019485         0.5302 
 112   0.0000       0.028335         0.7710 
 113   0.0000       0.081082         2.2063 
 114   0.0000       0.089992         2.4488 
 115   0.0000       0.101961         2.7745 
 116   0.0000       0.103964         2.8290 
 117   0.0000       0.108536         2.9534 
 118   0.0000       0.112549         3.0626 
 119   0.0000       0.114460         3.1146 
 120   0.0000       0.118121         3.2142 
 121   0.0000       0.121277         3.3001 
 122   0.0000       0.127258         3.4629 
 123   0.0000       0.128561         3.4983 
 124   0.0000       0.133151         3.6232 
 125   0.0000       0.137043         3.7291 
 126   0.0000       0.139163         3.7868 
 127   0.0000       0.140665         3.8277 
 128   0.0000       0.142127         3.8675 
 129   0.0000       0.149626         4.0715 
 130   0.0000       0.155175         4.2225 
 131   0.0000       0.157745         4.2925 
 132   0.0000       0.158598         4.3157 
 133   0.0000       0.166406         4.5281 
 134   0.0000       0.167153         4.5485 
 135   0.0000       0.171107         4.6561 
 136   0.0000       0.174311         4.7432 
 137   0.0000       0.174645         4.7523 
 138   0.0000       0.177271         4.8238 
 139   0.0000       0.180316         4.9067 
 140   0.0000       0.183288         4.9875 
 141   0.0000       0.183700         4.9987 
 142   0.0000       0.187788         5.1100 
 143   0.0000       0.192087         5.2269 
 144   0.0000       0.193595         5.2680 
 145   0.0000       0.197551         5.3756 
 146   0.0000       0.200381         5.4526 
 147   0.0000       0.202955         5.5227 
 148   0.0000       0.204884         5.5752 
 149   0.0000       0.210390         5.7250 
 150   0.0000       0.219641         5.9767 
 151   0.0000       0.221027         6.0144 
 152   0.0000       0.224159         6.0997 
 153   0.0000       0.227212         6.1828 
 154   0.0000       0.229644         6.2489 
 155   0.0000       0.235508         6.4085 
 156   0.0000       0.240406         6.5418 
 157   0.0000       0.242958         6.6112 
 158   0.0000       0.245579         6.6826 
 159   0.0000       0.251136         6.8338 
 160   0.0000       0.257362         7.0032 
 161   0.0000       0.259200         7.0532 
 162   0.0000       0.261208         7.1078 
 163   0.0000       0.264605         7.2003 
 164   0.0000       0.267451         7.2777 
 165   0.0000       0.275595         7.4993 
 166   0.0000       0.275976         7.5097 
 167   0.0000       0.278240         7.5713 
 168   0.0000       0.288916         7.8618 
 169   0.0000       0.292236         7.9521 
 170   0.0000       0.297944         8.1075 
 171   0.0000       0.299366         8.1462 
 172   0.0000       0.304647         8.2899 
 173   0.0000       0.311058         8.4643 
 174   0.0000       0.314271         8.5518 
 175   0.0000       0.318845         8.6762 
 176   0.0000       0.330698         8.9987 
 177   0.0000       0.332028         9.0350 
 178   0.0000       0.343174         9.3382 
 179   0.0000       0.355880         9.6840 
 180   0.0000       0.362038         9.8516 
 181   0.0000       0.379792        10.3347 
 182   0.0000       0.382087        10.3971 
 183   0.0000       0.413094        11.2409 
 184   0.0000       0.422768        11.5041 
 185   0.0000       0.464414        12.6373 
 186   0.0000       0.484304        13.1786 
 187   0.0000       0.499170        13.5831 
 188   0.0000       0.511771        13.9260 
 189   0.0000       0.516465        14.0537 
 190   0.0000       0.522253        14.2112 
 191   0.0000       0.524529        14.2732 
 192   0.0000       0.543241        14.7823 
 193   0.0000       0.566503        15.4153 
 194   0.0000       0.569533        15.4978 
 195   0.0000       0.573113        15.5952 
 196   0.0000       0.582477        15.8500 
 197   0.0000       0.587104        15.9759 
 198   0.0000       0.595247        16.1975 
 199   0.0000       0.614036        16.7088 
 200   0.0000       0.621707        16.9175 
 201   0.0000       0.623143        16.9566 
 202   0.0000       0.627932        17.0869 
 203   0.0000       0.629710        17.1353 
 204   0.0000       0.641820        17.4648 
 205   0.0000       0.650669        17.7056 
 206   0.0000       0.658945        17.9308 
 207   0.0000       0.660875        17.9833 
 208   0.0000       0.666446        18.1349 
 209   0.0000       0.669034        18.2053 
 210   0.0000       0.675899        18.3921 
 211   0.0000       0.682987        18.5850 
 212   0.0000       0.688329        18.7304 
 213   0.0000       0.695869        18.9356 
 214   0.0000       0.705187        19.1891 
 215   0.0000       0.707266        19.2457 
 216   0.0000       0.712086        19.3768 
 217   0.0000       0.715125        19.4595 
 218   0.0000       0.720518        19.6063 
 219   0.0000       0.724463        19.7136 
 220   0.0000       0.725534        19.7428 
 221   0.0000       0.732594        19.9349 
 222   0.0000       0.733683        19.9645 
 223   0.0000       0.741259        20.1707 
 224   0.0000       0.745262        20.2796 
 225   0.0000       0.749017        20.3818 
 226   0.0000       0.751108        20.4387 
 227   0.0000       0.756772        20.5928 
 228   0.0000       0.761048        20.7092 
 229   0.0000       0.762355        20.7447 
 230   0.0000       0.764457        20.8019 
 231   0.0000       0.776222        21.1221 
 232   0.0000       0.778573        21.1861 
 233   0.0000       0.780061        21.2265 
 234   0.0000       0.789838        21.4926 
 235   0.0000       0.793816        21.6008 
 236   0.0000       0.798214        21.7205 
 237   0.0000       0.802481        21.8366 
 238   0.0000       0.809598        22.0303 
 239   0.0000       0.821062        22.3422 
 240   0.0000       0.822917        22.3927 
 241   0.0000       0.826675        22.4950 
 242   0.0000       0.835633        22.7387 
 243   0.0000       0.848442        23.0873 
 244   0.0000       0.854398        23.2493 
 245   0.0000       0.858060        23.3490 
 246   0.0000       0.861192        23.4342 
 247   0.0000       0.867110        23.5953 
 248   0.0000       0.871224        23.7072 
 249   0.0000       0.872552        23.7433 
 250   0.0000       0.874020        23.7833 
 251   0.0000       0.875312        23.8184 
 252   0.0000       0.876893        23.8615 
 253   0.0000       0.880884        23.9701 
 254   0.0000       0.883049        24.0290 
 255   0.0000       0.884609        24.0714 
 256   0.0000       0.888097        24.1663 
 257   0.0000       0.890701        24.2372 
 258   0.0000       0.895649        24.3718 
 259   0.0000       0.898455        24.4482 
 260   0.0000       0.901778        24.5386 
 261   0.0000       0.902681        24.5632 
 262   0.0000       0.908519        24.7220 
 263   0.0000       0.909857        24.7585 
 264   0.0000       0.915567        24.9138 
 265   0.0000       0.917022        24.9535 
 266   0.0000       0.925994        25.1976 
 267   0.0000       0.926975        25.2243 
 268   0.0000       0.929316        25.2880 
 269   0.0000       0.932288        25.3689 
 270   0.0000       0.942127        25.6366 
 271   0.0000       0.942959        25.6592 
 272   0.0000       0.944398        25.6984 
 273   0.0000       0.949711        25.8430 
 274   0.0000       0.955600        26.0032 
 275   0.0000       0.961248        26.1569 
 276   0.0000       0.966388        26.2968 
 277   0.0000       0.969173        26.3725 
 278   0.0000       0.973623        26.4936 
 279   0.0000       0.982055        26.7231 
 280   0.0000       0.992118        26.9969 
 281   0.0000       0.996122        27.1058 
 282   0.0000       1.005711        27.3668 
 283   0.0000       1.009614        27.4730 
 284   0.0000       1.020238        27.7621 
 285   0.0000       1.029760        28.0212 
 286   0.0000       1.036459        28.2035 
 287   0.0000       1.045807        28.4578 
 288   0.0000       1.057442        28.7745 
 289   0.0000       1.061167        28.8758 
 290   0.0000       1.074553        29.2401 
 291   0.0000       1.080966        29.4146 
 292   0.0000       1.085086        29.5267 
 293   0.0000       1.089738        29.6533 
 294   0.0000       1.109388        30.1880 
 295   0.0000       1.113137        30.2900 
 296   0.0000       1.121483        30.5171 
 297   0.0000       1.138394        30.9773 
 298   0.0000       1.143347        31.1120 
 299   0.0000       1.160170        31.5698 
 300   0.0000       1.165776        31.7224 
 301   0.0000       1.176520        32.0147 
 302   0.0000       1.208993        32.8984 
 303   0.0000       1.209164        32.9030 
 304   0.0000       1.228243        33.4222 
 305   0.0000       1.234025        33.5795 
 306   0.0000       1.236457        33.6457 
 307   0.0000       1.246170        33.9100 
 308   0.0000       1.295374        35.2489 
 309   0.0000       1.301594        35.4182 
 310   0.0000       1.314045        35.7570 
 311   0.0000       1.335139        36.3310 
 312   0.0000       1.359172        36.9849 
 313   0.0000       1.368372        37.2353 
 314   0.0000       1.410615        38.3848 
 315   0.0000       1.492218        40.6053 
 316   0.0000       1.527110        41.5548 
 317   0.0000       1.562501        42.5178 
 318   0.0000       1.591709        43.3126 
 319   0.0000       1.675293        45.5870 
 320   0.0000       6.202131       168.7686 
 321   0.0000       6.232040       169.5824 
 322   0.0000       6.251616       170.1151 
 323   0.0000       6.268670       170.5792 
 324   0.0000       6.276725       170.7984 
 325   0.0000       6.290735       171.1796 
 326   0.0000       6.297717       171.3696 
 327   0.0000       6.309859       171.7000 
 328   0.0000       6.320635       171.9932 
 329   0.0000       6.330870       172.2717 
 330   0.0000       6.342005       172.5747 
 331   0.0000       6.351871       172.8432 
 332   0.0000       6.363355       173.1557 
 333   0.0000       6.383921       173.7153 
 334   0.0000       6.385676       173.7631 
 335   0.0000       6.403951       174.2604 
 336   0.0000       6.407601       174.3597 
 337   0.0000       6.416094       174.5908 
 338   0.0000       6.421782       174.7456 
 339   0.0000       6.427579       174.9033 
 340   0.0000       6.433597       175.0671 
 341   0.0000       6.443764       175.3437 
 342   0.0000       6.455635       175.6668 
 343   0.0000       6.464939       175.9199 
 344   0.0000       6.474654       176.1843 
 345   0.0000       6.483371       176.4215 
 346   0.0000       6.486197       176.4984 
 347   0.0000       6.493638       176.7009 
 348   0.0000       6.509197       177.1242 
 349   0.0000       6.513990       177.2547 
 350   0.0000       6.521987       177.4723 
 351   0.0000       6.526774       177.6026 
 352   0.0000       6.539737       177.9553 
 353   0.0000       6.546344       178.1351 
 354   0.0000       6.548341       178.1894 
 355   0.0000       6.556684       178.4165 
 356   0.0000       6.561555       178.5490 
 357   0.0000       6.567775       178.7182 
 358   0.0000       6.570203       178.7843 
 359   0.0000       6.572819       178.8555 
 360   0.0000       6.584454       179.1721 
 361   0.0000       6.585001       179.1870 
 362   0.0000       6.590257       179.3300 
 363   0.0000       6.593452       179.4169 
 364   0.0000       6.598183       179.5457 
 365   0.0000       6.604578       179.7197 
 366   0.0000       6.609728       179.8599 
 367   0.0000       6.611667       179.9126 
 368   0.0000       6.614586       179.9920 
 369   0.0000       6.617158       180.0620 
 370   0.0000       6.623538       180.2356 
 371   0.0000       6.626307       180.3110 
 372   0.0000       6.629083       180.3865 
 373   0.0000       6.634847       180.5434 
 374   0.0000       6.635040       180.5486 
[...]
     69 H        0.000      0.000      0.000      0.000      0.000      0.000
     70 H        0.000      0.000      0.000     -0.000      0.001      0.018
     71 H        0.000      0.000      0.000      0.000      0.001      0.014
     72 H        0.000      0.000      0.000      0.000      0.003      0.035
                 25 H       27 H       28 H       30 H       31 H       33 H  
      3 H        0.075     -0.003      0.002      0.000      0.000      0.088
      4 H        2.350     -0.106      0.061      0.000      0.000      2.594
      8 H        0.124      0.000      0.000      0.000      0.000      0.115
      9 H       -0.262      0.014      0.000      0.000      0.000     -0.307
     10 H        0.000      0.000      0.000      0.000      0.000      0.000
     11 H        0.000      0.000      0.000      0.000      0.000      0.000
     13 H       -0.038      0.000      0.000      0.000      0.000      0.000
     16 H       -0.264      0.013     -0.004     -0.030     -0.002     -0.303
     17 H       -0.241      0.012      0.000      0.000      0.000     -0.296
     19 H        0.921     -0.044      0.069      0.063      0.005      0.977
     21 H       -2.884      0.184      0.679     -0.225     -0.028     -2.415
     24 H      -13.528      4.390      2.301      0.656     -0.503     -0.151
     25 H        0.000     12.953      5.308     -0.650     -0.361     -2.214
     27 H       12.953      0.000    -13.654      4.019     13.019      0.064
     28 H        5.308    -13.654      0.000      2.609      4.145      0.285
     30 H       -0.650      4.019      2.609      0.000    -13.033      0.036
     31 H       -0.361     13.019      4.145    -13.033      0.000     -0.318
     33 H       -2.214      0.064      0.285      0.036     -0.318      0.000
     35 H       -0.027      0.001     -0.001      0.000     -0.000     -0.035
     37 H        0.274      0.006     -0.035      0.538     -0.039      6.158
     38 H        0.183      0.002     -0.029     -0.021      0.120     12.278
     40 H       -0.014      0.022      0.137     -0.001     -0.038     -0.247
     41 H        0.009      0.019     -0.029      0.011      0.091     -0.389
     42 H       -0.019      0.006     -0.005     -0.262     -0.391     -0.205
     45 H       -0.060     -0.120     -0.147     -0.150      1.825     -0.475
     46 H       -0.013     -0.216      0.014     -0.200     -0.471     -0.186
     47 H        0.016      0.039      0.061     -0.311      0.038      0.871
     48 H       -0.014      0.031      0.022      0.036      0.017      0.001
     52 H       -0.002     -0.000      0.010     -0.010      0.002      0.017
     53 H       -0.000      0.000     -0.001      0.000     -0.001     -0.003
     57 H        0.000      0.000      0.000     -0.005     -0.001     -0.000
     58 H        0.000      0.000      0.000     -0.000      0.000      0.000
     61 H        0.000      0.000      0.000      0.000      0.000     -0.000
     62 H        0.000      0.000      0.000      0.000      0.000     -0.000
     63 H        0.000      0.000      0.000      0.000      0.000     -0.000
     64 H        0.000      0.000      0.000      0.000      0.000      0.000
     65 H        0.000      0.000      0.000      0.000      0.000      0.000
     66 H        0.000      0.000      0.000      0.000      0.000      0.000
     67 H        0.000      0.000      0.000     -0.000      0.000     -0.000
     68 H        0.000      0.000      0.000      0.000      0.000      0.000
     69 H        0.000      0.000      0.000      0.000      0.000      0.000
     70 H        0.003     -0.003     -0.007     -0.454     -0.100      0.004
     71 H       -0.000     -0.004     -0.005      0.039     -0.000      0.002
     72 H        0.000     -0.008     -0.010      0.051     -0.060      0.007
                 35 H       37 H       38 H       40 H       41 H       42 H  
      3 H       -0.265     -0.001     -0.001      0.000      0.000      0.000
      4 H       -0.641     -0.045     -0.019      0.000      0.000      0.000
      8 H       -0.031     -0.002     -0.002      0.000     -0.000      0.000
      9 H       -0.152      0.005      0.002      0.000      0.001      0.000
     10 H       -0.402     -0.000     -0.000      0.000      0.000      0.000
     11 H       -0.144     -0.002     -0.000      0.000      0.000      0.000
     13 H       12.493      0.000      0.000      0.000      0.000      0.000
     16 H       -0.003      0.004      0.004      0.000      0.001     -0.001
     17 H       -0.001      0.005      0.004     -0.001      0.001      0.000
     19 H        0.044     -0.011      0.085      0.013     -0.006      0.004
     21 H       -0.015      0.050     -0.543     -0.010      0.062     -0.025
     24 H       -0.001     -0.051     -0.080     -0.022      0.074     -0.024
     25 H       -0.027      0.274      0.183     -0.014      0.009     -0.019
     27 H        0.001      0.006      0.002      0.022      0.019      0.006
     28 H       -0.001     -0.035     -0.029      0.137     -0.029     -0.005
     30 H        0.000      0.538     -0.021     -0.001      0.011     -0.262
     31 H       -0.000     -0.039      0.120     -0.038      0.091     -0.391
     33 H       -0.035      6.158     12.278     -0.247     -0.389     -0.205
     35 H        0.000      0.000     -0.000      0.000      0.000      0.000
     37 H        0.000      0.000    -12.116      9.435      2.183     -0.247
     38 H       -0.000    -12.116      0.000      7.353     11.210     -0.458
     40 H        0.000      9.435      7.353      0.000    -13.984      9.753
     41 H        0.000      2.183     11.210    -13.984      0.000      7.997
     42 H        0.000     -0.247     -0.458      9.753      7.997      0.000
     45 H       -0.000      0.081     -0.094     -0.105     -0.026     -0.106
     46 H        0.000      0.056      0.034     -0.073      0.019      0.962
     47 H        0.000     -0.158      0.003      0.039      0.032     -0.398
     48 H        0.000      0.135      0.005     -0.153     -0.448     10.709
     52 H        0.000     -0.007     -0.001     -0.028      0.078     -0.577
     53 H        0.000      0.009      0.017     -0.203     -0.031     -0.467
     57 H        0.000     -0.005     -0.010      0.011      0.030     -0.039
     58 H        0.000     -0.000     -0.000      0.002      0.000      0.001
     61 H        0.000      0.001      0.001     -0.012     -0.003     -0.000
     62 H        0.000      0.002      0.002     -0.003     -0.002      0.011
     63 H        0.000      0.001      0.002     -0.004     -0.002      0.001
     64 H        0.000      0.000      0.000      0.000      0.000      0.001
     65 H        0.000      0.000      0.000      0.000     -0.000     -0.002
     66 H        0.000      0.000      0.000     -0.001     -0.000      0.001
     67 H        0.000     -0.000     -0.000     -0.002     -0.001     -0.000
     68 H        0.000      0.000      0.000     -0.001     -0.001     -0.002
     69 H        0.000     -0.000     -0.000      0.002     -0.000      0.000
     70 H        0.000     -0.017     -0.002      0.033     -0.003     -0.164
     71 H        0.000     -0.025      0.030     -0.002     -0.070     -0.349
     72 H        0.000      0.063      0.009     -0.041     -0.013     -0.447
                 45 H       46 H       47 H       48 H       52 H       53 H  
      3 H        0.001     -0.000     -0.001      0.000      0.000      0.000
      4 H        0.026     -0.019      0.000      0.000      0.000      0.000
      8 H        0.001     -0.001      0.000      0.000      0.000      0.000
      9 H       -0.003      0.003      0.000      0.000      0.000      0.000
     10 H        0.000     -0.000      0.000      0.000      0.000      0.000
     11 H        0.000      0.000      0.000      0.000      0.000      0.000
     13 H        0.000      0.000      0.000      0.000      0.000      0.000
     16 H       -0.003      0.001      0.002     -0.002      0.000      0.000
     17 H       -0.003      0.000      0.001     -0.002      0.000      0.000
     19 H        0.010     -0.011     -0.008      0.005      0.000      0.000
     21 H       -0.017      0.046      0.016     -0.015      0.001     -0.000
     24 H       -0.022     -0.022     -0.015      0.003      0.000     -0.000
     25 H       -0.060     -0.013      0.016     -0.014     -0.002     -0.000
     27 H       -0.120     -0.216      0.039      0.031     -0.000      0.000
     28 H       -0.147      0.014      0.061      0.022      0.010     -0.001
     30 H       -0.150     -0.200     -0.311      0.036     -0.010      0.000
     31 H        1.825     -0.471      0.038      0.017      0.002     -0.001
     33 H       -0.475     -0.186      0.871      0.001      0.017     -0.003
     35 H       -0.000      0.000      0.000      0.000      0.000      0.000
     37 H        0.081      0.056     -0.158      0.135     -0.007      0.009
     38 H       -0.094      0.034      0.003      0.005     -0.001      0.017
     40 H       -0.105     -0.073      0.039     -0.153     -0.028     -0.203
     41 H       -0.026      0.019      0.032     -0.448      0.078     -0.031
     42 H       -0.106      0.962     -0.398     10.709     -0.577     -0.467
     45 H        0.000    -13.629    -13.078     -0.229      0.015      0.000
     46 H      -13.629      0.000    -13.010     -0.147      0.012      0.002
     47 H      -13.078    -13.010      0.000     -0.057      0.010     -0.004
     48 H       -0.229     -0.147     -0.057      0.000      6.097     -1.928
     52 H        0.015      0.012      0.010      6.097      0.000     17.685
     53 H        0.000      0.002     -0.004     -1.928     17.685      0.000
     57 H        0.003      0.000      0.002      1.941     -3.235      3.513
     58 H        0.000      0.000      0.000      0.023     -0.583     -0.492
     61 H       -0.000      0.000     -0.000     -0.095      0.154     -0.231
     62 H        0.000      0.000      0.000      0.379     -0.186      0.150
     63 H       -0.000      0.000     -0.000     -0.048      0.050     -0.286
     64 H        0.000      0.000      0.000      0.002     -0.005      0.033
     65 H        0.000      0.000      0.000      0.001      0.058      0.070
     66 H        0.000      0.000      0.000     -0.012      0.082      0.760
     67 H       -0.000     -0.000     -0.000     -0.002     -0.131      0.089
     68 H       -0.000      0.000     -0.000     -0.005      0.034      0.183
     69 H        0.000      0.000      0.000     -0.000     -0.012      0.007
     70 H       -0.025     -0.077     -0.316      5.443     -0.040     -0.387
     71 H        0.024     -0.038     -0.059     12.453     -0.240      0.140
     72 H       -0.011     -0.029     -0.017      1.957     -0.208     -0.044
                 57 H       58 H       61 H       62 H       63 H       64 H  
      3 H        0.000      0.000      0.000      0.000      0.000      0.000
      4 H        0.000      0.000      0.000      0.000      0.000      0.000
      8 H        0.000      0.000      0.000      0.000      0.000      0.000
      9 H        0.000      0.000      0.000      0.000      0.000      0.000
     10 H        0.000      0.000      0.000      0.000      0.000      0.000
     11 H        0.000      0.000      0.000      0.000      0.000      0.000
     13 H        0.000      0.000      0.000      0.000      0.000      0.000
     16 H        0.000      0.000      0.000      0.000      0.000      0.000
     17 H        0.000      0.000      0.000      0.000      0.000      0.000
     19 H        0.000      0.000      0.000      0.000      0.000      0.000
     21 H        0.000      0.000      0.000      0.000      0.000      0.000
     24 H        0.000      0.000      0.000      0.000      0.000      0.000
     25 H        0.000      0.000      0.000      0.000      0.000      0.000
     27 H        0.000      0.000      0.000      0.000      0.000      0.000
     28 H        0.000      0.000      0.000      0.000      0.000      0.000
     30 H       -0.005     -0.000      0.000      0.000      0.000      0.000
     31 H       -0.001      0.000      0.000      0.000      0.000      0.000
     33 H       -0.000      0.000     -0.000     -0.000     -0.000      0.000
     35 H        0.000      0.000      0.000      0.000      0.000      0.000
     37 H       -0.005     -0.000      0.001      0.002      0.001      0.000
     38 H       -0.010     -0.000      0.001      0.002      0.002      0.000
     40 H        0.011      0.002     -0.012     -0.003     -0.004      0.000
     41 H        0.030      0.000     -0.003     -0.002     -0.002      0.000
     42 H       -0.039      0.001     -0.000      0.011      0.001      0.001
     45 H        0.003      0.000     -0.000      0.000     -0.000      0.000
     46 H        0.000      0.000      0.000      0.000      0.000      0.000
     47 H        0.002      0.000     -0.000      0.000     -0.000      0.000
     48 H        1.941      0.023     -0.095      0.379     -0.048      0.002
     52 H       -3.235     -0.583      0.154     -0.186      0.050     -0.005
     53 H        3.513     -0.492     -0.231      0.150     -0.286      0.033
     57 H        0.000      1.846     13.800      3.482      4.224     -0.387
     58 H        1.846      0.000     -0.529     -0.466      0.564      3.175
     61 H       13.800     -0.529      0.000    -12.063    -12.769     -0.000
     62 H        3.482     -0.466    -12.063      0.000    -13.224      0.030
     63 H        4.224      0.564    -12.769    -13.224      0.000      0.042
     64 H       -0.387      3.175     -0.000      0.030      0.042      0.000
     65 H       -0.298     12.867      0.062     -0.314     -0.082    -11.982
     66 H        0.013      3.877      0.052     -0.111     -0.022    -12.646
     67 H       -0.438      2.180     -0.066      0.049     -0.022      2.828
     68 H        0.563      4.909     -0.043     -0.034     -0.145     -0.192
     69 H       -0.485     12.938     -0.012     -0.047      0.006     -0.125
     70 H        0.997     -0.010     -0.023     -0.011     -0.010      0.002
     71 H       -0.191      0.001      0.005     -0.007      0.002     -0.000
     72 H        0.081     -0.001     -0.002     -0.005     -0.001     -0.000
                 65 H       66 H       67 H       68 H       69 H       70 H  
      3 H        0.000      0.000      0.000      0.000      0.000      0.000
      4 H        0.000      0.000      0.000      0.000      0.000      0.000
      8 H        0.000      0.000      0.000      0.000      0.000      0.000
      9 H        0.000      0.000      0.000      0.000      0.000      0.000
     10 H        0.000      0.000      0.000      0.000      0.000      0.000
     11 H        0.000      0.000      0.000      0.000      0.000      0.000
     13 H        0.000      0.000      0.000      0.000      0.000      0.000
     16 H        0.000      0.000      0.000      0.000      0.000      0.000
     17 H        0.000      0.000      0.000      0.000      0.000      0.000
     19 H        0.000      0.000      0.000      0.000      0.000     -0.000
     21 H        0.000      0.000      0.000      0.000      0.000      0.001
     24 H        0.000      0.000      0.000      0.000      0.000      0.018
     25 H        0.000      0.000      0.000      0.000      0.000      0.003
     27 H        0.000      0.000      0.000      0.000      0.000     -0.003
     28 H        0.000      0.000      0.000      0.000      0.000     -0.007
     30 H        0.000      0.000     -0.000      0.000      0.000     -0.454
     31 H        0.000      0.000      0.000      0.000      0.000     -0.100
     33 H        0.000      0.000     -0.000      0.000      0.000      0.004
     35 H        0.000      0.000      0.000      0.000      0.000      0.000
     37 H        0.000      0.000     -0.000      0.000     -0.000     -0.017
     38 H        0.000      0.000     -0.000      0.000     -0.000     -0.002
     40 H        0.000     -0.001     -0.002     -0.001      0.002      0.033
     41 H       -0.000     -0.000     -0.001     -0.001     -0.000     -0.003
     42 H       -0.002      0.001     -0.000     -0.002      0.000     -0.164
     45 H        0.000      0.000     -0.000     -0.000      0.000     -0.025
     46 H        0.000      0.000     -0.000      0.000      0.000     -0.077
     47 H        0.000      0.000     -0.000     -0.000      0.000     -0.316
     48 H        0.001     -0.012     -0.002     -0.005     -0.000      5.443
     52 H        0.058      0.082     -0.131      0.034     -0.012     -0.040
     53 H        0.070      0.760      0.089      0.183      0.007     -0.387
     57 H       -0.298      0.013     -0.438      0.563     -0.485      0.997
     58 H       12.867      3.877      2.180      4.909     12.938     -0.010
     61 H        0.062      0.052     -0.066     -0.043     -0.012     -0.023
     62 H       -0.314     -0.111      0.049     -0.034     -0.047     -0.011
     63 H       -0.082     -0.022     -0.022     -0.145      0.006     -0.010
     64 H      -11.982    -12.646      2.828     -0.192     -0.125      0.002
     65 H        0.000    -12.949     -0.307     -0.216     -0.329      0.000
     66 H      -12.949      0.000     -0.031     -0.212     -0.205      0.001
     67 H       -0.307     -0.031      0.000    -12.614    -12.535     -0.005
     68 H       -0.216     -0.212    -12.614      0.000    -12.872     -0.004
     69 H       -0.329     -0.205    -12.535    -12.872      0.000     -0.002
     70 H        0.000      0.001     -0.005     -0.004     -0.002      0.000
     71 H       -0.000      0.000      0.001      0.000     -0.000    -11.516
     72 H        0.001      0.000     -0.000     -0.000     -0.001    -13.443
                 71 H       72 H  
      3 H        0.000      0.000
      4 H        0.000      0.000
      8 H        0.000      0.000
      9 H        0.000      0.000
     10 H        0.000      0.000
     11 H        0.000      0.000
     13 H        0.000      0.000
     16 H        0.000      0.000
     17 H        0.000      0.000
     19 H        0.000      0.000
     21 H        0.001      0.003
     24 H        0.014      0.035
     25 H       -0.000      0.000
     27 H       -0.004     -0.008
     28 H       -0.005     -0.010
     30 H        0.039      0.051
     31 H       -0.000     -0.060
     33 H        0.002      0.007
     35 H        0.000      0.000
     37 H       -0.025      0.063
     38 H        0.030      0.009
     40 H       -0.002     -0.041
     41 H       -0.070     -0.013
     42 H       -0.349     -0.447
     45 H        0.024     -0.011
     46 H       -0.038     -0.029
     47 H       -0.059     -0.017
     48 H       12.453      1.957
     52 H       -0.240     -0.208
     53 H        0.140     -0.044
     57 H       -0.191      0.081
     58 H        0.001     -0.001
     61 H        0.005     -0.002
     62 H       -0.007     -0.005
     63 H        0.002     -0.001
     64 H       -0.000     -0.000
     65 H       -0.000      0.001
     66 H        0.000      0.000
     67 H        0.001     -0.000
     68 H        0.000     -0.000
     69 H       -0.000     -0.001
     70 H      -11.516    -13.443
     71 H        0.000    -13.101
     72 H      -13.101      0.000

Maximum memory used throughout the entire EPRNMR-calculation: 987.3 MB

Timings for individual modules:

Sum of individual times         ...      396.440 sec (=   6.607 min)
GTO integral calculation        ...        0.578 sec (=   0.010 min)   0.1 %
SCF iterations                  ...      104.804 sec (=   1.747 min)  26.4 %
EPR/NMR calculation             ...      291.058 sec (=   4.851 min)  73.4 %
                             ****ORCA TERMINATED NORMALLY****
TOTAL RUN TIME: 0 days 0 hours 6 minutes 36 seconds 893 msec
