
                                 *****************
                                 * O   R   C   A *
                                 *****************

                                            #,                                       
                                            ###                                      
                                            ####                                     
                                            #####                                    
                                            ######                                   
                                           ########,                                 
                                     ,,################,,,,,                         
                               ,,#################################,,                 
                          ,,##########################################,,             
                       ,#########################################, ''#####,          
                    ,#############################################,,   '####,        
                  ,##################################################,,,,####,       
                ,###########''''           ''''###############################       
              ,#####''   ,,,,##########,,,,          '''####'''          '####       
            ,##' ,,,,###########################,,,                        '##       
           ' ,,###''''                  '''############,,,                           
         ,,##''                                '''############,,,,        ,,,,,,###''
      ,#''                                            '''#######################'''  
     '                                                          ''''####''''         
             ,#######,   #######,   ,#######,      ##                                
            ,#'     '#,  ##    ##  ,#'     '#,    #''#        ######   ,####,        
            ##       ##  ##   ,#'  ##            #'  '#       #        #'  '#        
            ##       ##  #######   ##           ,######,      #####,   #    #        
            '#,     ,#'  ##    ##  '#,     ,#' ,#      #,         ##   #,  ,#        
             '#######'   ##     ##  '#######'  #'      '#     #####' # '####'        



                  #######################################################
                  #                        -***-                        #
                  #          Department of theory and spectroscopy      #
                  #    Directorship and core code : Frank Neese         #
                  #        Max Planck Institute fuer Kohlenforschung    #
                  #                Kaiser Wilhelm Platz 1               #
                  #                 D-45470 Muelheim/Ruhr               #
                  #                      Germany                        #
                  #                                                     #
                  #                  All rights reserved                #
                  #                        -***-                        #
                  #######################################################


                         Program Version 5.0.2 -  RELEASE  -


 With contributions from (in alphabetic order):
   Daniel Aravena         : Magnetic Suceptibility
   Michael Atanasov       : Ab Initio Ligand Field Theory (pilot matlab implementation)
   Alexander A. Auer      : GIAO ZORA, VPT2 properties, NMR spectrum
   Ute Becker             : Parallelization
   Giovanni Bistoni       : ED, misc. LED, open-shell LED, HFLD
   Martin Brehm           : Molecular dynamics
   Dmytro Bykov           : SCF Hessian
   Vijay G. Chilkuri      : MRCI spin determinant printing, contributions to CSF-ICE
   Dipayan Datta          : RHF DLPNO-CCSD density
   Achintya Kumar Dutta   : EOM-CC, STEOM-CC
   Dmitry Ganyushin       : Spin-Orbit,Spin-Spin,Magnetic field MRCI
   Miquel Garcia          : C-PCM and meta-GGA Hessian, CC/C-PCM, Gaussian charge scheme
   Yang Guo               : DLPNO-NEVPT2, F12-NEVPT2, CIM, IAO-localization
   Andreas Hansen         : Spin unrestricted coupled pair/coupled cluster methods
   Benjamin Helmich-Paris : MC-RPA, TRAH-SCF, COSX integrals
   Lee Huntington         : MR-EOM, pCC
   Robert Izsak           : Overlap fitted RIJCOSX, COSX-SCS-MP3, EOM
   Marcus Kettner         : VPT2
   Christian Kollmar      : KDIIS, OOCD, Brueckner-CCSD(T), CCSD density, CASPT2, CASPT2-K
   Simone Kossmann        : Meta GGA functionals, TD-DFT gradient, OOMP2, MP2 Hessian
   Martin Krupicka        : Initial AUTO-CI
   Lucas Lang             : DCDCAS
   Marvin Lechner         : AUTO-CI (C++ implementation), FIC-MRCC
   Dagmar Lenk            : GEPOL surface, SMD
   Dimitrios Liakos       : Extrapolation schemes; Compound Job, initial MDCI parallelization
   Dimitrios Manganas     : Further ROCIS development; embedding schemes
   Dimitrios Pantazis     : SARC Basis sets
   Anastasios Papadopoulos: AUTO-CI, single reference methods and gradients
   Taras Petrenko         : DFT Hessian,TD-DFT gradient, ASA, ECA, R-Raman, ABS, FL, XAS/XES, NRVS
   Peter Pinski           : DLPNO-MP2, DLPNO-MP2 Gradient
   Christoph Reimann      : Effective Core Potentials
   Marius Retegan         : Local ZFS, SOC
   Christoph Riplinger    : Optimizer, TS searches, QM/MM, DLPNO-CCSD(T), (RO)-DLPNO pert. Triples
   Tobias Risthaus        : Range-separated hybrids, TD-DFT gradient, RPA, STAB
   Michael Roemelt        : Original ROCIS implementation
   Masaaki Saitow         : Open-shell DLPNO-CCSD energy and density
   Barbara Sandhoefer     : DKH picture change effects
   Avijit Sen             : IP-ROCIS
   Kantharuban Sivalingam : CASSCF convergence, NEVPT2, FIC-MRCI
   Bernardo de Souza      : ESD, SOC TD-DFT
   Georgi Stoychev        : AutoAux, RI-MP2 NMR, DLPNO-MP2 response
   Willem Van den Heuvel  : Paramagnetic NMR
   Boris Wezisla          : Elementary symmetry handling
   Frank Wennmohs         : Technical directorship


 We gratefully acknowledge several colleagues who have allowed us to
 interface, adapt or use parts of their codes:
   Stefan Grimme, W. Hujo, H. Kruse, P. Pracht,  : VdW corrections, initial TS optimization,
                  C. Bannwarth, S. Ehlert          DFT functionals, gCP, sTDA/sTD-DF
   Ed Valeev, F. Pavosevic, A. Kumar             : LibInt (2-el integral package), F12 methods
   Garnet Chan, S. Sharma, J. Yang, R. Olivares  : DMRG
   Ulf Ekstrom                                   : XCFun DFT Library
   Mihaly Kallay                                 : mrcc  (arbitrary order and MRCC methods)
   Jiri Pittner, Ondrej Demel                    : Mk-CCSD
   Frank Weinhold                                : gennbo (NPA and NBO analysis)
   Christopher J. Cramer and Donald G. Truhlar   : smd solvation model
   Lars Goerigk                                  : TD-DFT with DH, B97 family of functionals
   V. Asgeirsson, H. Jonsson                     : NEB implementation
   FAccTs GmbH                                   : IRC, NEB, NEB-TS, DLPNO-Multilevel, CI-OPT
                                                   MM, QMMM, 2- and 3-layer-ONIOM, Crystal-QMMM,
                                                   LR-CPCM, SF, NACMEs, symmetry and pop. for TD-DFT,
                                                   nearIR, NL-DFT gradient (VV10), updates on ESD,
                                                   ML-optimized integration grids
   S Lehtola, MJT Oliveira, MAL Marques          : LibXC Library
   Liviu Ungur et al                             : ANISO software


 Your calculation uses the libint2 library for the computation of 2-el integrals
 For citations please refer to: http://libint.valeyev.net

 Your ORCA version has been built with support for libXC version: 5.1.0
 For citations please refer to: https://tddft.org/programs/libxc/

 This ORCA versions uses:
   CBLAS   interface :  Fast vector & matrix operations
   LAPACKE interface :  Fast linear algebra routines
   SCALAPACK package :  Parallel linear algebra routines
   Shared memory     :  Shared parallel matrices
   BLAS/LAPACK       :  OpenBLAS 0.3.15  USE64BITINT DYNAMIC_ARCH NO_AFFINITY Zen SINGLE_THREADED
        Core in use  :  Zen
   Copyright (c) 2011-2014, The OpenBLAS Project


Your calculation utilizes the atom-pairwise dispersion correction
based on tight binding partial charges (D4)
Cite in your paper:
E.Caldeweyher, C.Bannwarth, S.Grimme, J.Chem.Phys., (2017), 147, 034112.
E.Caldeweyher, S.Ehlert, A.Hansen, H.Neugebauer, S.Grimme, J.Chem.Phys., (2018), in progress.
   

================================================================================

----- Orbital basis set information -----
Your calculation utilizes the basis: pcJ-0
   F. Jensen, Theor. Chem. Acc. 126, 371 (2010).

----- AuxJ basis set information -----
Your calculation utilizes the auxiliary basis: def2/J
   F. Weigend, Phys. Chem. Chem. Phys. 8, 1057 (2006).

================================================================================
                                        WARNINGS
                       Please study these warnings very carefully!
================================================================================


INFO   : the flag for use of the SHARK integral package has been found!

================================================================================
                                       INPUT FILE
================================================================================
NAME = inpJ
|  1> ! pbe0
|  2> ! D4
|  3> ! pcJ-0
|  4> ! def2/J RIJCOSX
|  5> ! DEFGRID2
|  6> ! scfconv7
|  7> ! smallprint printgap noloewdin
|  8> ! NOSOSCF
|  9> %MaxCore 4000
| 10> %output
| 11>        print[P_BondOrder_M] 1
| 12>        print[P_Mayer] 1
| 13>        print[P_basis] 2
| 14> end
| 15> %pal
| 16>     nprocs 4
| 17> end
| 18> ! CPCM(chloroform)
| 19> *xyz 0 1
| 20> C   -5.1923445600   0.0870798100  -0.5682693100
| 21> C   -6.6229940800  -0.3888938300  -0.6599190300
| 22> C   -7.5620389400   0.5946777100   0.0501888900
| 23> H   -6.7280225300  -1.3888898900  -0.2241517000
| 24> H   -6.9307862900  -0.4447371100  -1.7146631300
| 25> C   -4.9871579100   1.4713977900  -1.0490791600
| 26> C   -5.9531898800   2.4836589600  -0.4743450200
| 27> C   -7.4064234900   1.9951414400  -0.5453899700
| 28> H   -5.8444661000   3.4446830600  -0.9881937600
| 29> H   -5.6900328100   2.6521222400   0.5810625400
| 30> H   -7.7332528100   1.9623615900  -1.5935923800
| 31> H   -8.0647353600   2.6936357700  -0.0158179900
| 32> O   -7.3234689400   0.5900643000   1.4677171800
| 33> H   -8.6001025500   0.2601671200  -0.0677862600
| 34> C   -4.2262779400  -0.6916843600  -0.0253967100
| 35> C   -4.0529981700   1.8015715500  -1.9477325300
| 36> H   -3.3796082100   1.0562112500  -2.3624572900
| 37> H   -3.9488991000   2.8267415900  -2.2954417400
| 38> C   -2.8544965600  -0.3043990300   0.2109637400
| 39> H   -4.5295487200  -1.6894885400   0.2894699800
| 40> C   -1.8571959900  -1.1038940900   0.6452527700
| 41> H   -2.6198119700   0.7414585200   0.0257269900
| 42> C   -1.9713695600  -2.5811006000   0.9244402200
| 43> C   -0.9220884200  -3.3895159200   0.1360148600
| 44> H   -2.9714823500  -2.9669813200   0.7089139000
| 45> H   -1.7880514800  -2.7386975300   1.9991964200
| 46> C    0.5005818100  -2.8419255400   0.3133201100
| 47> H   -1.1914477300  -3.3842631500  -0.9277172000
| 48> H   -0.9561614800  -4.4364300800   0.4615128100
| 49> C    0.5823741600  -1.3463773600  -0.0236094200
| 50> H    1.1875468100  -3.4281267500  -0.3060125100
| 51> H    0.8136746200  -2.9803754800   1.3591925200
| 52> C   -0.4625060400  -0.6080164900   0.8721352500
| 53> H   -0.1929996900  -0.8938788400   1.9059030500
| 54> C   -0.1126793900   0.8665316600   0.7044099300
| 55> H   -6.3652486600   0.5775949200   1.6030406400
| 56> C    1.4332565100   0.8616810700   0.6316350200
| 57> H   -0.4964697100   1.4795380400   1.5267763800
| 58> H   -0.5405885800   1.2651901500  -0.2223322900
| 59> C    1.8826588600  -0.6191101200   0.4251104400
| 60> H    1.8736088800   1.2778603400   1.5418860600
| 61> H    1.7933632700   1.4836549000  -0.1967320400
| 62> H    2.1467627100  -1.0497627400   1.4037459600
| 63> C    3.1143040200  -0.7187117900  -0.4859791000
| 64> C    0.2922622700  -1.0991782500  -1.5110031800
| 65> H    0.4758825200  -0.0571253100  -1.7919141200
| 66> H   -0.7504752000  -1.3230745300  -1.7563842900
| 67> H    0.9287011400  -1.7291895100  -2.1415855400
| 68> H    2.8476395900  -0.2583156600  -1.4502860900
| 69> C    3.5710493500  -2.1604855500  -0.7755600300
| 70> C    4.3113523400   0.0431272300   0.0388434000
| 71> C    4.5739714600   0.3785308400   1.3016028200
| 72> H    5.0632820500   0.2810158700  -0.7191400200
| 73> H    3.8567108100   0.1336087900   2.0867832500
| 74> C    5.8272741700   1.0738409000   1.7550318900
| 75> C    6.5963306700   0.1907834100   2.7485888700
| 76> C    5.5480624900   2.4871947900   2.3335895800
| 77> H    6.4655665900   1.2222334200   0.8709990700
| 78> H    6.5273390200   2.8876330900   2.6386873900
| 79> C    4.6415949000   2.4761851600   3.5673117100
| 80> C    4.9724247000   3.4136604200   1.2613406700
| 81> H    5.9733111500  -0.0863254200   3.6060853500
| 82> H    7.4840688100   0.7109905200   3.1275350100
| 83> H    6.9207846100  -0.7360068200   2.2639508100
| 84> H    5.0332070500   1.8354720400   4.3637685500
| 85> H    3.6340201000   2.1269607400   3.3124739900
| 86> H    4.5445159300   3.4892881600   3.9730888400
| 87> H    5.6214121500   3.4534666800   0.3786426700
| 88> H    4.8584615200   4.4330056100   1.6469682800
| 89> H    3.9861025300   3.0615506800   0.9360074700
| 90> H    2.8507605200  -2.7042996100  -1.3922739300
| 91> H    3.7124837700  -2.7106339200   0.1622085100
| 92> H    4.5284896200  -2.1560208000  -1.3085780500
| 93> *
| 94> %eprnmr
| 95>  Nuclei = all H { ssfc }
| 96>  SpinSpinRThresh 8.0
| 97> end
| 98> 
| 99>                          ****END OF INPUT****
================================================================================

                       ****************************
                       * Single Point Calculation *
                       ****************************

---------------------------------
CARTESIAN COORDINATES (ANGSTROEM)
---------------------------------
  C     -5.192345    0.087080   -0.568269
  C     -6.622994   -0.388894   -0.659919
  C     -7.562039    0.594678    0.050189
  H     -6.728023   -1.388890   -0.224152
  H     -6.930786   -0.444737   -1.714663
  C     -4.987158    1.471398   -1.049079
  C     -5.953190    2.483659   -0.474345
  C     -7.406423    1.995141   -0.545390
  H     -5.844466    3.444683   -0.988194
  H     -5.690033    2.652122    0.581063
  H     -7.733253    1.962362   -1.593592
  H     -8.064735    2.693636   -0.015818
  O     -7.323469    0.590064    1.467717
  H     -8.600103    0.260167   -0.067786
  C     -4.226278   -0.691684   -0.025397
  C     -4.052998    1.801572   -1.947733
  H     -3.379608    1.056211   -2.362457
  H     -3.948899    2.826742   -2.295442
  C     -2.854497   -0.304399    0.210964
  H     -4.529549   -1.689489    0.289470
  C     -1.857196   -1.103894    0.645253
  H     -2.619812    0.741459    0.025727
  C     -1.971370   -2.581101    0.924440
  C     -0.922088   -3.389516    0.136015
  H     -2.971482   -2.966981    0.708914
  H     -1.788051   -2.738698    1.999196
  C      0.500582   -2.841926    0.313320
  H     -1.191448   -3.384263   -0.927717
  H     -0.956161   -4.436430    0.461513
  C      0.582374   -1.346377   -0.023609
  H      1.187547   -3.428127   -0.306013
  H      0.813675   -2.980375    1.359193
  C     -0.462506   -0.608016    0.872135
  H     -0.193000   -0.893879    1.905903
  C     -0.112679    0.866532    0.704410
  H     -6.365249    0.577595    1.603041
  C      1.433257    0.861681    0.631635
  H     -0.496470    1.479538    1.526776
  H     -0.540589    1.265190   -0.222332
  C      1.882659   -0.619110    0.425110
  H      1.873609    1.277860    1.541886
  H      1.793363    1.483655   -0.196732
  H      2.146763   -1.049763    1.403746
  C      3.114304   -0.718712   -0.485979
  C      0.292262   -1.099178   -1.511003
  H      0.475883   -0.057125   -1.791914
  H     -0.750475   -1.323075   -1.756384
  H      0.928701   -1.729190   -2.141586
  H      2.847640   -0.258316   -1.450286
  C      3.571049   -2.160486   -0.775560
  C      4.311352    0.043127    0.038843
  C      4.573971    0.378531    1.301603
  H      5.063282    0.281016   -0.719140
  H      3.856711    0.133609    2.086783
  C      5.827274    1.073841    1.755032
  C      6.596331    0.190783    2.748589
  C      5.548062    2.487195    2.333590
  H      6.465567    1.222233    0.870999
  H      6.527339    2.887633    2.638687
  C      4.641595    2.476185    3.567312
  C      4.972425    3.413660    1.261341
  H      5.973311   -0.086325    3.606085
  H      7.484069    0.710991    3.127535
  H      6.920785   -0.736007    2.263951
  H      5.033207    1.835472    4.363769
  H      3.634020    2.126961    3.312474
  H      4.544516    3.489288    3.973089
  H      5.621412    3.453467    0.378643
  H      4.858462    4.433006    1.646968
  H      3.986103    3.061551    0.936007
  H      2.850761   -2.704300   -1.392274
  H      3.712484   -2.710634    0.162209
  H      4.528490   -2.156021   -1.308578

----------------------------
CARTESIAN COORDINATES (A.U.)
----------------------------
  NO LB      ZA    FRAG     MASS         X           Y           Z
   0 C     6.0000    0    12.011   -9.812109    0.164557   -1.073873
   1 C     6.0000    0    12.011  -12.515645   -0.734903   -1.247066
   2 C     6.0000    0    12.011  -14.290183    1.123778    0.094843
   3 H     1.0000    0     1.008  -12.714120   -2.624622   -0.423585
   4 H     1.0000    0     1.008  -13.097288   -0.840431   -3.240244
   5 C     6.0000    0    12.011   -9.424363    2.780539   -1.982472
   6 C     6.0000    0    12.011  -11.249898    4.693435   -0.896382
   7 C     6.0000    0    12.011  -13.996112    3.770271   -1.030638
   8 H     1.0000    0     1.008  -11.044440    6.509508   -1.867416
   9 H     1.0000    0     1.008  -10.752604    5.011785    1.098049
  10 H     1.0000    0     1.008  -14.613730    3.708326   -3.011453
  11 H     1.0000    0     1.008  -15.240141    5.090234   -0.029892
  12 O     8.0000    0    15.999  -13.839351    1.115060    2.773584
  13 H     1.0000    0     1.008  -16.251839    0.491645   -0.128097
  14 C     6.0000    0    12.011   -7.986508   -1.307094   -0.047993
  15 C     6.0000    0    12.011   -7.659057    3.404477   -3.680681
  16 H     1.0000    0     1.008   -6.386534    1.995950   -4.464397
  17 H     1.0000    0     1.008   -7.462338    5.341767   -4.337756
  18 C     6.0000    0    12.011   -5.394217   -0.575231    0.398664
  19 H     1.0000    0     1.008   -8.559607   -3.192671    0.547019
  20 C     6.0000    0    12.011   -3.509592   -2.086058    1.219351
  21 H     1.0000    0     1.008   -4.950727    1.401154    0.048617
  22 C     6.0000    0    12.011   -3.725349   -4.877573    1.746939
  23 C     6.0000    0    12.011   -1.742495   -6.405257    0.257031
  24 H     1.0000    0     1.008   -5.615288   -5.606782    1.339653
  25 H     1.0000    0     1.008   -3.378928   -5.175388    3.777934
  26 C     6.0000    0    12.011    0.945963   -5.370461    0.592089
  27 H     1.0000    0     1.008   -2.251510   -6.395331   -1.753131
  28 H     1.0000    0     1.008   -1.806883   -8.383638    0.872133
  29 C     6.0000    0    12.011    1.100528   -2.544284   -0.044615
  30 H     1.0000    0     1.008    2.244138   -6.478221   -0.578280
  31 H     1.0000    0     1.008    1.537622   -5.632093    2.568502
  32 C     6.0000    0    12.011   -0.874010   -1.148985    1.648097
  33 H     1.0000    0     1.008   -0.364717   -1.689186    3.601635
  34 C     6.0000    0    12.011   -0.212933    1.637508    1.331142
  35 H     1.0000    0     1.008  -12.028577    1.091496    3.029308
  36 C     6.0000    0    12.011    2.708462    1.628341    1.193617
  37 H     1.0000    0     1.008   -0.938192    2.795922    2.885189
  38 H     1.0000    0     1.008   -1.021564    2.390863   -0.420147
  39 C     6.0000    0    12.011    3.557710   -1.169949    0.803342
  40 H     1.0000    0     1.008    3.540608    2.414806    2.913742
  41 H     1.0000    0     1.008    3.388965    2.803701   -0.371770
  42 H     1.0000    0     1.008    4.056794   -1.983764    2.652695
  43 C     6.0000    0    12.011    5.885182   -1.358168   -0.918367
  44 C     6.0000    0    12.011    0.552296   -2.077146   -2.855382
  45 H     1.0000    0     1.008    0.899288   -0.107951   -3.386227
  46 H     1.0000    0     1.008   -1.418193   -2.500249   -3.319085
  47 H     1.0000    0     1.008    1.754991   -3.267695   -4.047010
  48 H     1.0000    0     1.008    5.381259   -0.488146   -2.740644
  49 C     6.0000    0    12.011    6.748305   -4.082726   -1.465596
  50 C     6.0000    0    12.011    8.147275    0.081499    0.073403
  51 C     6.0000    0    12.011    8.643553    0.715320    2.459673
  52 H     1.0000    0     1.008    9.568216    0.531043   -1.358978
  53 H     1.0000    0     1.008    7.288127    0.252484    3.943449
  54 C     6.0000    0    12.011   11.011952    2.029265    3.316530
  55 C     6.0000    0    12.011   12.465258    0.360528    5.194080
  56 C     6.0000    0    12.011   10.484319    4.700117    4.409845
  57 H     1.0000    0     1.008   12.218150    2.309686    1.645950
  58 H     1.0000    0     1.008   12.334883    5.456836    4.986397
  59 C     6.0000    0    12.011    8.771343    4.679312    6.741242
  60 C     6.0000    0    12.011    9.396521    6.450883    2.383588
  61 H     1.0000    0     1.008   11.287922   -0.163131    6.814514
  62 H     1.0000    0     1.008   14.142840    1.343577    5.910185
  63 H     1.0000    0     1.008   13.078388   -1.390851    4.278247
  64 H     1.0000    0     1.008    9.511383    3.468539    8.246327
  65 H     1.0000    0     1.008    6.867303    4.019373    6.259669
  66 H     1.0000    0     1.008    8.587891    6.593799    7.508050
  67 H     1.0000    0     1.008   10.622929    6.526106    0.715531
  68 H     1.0000    0     1.008    9.181162    8.377167    3.112319
  69 H     1.0000    0     1.008    7.532642    5.785492    1.768798
  70 H     1.0000    0     1.008    5.387157   -5.110386   -2.631016
  71 H     1.0000    0     1.008    7.015578   -5.122356    0.306530
  72 H     1.0000    0     1.008    8.557605   -4.074289   -2.472854

--------------------------------
INTERNAL COORDINATES (ANGSTROEM)
--------------------------------
 C      0   0   0     0.000000000000     0.00000000     0.00000000
 C      1   0   0     1.510532563776     0.00000000     0.00000000
 C      2   1   0     1.534102826227   110.46486722     0.00000000
 H      2   1   3     1.095863249325   110.74339709   237.85610084
 H      2   1   3     1.100154367779   109.82450204   118.72896131
 C      1   2   3     1.479735092152   113.97895944   306.28542428
 C      6   1   2     1.512682972415   114.45780363    49.58652888
 C      3   2   1     1.529780705135   110.14905140    56.79871993
 H      7   6   1     1.095184326366   110.21497342   188.82993786
 H      7   6   1     1.100689164980   108.30340603    72.12589078
 H      8   3   2     1.098462659951   108.29588440    64.27803414
 H      8   3   2     1.096227772512   109.52104047   181.27483148
 O      3   2   1     1.437471175851   110.65944535   292.77535985
 H      3   2   1     1.096992037002   109.50848864   177.25789565
 C      1   2   3     1.354425710988   121.24427717   123.17946202
 C      6   1   2     1.337627381240   123.09674146   231.49665448
 H     16   6   1     1.086744055241   121.32056415   359.06005916
 H     16   6   1     1.087525596024   120.95275268   178.45523298
 C     15   1   2     1.444866894794   126.06034309   185.22770218
 H     15   1   2     1.089370175881   116.35494565     3.05553528
 C     19  15   1     1.349965828999   126.53216723   186.00906624
 H     19  15   1     1.087753430344   115.76614371     6.68139458
 C     21  19  15     1.507687072807   125.72445526     2.30125387
 C     23  21  19     1.541473577023   111.56644253   125.11569779
 H     23  21  19     1.093426320061   112.24326095     1.55549128
 H     23  21  19     1.101609368260   107.95251653   243.75251996
 C     24  23  21     1.534693115667   112.63110284    51.03043859
 H     24  23  21     1.097318515723   109.03936916   288.95232208
 H     24  23  21     1.096876997334   109.12496474   172.95439466
 C     27  24  23     1.535211990380   111.81571312   306.14073392
 H     27  24  23     1.095045964344   108.97760713   182.62235188
 H     27  24  23     1.100474711913   109.18680683    66.11853709
 C     21  19  15     1.497508033549   122.72911803   180.48922802
 H     33  21  19     1.105905430023   106.43904463   126.57955976
 C     33  21  19     1.524730374423   121.14815253     3.89448974
 H     13   3   2     0.967808880548   107.59260202    42.63077827
 C     35  33  21     1.547655492239   103.37490484   195.46038451
 H     35  33  21     1.095152231305   112.22937806    73.65500732
 H     35  33  21     1.095849446259   110.80902073   313.93628575
 C     30  27  24     1.555958692315   115.88479138   166.60990385
 H     37  35  33     1.093468038108   111.21862496   251.67241873
 H     37  35  33     1.096686058038   111.20676387   133.40330415
 H     40  30  27     1.101335554544   105.89577224   322.09602884
 C     40  30  27     1.535237585104   117.96660610    83.13757989
 C     30  27  24     1.535451889833   111.06133598   294.78343795
 H     45  30  27     1.094761016014   111.72283635   187.50204973
 H     45  30  27     1.094368706006   111.36415187    67.55745831
 H     45  30  27     1.095263774493   110.81295178   307.47561615
 H     44  40  30     1.101345761198   107.35211820    61.72713921
 C     44  40  30     1.539865249469   114.22400051   302.80739504
 C     44  40  30     1.512865502718   113.34300583   179.10394650
 C     51  44  40     1.332676155932   127.68849547    24.18552008
 H     51  44  40     1.093859295712   114.39587397   200.16149139
 H     52  51  44     1.091310202587   119.71828317   357.37911752
 C     52  51  44     1.503270329632   124.50693728   176.48343271
 C     55  52  51     1.535706320669   110.28518569   241.35040895
 C     55  52  51     1.552500364343   112.55315836   115.65664453
 H     55  52  51     1.100432451475   107.67674546   358.80868196
 H     57  55  52     1.101098555072   105.92547938   179.37290936
 C     57  55  52     1.530971912781   113.59347329    61.22443447
 C     57  55  52     1.529514679185   110.96951083   296.31701287
 H     56  55  52     1.095555949816   111.53355434   303.55557719
 H     56  55  52     1.096491960539   110.86886820   183.09209093
 H     56  55  52     1.095027186332   110.40887654    63.01967957
 H     60  57  55     1.094630931479   112.25438609    55.72602489
 H     60  57  55     1.096406373866   111.04516309   294.52664319
 H     60  57  55     1.095653729176   110.13642473   175.67724490
 H     61  57  55     1.096323404747   111.32399445   305.37635975
 H     61  57  55     1.095792350934   110.84867784   184.97423848
 H     61  57  55     1.096656000329   110.60813102    65.16730983
 H     50  44  40     1.093108304300   112.11401007    68.03590861
 H     50  44  40     1.096392611608   110.31804734   306.94487472
 H     50  44  40     1.095819334678   110.29264914   187.99172412

---------------------------
INTERNAL COORDINATES (A.U.)
---------------------------
 C      0   0   0     0.000000000000     0.00000000     0.00000000
 C      1   0   0     2.854492861906     0.00000000     0.00000000
 C      2   1   0     2.899034202843   110.46486722     0.00000000
 H      2   1   3     2.070881421453   110.74339709   237.85610084
 H      2   1   3     2.078990460139   109.82450204   118.72896131
 C      1   2   3     2.796294074920   113.97895944   306.28542428
 C      6   1   2     2.858556545310   114.45780363    49.58652888
 C      3   2   1     2.890866577662   110.14905140    56.79871993
 H      7   6   1     2.069598442995   110.21497342   188.82993786
 H      7   6   1     2.080001080387   108.30340603    72.12589078
 H      8   3   2     2.075793595647   108.29588440    64.27803414
 H      8   3   2     2.071570270446   109.52104047   181.27483148
 O      3   2   1     2.716426847764   110.65944535   292.77535985
 H      3   2   1     2.073014521026   109.50848864   177.25789565
 C      1   2   3     2.559493662508   121.24427717   123.17946202
 C      6   1   2     2.527749419777   123.09674146   231.49665448
 H     16   6   1     2.053648642073   121.32056415   359.06005916
 H     16   6   1     2.055125540115   120.95275268   178.45523298
 C     15   1   2     2.730402731130   126.06034309   185.22770218
 H     15   1   2     2.058611290877   116.35494565     3.05553528
 C     19  15   1     2.551065706960   126.53216723   186.00906624
 H     19  15   1     2.055556084584   115.76614371     6.68139458
 C     21  19  15     2.849115663259   125.72445526     2.30125387
 C     23  21  19     2.912962903250   111.56644253   125.11569779
 H     23  21  19     2.066276292537   112.24326095     1.55549128
 H     23  21  19     2.081740012574   107.95251653   243.75251996
 C     24  23  21     2.900149688224   112.63110284    51.03043859
 H     24  23  21     2.073631476397   109.03936916   288.95232208
 H     24  23  21     2.072797127559   109.12496474   172.95439466
 C     27  24  23     2.901130219330   111.81571312   306.14073392
 H     27  24  23     2.069336976666   108.97760713   182.62235188
 H     27  24  23     2.079595822821   109.18680683    66.11853709
 C     21  19  15     2.829880066755   122.72911803   180.48922802
 H     33  21  19     2.089858392760   106.43904463   126.57955976
 C     33  21  19     2.881322835730   121.14815253     3.89448974
 H     13   3   2     1.828893734212   107.59260202    42.63077827
 C     35  33  21     2.924645029991   103.37490484   195.46038451
 H     35  33  21     2.069537792119   112.22937806    73.65500732
 H     35  33  21     2.070855337439   110.80902073   313.93628575
 C     30  27  24     2.940335804169   115.88479138   166.60990385
 H     37  35  33     2.066355128220   111.21862496   251.67241873
 H     37  35  33     2.072436304582   111.20676387   133.40330415
 H     40  30  27     2.081222579639   105.89577224   322.09602884
 C     40  30  27     2.901178586349   117.96660610    83.13757989
 C     30  27  24     2.901583563596   111.06133598   294.78343795
 H     45  30  27     2.068798502360   111.72283635   187.50204973
 H     45  30  27     2.068057143885   111.36415187    67.55745831
 H     45  30  27     2.069748578197   110.81295178   307.47561615
 H     44  40  30     2.081241867419   107.35211820    61.72713921
 C     44  40  30     2.909923604638   114.22400051   302.80739504
 C     44  40  30     2.858901477595   113.34300583   179.10394650
 C     51  44  40     2.518392959918   127.68849547    24.18552008
 H     51  44  40     2.067094497941   114.39587397   200.16149139
 H     52  51  44     2.062277410043   119.71828317   357.37911752
 C     52  51  44     2.840769228254   124.50693728   176.48343271
 C     55  52  51     2.902064368197   110.28518569   241.35040895
 C     55  52  51     2.933800511421   112.55315836   115.65664453
 H     55  52  51     2.079515962167   107.67674546   358.80868196
 H     57  55  52     2.080774715543   105.92547938   179.37290936
 C     57  55  52     2.893117633882   113.59347329    61.22443447
 C     57  55  52     2.890363861473   110.96951083   296.31701287
 H     56  55  52     2.070300709540   111.53355434   303.55557719
 H     56  55  52     2.072069513465   110.86886820   183.09209093
 H     56  55  52     2.069301491365   110.40887654    63.01967957
 H     60  57  55     2.068552678214   112.25438609    55.72602489
 H     60  57  55     2.071907778093   111.04516309   294.52664319
 H     60  57  55     2.070485485751   110.13642473   175.67724490
 H     61  57  55     2.071750989180   111.32399445   305.37635975
 H     61  57  55     2.070747442912   110.84867784   184.97423848
 H     61  57  55     2.072379503744   110.60813102    65.16730983
 H     50  44  40     2.065675329842   112.11401007    68.03590861
 H     50  44  40     2.071881771193   110.31804734   306.94487472
 H     50  44  40     2.070798434798   110.29264914   187.99172412

---------------------
BASIS SET INFORMATION
---------------------
There are 3 groups of distinct atoms

 Group   1 Type C   : 7s4p contracted to 4s3p pattern {4111/211}
 Group   2 Type H   : 5s contracted to 3s pattern {311}
 Group   3 Type O   : 7s4p contracted to 4s3p pattern {4111/211}

Atom   0C    basis set group =>   1
Atom   1C    basis set group =>   1
Atom   2C    basis set group =>   1
Atom   3H    basis set group =>   2
Atom   4H    basis set group =>   2
Atom   5C    basis set group =>   1
Atom   6C    basis set group =>   1
Atom   7C    basis set group =>   1
Atom   8H    basis set group =>   2
Atom   9H    basis set group =>   2
Atom  10H    basis set group =>   2
Atom  11H    basis set group =>   2
Atom  12O    basis set group =>   3
Atom  13H    basis set group =>   2
Atom  14C    basis set group =>   1
Atom  15C    basis set group =>   1
Atom  16H    basis set group =>   2
Atom  17H    basis set group =>   2
Atom  18C    basis set group =>   1
Atom  19H    basis set group =>   2
Atom  20C    basis set group =>   1
Atom  21H    basis set group =>   2
Atom  22C    basis set group =>   1
Atom  23C    basis set group =>   1
Atom  24H    basis set group =>   2
Atom  25H    basis set group =>   2
Atom  26C    basis set group =>   1
Atom  27H    basis set group =>   2
Atom  28H    basis set group =>   2
Atom  29C    basis set group =>   1
Atom  30H    basis set group =>   2
Atom  31H    basis set group =>   2
Atom  32C    basis set group =>   1
Atom  33H    basis set group =>   2
Atom  34C    basis set group =>   1
Atom  35H    basis set group =>   2
Atom  36C    basis set group =>   1
Atom  37H    basis set group =>   2
Atom  38H    basis set group =>   2
Atom  39C    basis set group =>   1
Atom  40H    basis set group =>   2
Atom  41H    basis set group =>   2
Atom  42H    basis set group =>   2
Atom  43C    basis set group =>   1
Atom  44C    basis set group =>   1
Atom  45H    basis set group =>   2
Atom  46H    basis set group =>   2
Atom  47H    basis set group =>   2
Atom  48H    basis set group =>   2
Atom  49C    basis set group =>   1
Atom  50C    basis set group =>   1
Atom  51C    basis set group =>   1
Atom  52H    basis set group =>   2
Atom  53H    basis set group =>   2
Atom  54C    basis set group =>   1
Atom  55C    basis set group =>   1
Atom  56C    basis set group =>   1
Atom  57H    basis set group =>   2
Atom  58H    basis set group =>   2
Atom  59C    basis set group =>   1
Atom  60C    basis set group =>   1
Atom  61H    basis set group =>   2
Atom  62H    basis set group =>   2
Atom  63H    basis set group =>   2
Atom  64H    basis set group =>   2
Atom  65H    basis set group =>   2
Atom  66H    basis set group =>   2
Atom  67H    basis set group =>   2
Atom  68H    basis set group =>   2
Atom  69H    basis set group =>   2
Atom  70H    basis set group =>   2
Atom  71H    basis set group =>   2
Atom  72H    basis set group =>   2

-------------------------
BASIS SET IN INPUT FORMAT
-------------------------

 # Basis set for element : H 
 NewGTO H 
 S 3 
   1    1357.7500000000      0.0012928364
   2      54.3100000000      0.0588280685
   3       4.3448000000      0.9761499708
 S 1 
   1       0.6604910000      1.0000000000
 S 1 
   1       0.1366870000      1.0000000000
  end;

 # Basis set for element : C 
 NewGTO C 
 S 4 
   1  139534.0000000000      0.0001655246
   2    5581.3600000000      0.0074486101
   3     446.5090000000      0.1285821065
   4      67.4620000000      0.9218029311
 S 1 
   1      15.0674000000      1.0000000000
 S 1 
   1       3.9387600000      1.0000000000
 S 1 
   1       0.2999150000      1.0000000000
 P 2 
   1      28.3900000000      0.0816325586
   2       4.3676900000      0.9660360576
 P 1 
   1       0.8698170000      1.0000000000
 P 1 
   1       0.1889340000      1.0000000000
  end;

 # Basis set for element : O 
 NewGTO O 
 S 4 
   1  253789.0000000000      0.0001641076
   2   10151.6000000000      0.0074010921
   3     812.1250000000      0.1277711901
   4     122.6930000000      0.9223372164
 S 1 
   1      27.5608000000      1.0000000000
 S 1 
   1       7.3172600000      1.0000000000
 S 1 
   1       0.5792400000      1.0000000000
 P 2 
   1      53.4157000000      0.0793786106
   2       8.2177900000      0.9670506337
 P 1 
   1       1.6754400000      1.0000000000
 P 1 
   1       0.3506720000      1.0000000000
  end;

---------------------------------
AUXILIARY/J BASIS SET INFORMATION
---------------------------------
There are 3 groups of distinct atoms

 Group   1 Type C   : 12s5p4d2f1g contracted to 6s4p3d1f1g pattern {711111/2111/211/2/1}
 Group   2 Type H   : 5s2p1d contracted to 3s1p1d pattern {311/2/1}
 Group   3 Type O   : 12s5p4d2f1g contracted to 6s4p3d1f1g pattern {711111/2111/211/2/1}

Atom   0C    basis set group =>   1
Atom   1C    basis set group =>   1
Atom   2C    basis set group =>   1
Atom   3H    basis set group =>   2
Atom   4H    basis set group =>   2
Atom   5C    basis set group =>   1
Atom   6C    basis set group =>   1
Atom   7C    basis set group =>   1
Atom   8H    basis set group =>   2
Atom   9H    basis set group =>   2
Atom  10H    basis set group =>   2
Atom  11H    basis set group =>   2
Atom  12O    basis set group =>   3
Atom  13H    basis set group =>   2
Atom  14C    basis set group =>   1
Atom  15C    basis set group =>   1
Atom  16H    basis set group =>   2
Atom  17H    basis set group =>   2
Atom  18C    basis set group =>   1
Atom  19H    basis set group =>   2
Atom  20C    basis set group =>   1
Atom  21H    basis set group =>   2
Atom  22C    basis set group =>   1
Atom  23C    basis set group =>   1
Atom  24H    basis set group =>   2
Atom  25H    basis set group =>   2
Atom  26C    basis set group =>   1
Atom  27H    basis set group =>   2
Atom  28H    basis set group =>   2
Atom  29C    basis set group =>   1
Atom  30H    basis set group =>   2
Atom  31H    basis set group =>   2
Atom  32C    basis set group =>   1
Atom  33H    basis set group =>   2
Atom  34C    basis set group =>   1
Atom  35H    basis set group =>   2
Atom  36C    basis set group =>   1
Atom  37H    basis set group =>   2
Atom  38H    basis set group =>   2
Atom  39C    basis set group =>   1
Atom  40H    basis set group =>   2
Atom  41H    basis set group =>   2
Atom  42H    basis set group =>   2
Atom  43C    basis set group =>   1
Atom  44C    basis set group =>   1
Atom  45H    basis set group =>   2
Atom  46H    basis set group =>   2
Atom  47H    basis set group =>   2
Atom  48H    basis set group =>   2
Atom  49C    basis set group =>   1
Atom  50C    basis set group =>   1
Atom  51C    basis set group =>   1
Atom  52H    basis set group =>   2
Atom  53H    basis set group =>   2
Atom  54C    basis set group =>   1
Atom  55C    basis set group =>   1
Atom  56C    basis set group =>   1
Atom  57H    basis set group =>   2
Atom  58H    basis set group =>   2
Atom  59C    basis set group =>   1
Atom  60C    basis set group =>   1
Atom  61H    basis set group =>   2
Atom  62H    basis set group =>   2
Atom  63H    basis set group =>   2
Atom  64H    basis set group =>   2
Atom  65H    basis set group =>   2
Atom  66H    basis set group =>   2
Atom  67H    basis set group =>   2
Atom  68H    basis set group =>   2
Atom  69H    basis set group =>   2
Atom  70H    basis set group =>   2
Atom  71H    basis set group =>   2
Atom  72H    basis set group =>   2

-------------------------------------
AUXILIARY/J BASIS SET IN INPUT FORMAT
-------------------------------------

 # Auxiliary/J basis set for element : H 
 NewAuxJGTO H 
 S 3 
   1      15.6752927000      0.1007184237
   2       3.6063578000      0.3404257499
   3       1.2080016000      0.6491996172
 S 1 
   1       0.4726794000      1.0000000000
 S 1 
   1       0.2018100000      1.0000000000
 P 2 
   1       2.0281365000      0.5596620919
   2       0.5358730000      0.5596620919
 D 1 
   1       2.2165124000      1.0000000000
  end;

 # Auxiliary/J basis set for element : C 
 NewAuxJGTO C 
 S 7 
   1    1861.0916331000      0.0134602335
   2     642.9939764000      0.0299160374
   3     235.1105725000      0.1008649584
   4      90.7028894000      0.2370970548
   5      36.7794552000      0.3924037254
   6      15.6046273000      0.3195862154
   7       6.8907294000      0.0530104441
 S 1 
   1       3.1478850000     -1.0000000000
 S 1 
   1       1.4777287000      1.0000000000
 S 1 
   1       0.7076466000      1.0000000000
 S 1 
   1       0.3430122000      1.0000000000
 S 1 
   1       0.1669453000      1.0000000000
 P 2 
   1      13.5472892000     -0.6769313712
   2       5.4669419000     -0.3779500978
 P 1 
   1       2.1751721000      1.0000000000
 P 1 
   1       0.8582194000      1.0000000000
 P 1 
   1       0.3376720000      1.0000000000
 D 2 
   1       5.9287253000     -0.3533329857
   2       1.9809209000     -0.7456525731
 D 1 
   1       0.8055417000     -1.0000000000
 D 1 
   1       0.3531244000     -1.0000000000
 F 2 
   1       1.6755626000      0.6311076882
   2       0.5997536000      0.4968166032
 G 1 
   1       1.0024600000     -1.0000000000
  end;

 # Auxiliary/J basis set for element : O 
 NewAuxJGTO O 
 S 7 
   1    2876.8216605000      0.0168151159
   2    1004.7443032000      0.0340137548
   3     369.7579954000      0.1194951309
   4     142.9442404000      0.2664627624
   5      57.8366425000      0.4202764046
   6      24.3864983000      0.2765077335
   7      10.6622662000      0.0057008815
 S 1 
   1       4.8070437000     -1.0000000000
 S 1 
   1       2.2210770000      1.0000000000
 S 1 
   1       1.0447795000      1.0000000000
 S 1 
   1       0.4968425000      1.0000000000
 S 1 
   1       0.2371384000      1.0000000000
 P 2 
   1      64.2613382000     -0.2731534179
   2      16.3006076000     -0.8168011598
 P 1 
   1       4.3550542000      1.0000000000
 P 1 
   1       1.2019554000      1.0000000000
 P 1 
   1       0.3354196000      1.0000000000
 D 2 
   1       9.2146611000     -0.4661230638
   2       2.8435251000     -0.6600908911
 D 1 
   1       0.9955759000     -1.0000000000
 D 1 
   1       0.3649441000     -1.0000000000
 F 2 
   1       2.6420115000      0.5931563945
   2       0.7345613000      0.5931563945
 G 1 
   1       1.3931000000     -1.0000000000
  end;



           ************************************************************
           *        Program running with 4 parallel MPI-processes     *
           *              working on a common directory               *
           ************************************************************
------------------------------------------------------------------------------
                           ORCA GTO INTEGRAL CALCULATION
                           -- RI-GTO INTEGRALS CHOSEN --
------------------------------------------------------------------------------
------------------------------------------------------------------------------
                   ___                                                        
                  /   \      - P O W E R E D   B Y -                         
                 /     \                                                     
                 |  |  |   _    _      __       _____    __    __             
                 |  |  |  | |  | |    /  \     |  _  \  |  |  /  |          
                  \  \/   | |  | |   /    \    | | | |  |  | /  /          
                 / \  \   | |__| |  /  /\  \   | |_| |  |  |/  /          
                |  |  |   |  __  | /  /__\  \  |    /   |      \           
                |  |  |   | |  | | |   __   |  |    \   |  |\   \          
                \     /   | |  | | |  |  |  |  | |\  \  |  | \   \       
                 \___/    |_|  |_| |__|  |__|  |_| \__\ |__|  \__/        
                                                                              
                      - O R C A' S   B I G   F R I E N D -                    
                                      &                                       
                       - I N T E G R A L  F E E D E R -                       
                                                                              
 v1 FN, 2020, v2 2021                                                         
------------------------------------------------------------------------------


Reading SHARK input file inpJ.SHARKINP.tmp ... ok
----------------------
SHARK INTEGRAL PACKAGE
----------------------

Number of atoms                             ...     73
Number of basis functions                   ...    509
Number of shells                            ...    335
Maximum angular momentum                    ...      1
Integral batch strategy                     ... SHARK/LIBINT Hybrid
RI-J (if used) integral strategy            ... SPLIT-RIJ (Revised 2003 algorithm where possible)
Printlevel                                  ...      1
Contraction scheme used                     ... SEGMENTED contraction
Coulomb Range Separation                    ... NOT USED
Exchange Range Separation                   ... NOT USED
Finite Nucleus Model                        ... NOT USED
Auxiliary Coulomb fitting basis             ... AVAILABLE
   # of basis functions in Aux-J            ...   1905
   # of shells in Aux-J                     ...    655
   Maximum angular momentum in Aux-J        ...      4
Auxiliary J/K fitting basis                 ... NOT available
Auxiliary Correlation fitting basis         ... NOT available
Auxiliary 'external' fitting basis          ... NOT available
Integral threshold                          ...     3.000000e-11
Primitive cut-off                           ...     1.000000e-12
Primitive pair pre-selection threshold      ...     1.000000e-12

Calculating pre-screening integrals         ... done (  0.0 sec) Dimension = 335
Organizing shell pair data                  ... done (  0.1 sec)
Shell pair information
Total number of shell pairs                 ...     56280
Shell pairs after pre-screening             ...     22387
Total number of primitive shell pairs       ...    145865
Primitive shell pairs kept                  ...     38431
          la=0 lb=0:  11262 shell pairs
          la=1 lb=0:   9215 shell pairs
          la=1 lb=1:   1910 shell pairs

Calculating one electron integrals          ... done (  0.0 sec)
Calculating RI/J V-Matrix + Cholesky decomp.... done (  0.2 sec)
Calculating Nuclear repulsion               ... done (  0.0 sec) ENN=   2819.000367923171 Eh

SHARK setup successfully completed in   0.4 seconds

Maximum memory used throughout the entire GTOINT-calculation: 46.7 MB


           ************************************************************
           *        Program running with 4 parallel MPI-processes     *
           *              working on a common directory               *
           ************************************************************
-------------------------------------------------------------------------------
                                 ORCA SCF
-------------------------------------------------------------------------------

------------
SCF SETTINGS
------------
Hamiltonian:
 Density Functional     Method          .... DFT(GTOs)
 Exchange Functional    Exchange        .... PBE
   PBE kappa parameter   XKappa         ....  0.804000
   PBE mue parameter    XMuePBE         ....  0.219520
 Correlation Functional Correlation     .... PBE
   PBE beta parameter  CBetaPBE         ....  0.066725
 LDA part of GGA corr.  LDAOpt          .... PW91-LDA
 Gradients option       PostSCFGGA      .... off
 Hybrid DFT is turned on
   Fraction HF Exchange ScalHFX         ....  0.250000
   Scaling of DF-GGA-X  ScalDFX         ....  0.750000
   Scaling of DF-GGA-C  ScalDFC         ....  1.000000
   Scaling of DF-LDA-C  ScalLDAC        ....  1.000000
   Perturbative correction              ....  0.000000
   Density functional embedding theory  .... OFF
   NL short-range parameter             ....  6.900000
 RI-approximation to the Coulomb term is turned on
   Number of AuxJ basis functions       .... 1905
   RIJ-COSX (HFX calculated with COS-X)).... on


General Settings:
 Integral files         IntName         .... inpJ
 Hartree-Fock type      HFTyp           .... RHF
 Total Charge           Charge          ....    0
 Multiplicity           Mult            ....    1
 Number of Electrons    NEL             ....  220
 Basis Dimension        Dim             ....  509
 Nuclear Repulsion      ENuc            ....   2819.0003679232 Eh

Convergence Acceleration:
 DIIS                   CNVDIIS         .... on
   Start iteration      DIISMaxIt       ....    12
   Startup error        DIISStart       ....  0.200000
   # of expansion vecs  DIISMaxEq       ....     5
   Bias factor          DIISBfac        ....   1.050
   Max. coefficient     DIISMaxC        ....  10.000
 Trust-Rad. Augm. Hess. CNVTRAH         .... auto
   Auto Start mean grad. ratio tolernc. ....  1.125000
   Auto Start start iteration           ....    20
   Auto Start num. interpolation iter.  ....    10
   Max. Number of Micro iterations      ....    16
   Max. Number of Macro iterations      .... Maxiter - #DIIS iter
   Number of Davidson start vectors     ....     2
   Converg. threshold I  (grad. norm)   ....   1.000e-04
   Converg. threshold II (energy diff.) ....   1.000e-07
   Grad. Scal. Fac. for Micro threshold ....   0.100
   Minimum threshold for Micro iter.    ....   0.010
   NR start threshold (gradient norm)   ....   0.001
   Initial trust radius                 ....   0.400
   Minimum AH scaling param. (alpha)    ....   1.000
   Maximum AH scaling param. (alpha)    .... 1000.000
   Orbital update algorithm             .... Taylor
   White noise on init. David. guess    .... on
   Maximum white noise                  ....   0.010
   Quad. conv. algorithm                .... NR
 SOSCF                  CNVSOSCF        .... off
 Level Shifting         CNVShift        .... on
   Level shift para.    LevelShift      ....    0.2500
   Turn off err/grad.   ShiftErr        ....    0.0010
 Zerner damping         CNVZerner       .... off
 Static damping         CNVDamp         .... on
   Fraction old density DampFac         ....    0.7000
   Max. Damping (<1)    DampMax         ....    0.9800
   Min. Damping (>=0)   DampMin         ....    0.0000
   Turn off err/grad.   DampErr         ....    0.1000
 Fernandez-Rico         CNVRico         .... off

SCF Procedure:
 Maximum # iterations   MaxIter         ....   125
 SCF integral mode      SCFMode         .... Direct
   Integral package                     .... SHARK and LIBINT hybrid scheme
 Reset frequency        DirectResetFreq ....    20
 Integral Threshold     Thresh          ....  3.000e-11 Eh
 Primitive CutOff       TCut            ....  1.000e-12 Eh

Convergence Tolerance:
 Convergence Check Mode ConvCheckMode   .... Total+1el-Energy
 Convergence forced     ConvForced      .... 0
 Energy Change          TolE            ....  1.000e-07 Eh
 1-El. energy change                    ....  1.000e-04 Eh
 DIIS Error             TolErr          ....  1.000e-07


Diagonalization of the overlap matrix:
Smallest eigenvalue                        ... 7.583e-03
Time for diagonalization                   ...    0.030 sec
Threshold for overlap eigenvalues          ... 1.000e-08
Number of eigenvalues below threshold      ... 0
Time for construction of square roots      ...    0.021 sec
Total time needed                          ...    0.052 sec

Time for model grid setup =    0.765 sec

------------------------------
INITIAL GUESS: MODEL POTENTIAL
------------------------------
Loading Hartree-Fock densities                     ... done
Calculating cut-offs                               ... done
Initializing the effective Hamiltonian             ... done
Setting up the integral package (SHARK)            ... done
Starting the Coulomb interaction                   ... done (   0.3 sec)
Reading the grid                                   ... done
Mapping shells                                     ... done
Starting the XC term evaluation                    ... done (   0.1 sec)
  promolecular density results
     # of electrons  =    219.982082862
     EX              =   -164.429893694
     EC              =     -7.328064110
     EX+EC           =   -171.757957804
Transforming the Hamiltonian                       ... done (   0.0 sec)
Diagonalizing the Hamiltonian                      ... done (   0.0 sec)
Back transforming the eigenvectors                 ... done (   0.0 sec)
Now organizing SCF variables                       ... done
                      ------------------
                      INITIAL GUESS DONE (   1.3 sec)
                      ------------------
-------------------
DFT GRID GENERATION
-------------------

General Integration Accuracy     IntAcc      ... 4.388
Radial Grid Type                 RadialGrid  ... OptM3 with GC (2021)
Angular Grid (max. ang.)         AngularGrid ... 4 (Lebedev-302)
Angular grid pruning method      GridPruning ... 4 (adaptive)
Weight generation scheme         WeightScheme... Becke
Basis function cutoff            BFCut       ... 1.0000e-11
Integration weight cutoff        WCut        ... 1.0000e-14
Angular grids for H and He will be reduced by one unit
Partially contracted basis set               ... off
Rotationally invariant grid construction     ... off

Total number of grid points                  ...   309688
Total number of batches                      ...     4879
Average number of points per batch           ...       63
Average number of grid points per atom       ...     4242
Time for grid setup =    2.898 sec

--------------------
COSX GRID GENERATION
--------------------

GRIDX 1
-------
General Integration Accuracy     IntAcc      ... 3.816
Radial Grid Type                 RadialGrid  ... OptM3 with GC (2021)
Angular Grid (max. ang.)         AngularGrid ... 1 (Lebedev-50)
Angular grid pruning method      GridPruning ... 4 (adaptive)
Weight generation scheme         WeightScheme... Becke
Basis function cutoff            BFCut       ... 1.0000e-11
Integration weight cutoff        WCut        ... 1.0000e-14
Angular grids for H and He will be reduced by one unit
Partially contracted basis set               ... on
Rotationally invariant grid construction     ... off

Total number of grid points                  ...    39381
Total number of batches                      ...      654
Average number of points per batch           ...       60
Average number of grid points per atom       ...      539
UseSFitting                                  ... on

GRIDX 2
-------
General Integration Accuracy     IntAcc      ... 4.020
Radial Grid Type                 RadialGrid  ... OptM3 with GC (2021)
Angular Grid (max. ang.)         AngularGrid ... 2 (Lebedev-110)
Angular grid pruning method      GridPruning ... 4 (adaptive)
Weight generation scheme         WeightScheme... Becke
Basis function cutoff            BFCut       ... 1.0000e-11
Integration weight cutoff        WCut        ... 1.0000e-14
Angular grids for H and He will be reduced by one unit
Partially contracted basis set               ... on
Rotationally invariant grid construction     ... off

Total number of grid points                  ...    81319
Total number of batches                      ...     1304
Average number of points per batch           ...       62
Average number of grid points per atom       ...     1114
UseSFitting                                  ... on

GRIDX 3
-------
General Integration Accuracy     IntAcc      ... 4.338
Radial Grid Type                 RadialGrid  ... OptM3 with GC (2021)
Angular Grid (max. ang.)         AngularGrid ... 3 (Lebedev-194)
Angular grid pruning method      GridPruning ... 4 (adaptive)
Weight generation scheme         WeightScheme... Becke
Basis function cutoff            BFCut       ... 1.0000e-11
Integration weight cutoff        WCut        ... 1.0000e-14
Angular grids for H and He will be reduced by one unit
Partially contracted basis set               ... on
Rotationally invariant grid construction     ... off

Total number of grid points                  ...   176017
Total number of batches                      ...     2789
Average number of points per batch           ...       63
Average number of grid points per atom       ...     2411
UseSFitting                                  ... on

Time for X-Grid setup             =    2.886 sec


--------------------
CPCM SOLVATION MODEL
--------------------
CPCM parameters:
  Epsilon                                         ...       4.9000
  Refrac                                          ...       1.4500
  Rsolv                                           ...       1.3000
  Surface type                                    ... GAUSSIAN VDW
  Epsilon function type                           ...         CPCM
Radii:
 Radius for C  used is    3.8550 Bohr (=   2.0400 Ang.)
 Radius for H  used is    2.4944 Bohr (=   1.3200 Ang.)
 Radius for O  used is    3.4469 Bohr (=   1.8240 Ang.)
Calculating surface                               ...        done! (  0.0s)
GEPOL surface points                              ...         3629
GEPOL Volume                                      ...    3601.1284
GEPOL Surface-area                                ...    1784.7154
Calculating surface distance matrix               ...        done! (  0.1s)
Performing Cholesky decomposition & store         ...        done! (  0.7s)
Overall time for CPCM initialization              ...                 0.8s
--------------
SCF ITERATIONS
--------------
ITER       Energy         Delta-E        Max-DP      RMS-DP      [F,P]     Damp
               ***  Starting incremental Fock matrix formation  ***

  HOMO= 109 E= -3.989 eV LUMO=  7.696 eV gap=  11.685 eV
  0  -1165.0101379434   0.000000000000 0.09738261  0.00106478  0.1963060 0.7000

  HOMO= 109 E= -4.849 eV LUMO=  7.014 eV gap=  11.863 eV
  1  -1165.2293376425  -0.219199699183 0.06533876  0.00078350  0.0950465 0.7000
                               ***Turning on DIIS***

  HOMO= 109 E= -5.445 eV LUMO=  6.467 eV gap=  11.912 eV
  2  -1165.3302524575  -0.100914814929 0.10281203  0.00138585  0.0375616 0.0000

  HOMO= 109 E= -6.001 eV LUMO=  5.938 eV gap=  11.939 eV
  3  -1165.4747168521  -0.144464394651 0.05134647  0.00057334  0.0463371 0.0000

  HOMO= 109 E= -6.071 eV LUMO=  5.867 eV gap=  11.938 eV
  4  -1165.5103050132  -0.035588161079 0.01224290  0.00013421  0.0058085 0.0000

  HOMO= 109 E= -6.020 eV LUMO=  5.925 eV gap=  11.945 eV
  5  -1165.5111529875  -0.000847974319 0.00287691  0.00003816  0.0051186 0.0000

  HOMO= 109 E= -6.006 eV LUMO=  5.940 eV gap=  11.946 eV
  6  -1165.5112357743  -0.000082786786 0.00118052  0.00001171  0.0010059 0.0000

  HOMO= 109 E= -6.008 eV LUMO= -0.865 eV gap=   5.143 eV
  7  -1165.5112412293  -0.000005454998 0.00050943  0.00000598  0.0002340 0.0000
               *** Restarting incremental Fock matrix formation ***
                                   *** Resetting DIIS ***

  HOMO= 109 E= -6.007 eV LUMO= -0.864 eV gap=   5.144 eV
  8  -1165.5111561449   0.000085084394 0.00029740  0.00000272  0.0001286 0.0000

  HOMO= 109 E= -6.008 eV LUMO= -0.864 eV gap=   5.144 eV
  9  -1165.5111561774  -0.000000032449 0.00014835  0.00000130  0.0001724 0.0000

  HOMO= 109 E= -6.008 eV LUMO= -0.864 eV gap=   5.144 eV
 10  -1165.5111563179  -0.000000140519 0.00006097  0.00000038  0.0000294 0.0000

  HOMO= 109 E= -6.008 eV LUMO= -0.864 eV gap=   5.144 eV
 11  -1165.5111563485  -0.000000030635 0.00002358  0.00000017  0.0000170 0.0000

  HOMO= 109 E= -6.008 eV LUMO= -0.864 eV gap=   5.144 eV
 12  -1165.5111563431   0.000000005418 0.00000716  0.00000004  0.0000032 0.0000
                 **** Energy Check signals convergence ****

               *****************************************************
               *                     SUCCESS                       *
               *           SCF CONVERGED AFTER  13 CYCLES          *
               *****************************************************

Old exchange energy                            =    -42.067322087 Eh
New exchange energy                            =    -42.067369981 Eh
Exchange energy change after final integration =     -0.000047893 Eh
Total energy after final integration           =  -1165.511204256 Eh
Final COS-X integration done in                =    13.662 sec

----------------
TOTAL SCF ENERGY
----------------

Total Energy       :        -1165.51120426 Eh          -31715.17224 eV

Components:
Nuclear Repulsion  :         2819.00036792 Eh           76708.89982 eV
Electronic Energy  :        -3984.51157218 Eh         -108424.07205 eV
One Electron Energy:        -7179.75008682 Eh         -195370.93233 eV
Two Electron Energy:         3195.23851465 Eh           86946.86028 eV
Max COSX asymmetry :            0.00000294 Eh               0.00008 eV
CPCM Dielectric    :           -0.01364542 Eh              -0.37131 eV

Virial components:
Potential Energy   :        -2322.40421734 Eh          -63195.83157 eV
Kinetic Energy     :         1156.89301308 Eh           31480.65933 eV
Virial Ratio       :            2.00744943


DFT components:
N(Alpha)           :      110.000392282940 electrons
N(Beta)            :      110.000392282940 electrons
N(Total)           :      220.000784565880 electrons
E(X)               :     -125.744617366194 Eh       
E(C)               :       -7.328457747540 Eh       
E(XC)              :     -133.073075113734 Eh       
DFET-embed. en.    :        0.000000000000 Eh       
CPCM Solvation Model Properties:
Surface-charge          :           -0.03400639
Charge-correction       :           -0.00008049 Eh              -0.00219 eV
Free-energy (cav+disp)  :  This term is not implemented in the current solvation scheme

---------------
SCF CONVERGENCE
---------------

  Last Energy change         ...   -1.9048e-08  Tolerance :   1.0000e-07
  Last MAX-Density change    ...    0.0000e+00  Tolerance :   1.0000e-05
  Last RMS-Density change    ...    0.0000e+00  Tolerance :   1.0000e-06
  Last DIIS Error            ...    2.0351e-06  Tolerance :   1.0000e-07

             **** THE GBW FILE WAS UPDATED (inpJ.gbw) ****
             **** DENSITY inpJ.scfp WAS UPDATED ****
             **** ENERGY FILE WAS UPDATED (inpJ.en.tmp) ****
             **** THE GBW FILE WAS UPDATED (inpJ.gbw) ****
             **** DENSITY inpJ.scfp WAS UPDATED ****
----------------
ORBITAL ENERGIES
----------------

  NO   OCC          E(Eh)            E(eV) 
   0   2.0000     -19.212529      -522.7995 
   1   2.0000     -10.300482      -280.2904 
   2   2.0000     -10.270416      -279.4722 
   3   2.0000     -10.268268      -279.4138 
   4   2.0000     -10.263529      -279.2848 
   5   2.0000     -10.257405      -279.1182 
   6   2.0000     -10.257073      -279.1092 
   7   2.0000     -10.251732      -278.9638 
   8   2.0000     -10.248985      -278.8891 
   9   2.0000     -10.248079      -278.8644 
  10   2.0000     -10.247913      -278.8599 
  11   2.0000     -10.247596      -278.8513 
  12   2.0000     -10.245991      -278.8076 
  13   2.0000     -10.244991      -278.7804 
  14   2.0000     -10.244626      -278.7704 
  15   2.0000     -10.244456      -278.7658 
  16   2.0000     -10.242891      -278.7232 
  17   2.0000     -10.241776      -278.6929 
  18   2.0000     -10.241532      -278.6862 
  19   2.0000     -10.241420      -278.6832 
  20   2.0000     -10.240091      -278.6470 
  21   2.0000     -10.234162      -278.4857 
  22   2.0000     -10.234039      -278.4823 
  23   2.0000     -10.232915      -278.4518 
  24   2.0000     -10.227166      -278.2953 
  25   2.0000     -10.226525      -278.2779 
  26   2.0000     -10.223790      -278.2035 
  27   2.0000     -10.222014      -278.1552 
  28   2.0000     -10.220714      -278.1198 
  29   2.0000      -1.043241       -28.3880 
  30   2.0000      -0.901527       -24.5318 
  31   2.0000      -0.882149       -24.0045 
  32   2.0000      -0.859825       -23.3970 
  33   2.0000      -0.845566       -23.0090 
  34   2.0000      -0.822201       -22.3732 
  35   2.0000      -0.814155       -22.1543 
  36   2.0000      -0.795794       -21.6547 
  37   2.0000      -0.795002       -21.6331 
  38   2.0000      -0.776164       -21.1205 
  39   2.0000      -0.758356       -20.6359 
  40   2.0000      -0.740740       -20.1566 
  41   2.0000      -0.736169       -20.0322 
  42   2.0000      -0.715198       -19.4615 
  43   2.0000      -0.702892       -19.1267 
  44   2.0000      -0.701856       -19.0985 
  45   2.0000      -0.695940       -18.9375 
  46   2.0000      -0.670563       -18.2469 
  47   2.0000      -0.656734       -17.8707 
  48   2.0000      -0.632375       -17.2078 
  49   2.0000      -0.622357       -16.9352 
  50   2.0000      -0.613096       -16.6832 
  51   2.0000      -0.608448       -16.5567 
  52   2.0000      -0.596672       -16.2363 
  53   2.0000      -0.582848       -15.8601 
  54   2.0000      -0.565603       -15.3908 
  55   2.0000      -0.542763       -14.7693 
  56   2.0000      -0.539096       -14.6695 
  57   2.0000      -0.529351       -14.4044 
  58   2.0000      -0.515316       -14.0225 
  59   2.0000      -0.508716       -13.8429 
  60   2.0000      -0.500736       -13.6257 
  61   2.0000      -0.487560       -13.2672 
  62   2.0000      -0.483103       -13.1459 
  63   2.0000      -0.480226       -13.0676 
  64   2.0000      -0.472185       -12.8488 
  65   2.0000      -0.467541       -12.7224 
  66   2.0000      -0.464838       -12.6489 
  67   2.0000      -0.460101       -12.5200 
  68   2.0000      -0.459038       -12.4911 
  69   2.0000      -0.451382       -12.2827 
  70   2.0000      -0.449406       -12.2290 
  71   2.0000      -0.443015       -12.0550 
  72   2.0000      -0.436559       -11.8794 
  73   2.0000      -0.432790       -11.7768 
  74   2.0000      -0.427826       -11.6417 
  75   2.0000      -0.426069       -11.5939 
  76   2.0000      -0.420996       -11.4559 
  77   2.0000      -0.415265       -11.2999 
  78   2.0000      -0.409854       -11.1527 
  79   2.0000      -0.403066       -10.9680 
  80   2.0000      -0.401390       -10.9224 
  81   2.0000      -0.397081       -10.8051 
  82   2.0000      -0.395060       -10.7501 
  83   2.0000      -0.389443       -10.5973 
  84   2.0000      -0.386940       -10.5292 
  85   2.0000      -0.381196       -10.3729 
  86   2.0000      -0.375419       -10.2157 
  87   2.0000      -0.374055       -10.1785 
  88   2.0000      -0.371543       -10.1102 
  89   2.0000      -0.363457        -9.8902 
  90   2.0000      -0.360860        -9.8195 
  91   2.0000      -0.356183        -9.6922 
  92   2.0000      -0.355080        -9.6622 
  93   2.0000      -0.344714        -9.3802 
  94   2.0000      -0.340756        -9.2724 
  95   2.0000      -0.338571        -9.2130 
  96   2.0000      -0.337783        -9.1915 
  97   2.0000      -0.332986        -9.0610 
  98   2.0000      -0.331331        -9.0160 
  99   2.0000      -0.328979        -8.9520 
 100   2.0000      -0.327683        -8.9167 
 101   2.0000      -0.321674        -8.7532 
 102   2.0000      -0.319311        -8.6889 
 103   2.0000      -0.315621        -8.5885 
 104   2.0000      -0.310282        -8.4432 
 105   2.0000      -0.300656        -8.1813 
 106   2.0000      -0.276643        -7.5278 
 107   2.0000      -0.275087        -7.4855 
 108   2.0000      -0.256665        -6.9842 
 109   2.0000      -0.220781        -6.0078 
 110   0.0000      -0.031740        -0.8637 
 111   0.0000       0.019501         0.5306 
 112   0.0000       0.026246         0.7142 
 113   0.0000       0.079160         2.1541 
 114   0.0000       0.087256         2.3743 
 115   0.0000       0.099691         2.7127 
 116   0.0000       0.103507         2.8166 
 117   0.0000       0.107478         2.9246 
 118   0.0000       0.110698         3.0122 
 119   0.0000       0.112628         3.0648 
 120   0.0000       0.117893         3.2080 
 121   0.0000       0.118713         3.2303 
 122   0.0000       0.125855         3.4247 
 123   0.0000       0.131796         3.5863 
 124   0.0000       0.136528         3.7151 
 125   0.0000       0.137094         3.7305 
 126   0.0000       0.140116         3.8127 
 127   0.0000       0.141150         3.8409 
 128   0.0000       0.145277         3.9532 
 129   0.0000       0.149766         4.0753 
 130   0.0000       0.153424         4.1749 
 131   0.0000       0.155126         4.2212 
 132   0.0000       0.160854         4.3771 
 133   0.0000       0.163527         4.4498 
 134   0.0000       0.165477         4.5029 
 135   0.0000       0.170530         4.6404 
 136   0.0000       0.173452         4.7199 
 137   0.0000       0.174441         4.7468 
 138   0.0000       0.177383         4.8268 
 139   0.0000       0.181026         4.9260 
 140   0.0000       0.182243         4.9591 
 141   0.0000       0.186913         5.0862 
 142   0.0000       0.188201         5.1212 
 143   0.0000       0.189840         5.1658 
 144   0.0000       0.194473         5.2919 
 145   0.0000       0.198753         5.4084 
 146   0.0000       0.201701         5.4886 
 147   0.0000       0.204727         5.5709 
 148   0.0000       0.205274         5.5858 
 149   0.0000       0.213823         5.8184 
 150   0.0000       0.218390         5.9427 
 151   0.0000       0.220358         5.9963 
 152   0.0000       0.222781         6.0622 
 153   0.0000       0.228773         6.2252 
 154   0.0000       0.233577         6.3559 
 155   0.0000       0.236822         6.4443 
 156   0.0000       0.243930         6.6377 
 157   0.0000       0.247064         6.7230 
 158   0.0000       0.250199         6.8083 
 159   0.0000       0.251942         6.8557 
 160   0.0000       0.258780         7.0418 
 161   0.0000       0.259957         7.0738 
 162   0.0000       0.261124         7.1055 
 163   0.0000       0.263828         7.1791 
 164   0.0000       0.271396         7.3851 
 165   0.0000       0.273840         7.4516 
 166   0.0000       0.276517         7.5244 
 167   0.0000       0.279180         7.5969 
 168   0.0000       0.291201         7.9240 
 169   0.0000       0.293186         7.9780 
 170   0.0000       0.298358         8.1187 
 171   0.0000       0.299739         8.1563 
 172   0.0000       0.302916         8.2428 
 173   0.0000       0.311150         8.4668 
 174   0.0000       0.318590         8.6693 
 175   0.0000       0.323697         8.8082 
 176   0.0000       0.327925         8.9233 
 177   0.0000       0.334254         9.0955 
 178   0.0000       0.345232         9.3942 
 179   0.0000       0.357959         9.7406 
 180   0.0000       0.362539         9.8652 
 181   0.0000       0.380959        10.3664 
 182   0.0000       0.381824        10.3900 
 183   0.0000       0.413163        11.2427 
 184   0.0000       0.422092        11.4857 
 185   0.0000       0.463962        12.6251 
 186   0.0000       0.471024        12.8172 
 187   0.0000       0.490007        13.3338 
 188   0.0000       0.505902        13.7663 
 189   0.0000       0.515921        14.0389 
 190   0.0000       0.522751        14.2248 
 191   0.0000       0.535176        14.5629 
 192   0.0000       0.546488        14.8707 
 193   0.0000       0.564043        15.3484 
 194   0.0000       0.570558        15.5257 
 195   0.0000       0.573629        15.6092 
 196   0.0000       0.579218        15.7613 
 197   0.0000       0.581163        15.8142 
 198   0.0000       0.589396        16.0383 
 199   0.0000       0.598162        16.2768 
 200   0.0000       0.608295        16.5526 
 201   0.0000       0.616110        16.7652 
 202   0.0000       0.625455        17.0195 
 203   0.0000       0.630434        17.1550 
 204   0.0000       0.643749        17.5173 
 205   0.0000       0.644848        17.5472 
 206   0.0000       0.651367        17.7246 
 207   0.0000       0.662190        18.0191 
 208   0.0000       0.666703        18.1419 
 209   0.0000       0.668792        18.1988 
 210   0.0000       0.672886        18.3101 
 211   0.0000       0.683076        18.5874 
 212   0.0000       0.687859        18.7176 
 213   0.0000       0.699357        19.0305 
 214   0.0000       0.704372        19.1669 
 215   0.0000       0.707632        19.2556 
 216   0.0000       0.708685        19.2843 
 217   0.0000       0.713022        19.4023 
 218   0.0000       0.720317        19.6008 
 219   0.0000       0.722198        19.6520 
 220   0.0000       0.727281        19.7903 
 221   0.0000       0.732925        19.9439 
 222   0.0000       0.735719        20.0199 
 223   0.0000       0.738017        20.0825 
 224   0.0000       0.745190        20.2776 
 225   0.0000       0.747314        20.3355 
 226   0.0000       0.752088        20.4654 
 227   0.0000       0.756472        20.5847 
 228   0.0000       0.759987        20.6803 
 229   0.0000       0.763413        20.7735 
 230   0.0000       0.771293        20.9880 
 231   0.0000       0.776054        21.1175 
 232   0.0000       0.779594        21.2138 
 233   0.0000       0.787761        21.4361 
 234   0.0000       0.789360        21.4796 
 235   0.0000       0.793681        21.5972 
 236   0.0000       0.798354        21.7243 
 237   0.0000       0.805967        21.9315 
 238   0.0000       0.808219        21.9928 
 239   0.0000       0.812230        22.1019 
 240   0.0000       0.820944        22.3390 
 241   0.0000       0.826766        22.4974 
 242   0.0000       0.834355        22.7040 
 243   0.0000       0.848403        23.0862 
 244   0.0000       0.853963        23.2375 
 245   0.0000       0.856948        23.3187 
 246   0.0000       0.863329        23.4924 
 247   0.0000       0.865993        23.5649 
 248   0.0000       0.867407        23.6033 
 249   0.0000       0.871539        23.7158 
 250   0.0000       0.874183        23.7877 
 251   0.0000       0.876494        23.8506 
 252   0.0000       0.877887        23.8885 
 253   0.0000       0.879596        23.9350 
 254   0.0000       0.881149        23.9773 
 255   0.0000       0.883691        24.0465 
 256   0.0000       0.887855        24.1598 
 257   0.0000       0.891009        24.2456 
 258   0.0000       0.893296        24.3078 
 259   0.0000       0.897897        24.4330 
 260   0.0000       0.902019        24.5452 
 261   0.0000       0.905591        24.6424 
 262   0.0000       0.908514        24.7219 
 263   0.0000       0.911401        24.8005 
 264   0.0000       0.916837        24.9484 
 265   0.0000       0.918475        24.9930 
 266   0.0000       0.920747        25.0548 
 267   0.0000       0.929294        25.2874 
 268   0.0000       0.932621        25.3779 
 269   0.0000       0.939170        25.5561 
 270   0.0000       0.942730        25.6530 
 271   0.0000       0.948434        25.8082 
 272   0.0000       0.951972        25.9045 
 273   0.0000       0.954006        25.9598 
 274   0.0000       0.963107        26.2075 
 275   0.0000       0.966188        26.2913 
 276   0.0000       0.970818        26.4173 
 277   0.0000       0.977360        26.5953 
 278   0.0000       0.980642        26.6846 
 279   0.0000       0.985308        26.8116 
 280   0.0000       0.999626        27.2012 
 281   0.0000       1.006516        27.3887 
 282   0.0000       1.007233        27.4082 
 283   0.0000       1.017466        27.6867 
 284   0.0000       1.022170        27.8146 
 285   0.0000       1.032438        28.0941 
 286   0.0000       1.046648        28.4808 
 287   0.0000       1.053154        28.6578 
 288   0.0000       1.062415        28.9098 
 289   0.0000       1.069852        29.1121 
 290   0.0000       1.073875        29.2216 
 291   0.0000       1.078505        29.3476 
 292   0.0000       1.082602        29.4591 
 293   0.0000       1.094219        29.7752 
 294   0.0000       1.110963        30.2308 
 295   0.0000       1.118532        30.4368 
 296   0.0000       1.124315        30.5942 
 297   0.0000       1.138722        30.9862 
 298   0.0000       1.145706        31.1762 
 299   0.0000       1.149035        31.2668 
 300   0.0000       1.166917        31.7534 
 301   0.0000       1.171088        31.8669 
 302   0.0000       1.181857        32.1600 
 303   0.0000       1.206463        32.8295 
 304   0.0000       1.234048        33.5802 
 305   0.0000       1.236435        33.6451 
 306   0.0000       1.246085        33.9077 
 307   0.0000       1.257376        34.2149 
 308   0.0000       1.280590        34.8466 
 309   0.0000       1.305177        35.5157 
 310   0.0000       1.322623        35.9904 
 311   0.0000       1.334952        36.3259 
 312   0.0000       1.366641        37.1882 
 313   0.0000       1.372260        37.3411 
 314   0.0000       1.409533        38.3553 
 315   0.0000       1.492256        40.6063 
 316   0.0000       1.527093        41.5543 
 317   0.0000       1.561846        42.5000 
 318   0.0000       1.591440        43.3053 
 319   0.0000       1.675012        45.5794 
 320   0.0000       6.202176       168.7698 
 321   0.0000       6.232095       169.5839 
 322   0.0000       6.265297       170.4874 
 323   0.0000       6.268108       170.5639 
 324   0.0000       6.279600       170.8766 
 325   0.0000       6.289594       171.1485 
 326   0.0000       6.299464       171.4171 
 327   0.0000       6.305668       171.5859 
 328   0.0000       6.318166       171.9260 
 329   0.0000       6.335047       172.3854 
 330   0.0000       6.342166       172.5791 
 331   0.0000       6.347878       172.7345 
 332   0.0000       6.357070       172.9847 
 333   0.0000       6.365472       173.2133 
 334   0.0000       6.385525       173.7590 
 335   0.0000       6.392870       173.9588 
 336   0.0000       6.407258       174.3503 
 337   0.0000       6.415330       174.5700 
 338   0.0000       6.421643       174.7418 
 339   0.0000       6.422480       174.7646 
 340   0.0000       6.438302       175.1951 
 341   0.0000       6.445005       175.3775 
 342   0.0000       6.454334       175.6314 
 343   0.0000       6.457310       175.7123 
 344   0.0000       6.476437       176.2328 
 345   0.0000       6.482308       176.3926 
 346   0.0000       6.486162       176.4974 
 347   0.0000       6.507194       177.0698 
 348   0.0000       6.508976       177.1182 
 349   0.0000       6.517578       177.3523 
 350   0.0000       6.525587       177.5702 
 351   0.0000       6.528699       177.6549 
 352   0.0000       6.539272       177.9426 
 353   0.0000       6.541484       178.0028 
 354   0.0000       6.545290       178.1064 
 355   0.0000       6.551193       178.2670 
 356   0.0000       6.557766       178.4459 
 357   0.0000       6.560901       178.5312 
 358   0.0000       6.571448       178.8182 
 359   0.0000       6.579078       179.0258 
 360   0.0000       6.580982       179.0776 
 361   0.0000       6.585106       179.1898 
 362   0.0000       6.591665       179.3683 
 363   0.0000       6.598451       179.5530 
 364   0.0000       6.601638       179.6397 
 365   0.0000       6.607259       179.7927 
 366   0.0000       6.609825       179.8625 
 367   0.0000       6.611500       179.9081 
 368   0.0000       6.615694       180.0222 
 369   0.0000       6.622956       180.2198 
 370   0.0000       6.623508       180.2348 
 371   0.0000       6.628874       180.3808 
 372   0.0000       6.632238       180.4724 
 373   0.0000       6.634673       180.5386 
 374   0.0000       6.635238       180.5540 
[...]
     69 H        0.000      0.000      0.000      0.000     -0.000      0.000
     70 H        0.000      0.000      0.000     -0.000      0.001      0.018
     71 H        0.000      0.000      0.000      0.000      0.001      0.014
     72 H        0.000      0.000      0.000      0.000      0.003      0.035
                 25 H       27 H       28 H       30 H       31 H       33 H  
      3 H        0.076     -0.003      0.002      0.000      0.000      0.092
      4 H        2.322     -0.107      0.064      0.000      0.000      2.595
      8 H        0.116      0.000      0.000      0.000      0.000      0.108
      9 H       -0.265      0.014      0.000      0.000      0.000     -0.314
     10 H        0.000      0.000      0.000      0.000      0.000      0.000
     11 H        0.000      0.000      0.000      0.000      0.000      0.000
     13 H       -0.038      0.000      0.000      0.000      0.000      0.000
     16 H       -0.265      0.014     -0.004     -0.031     -0.002     -0.308
     17 H       -0.249      0.013      0.000      0.000      0.000     -0.308
     19 H        0.942     -0.045      0.075      0.064      0.005      0.994
     21 H       -2.865      0.186      0.675     -0.227     -0.028     -2.412
     24 H      -13.394      4.349      2.335      0.664     -0.499     -0.172
     25 H        0.000     12.941      5.242     -0.641     -0.361     -2.210
     27 H       12.941      0.000    -13.620      3.988     12.998      0.064
     28 H        5.242    -13.620      0.000      2.642      4.114      0.287
     30 H       -0.641      3.988      2.642      0.000    -13.008      0.036
     31 H       -0.361     12.998      4.114    -13.008      0.000     -0.315
     33 H       -2.210      0.064      0.287      0.036     -0.315      0.000
     35 H       -0.026      0.001     -0.001      0.000      0.000     -0.034
     37 H        0.274      0.005     -0.035      0.533     -0.040      6.204
     38 H        0.176      0.002     -0.028     -0.020      0.121     12.295
     40 H       -0.014      0.023      0.135     -0.000     -0.037     -0.247
     41 H        0.008      0.019     -0.029      0.013      0.090     -0.393
     42 H       -0.019      0.007     -0.005     -0.264     -0.393     -0.208
     45 H       -0.061     -0.117     -0.145     -0.156      1.818     -0.475
     46 H       -0.010     -0.204      0.028     -0.200     -0.475     -0.177
     47 H        0.015      0.037      0.059     -0.314      0.051      0.873
     48 H       -0.014      0.031      0.022      0.036      0.015     -0.002
     52 H       -0.002     -0.001      0.010     -0.009      0.003      0.017
     53 H       -0.000      0.000     -0.001      0.000     -0.001     -0.002
     57 H        0.000      0.000      0.000      0.001      0.001      0.000
     58 H        0.000      0.000      0.000      0.000      0.000     -0.000
     61 H        0.000      0.000      0.000      0.000      0.000      0.000
     62 H        0.000      0.000      0.000      0.000     -0.000     -0.000
     63 H        0.000      0.000      0.000      0.000      0.000      0.000
     64 H        0.000      0.000      0.000      0.000     -0.000     -0.000
     65 H       -0.000      0.000      0.000      0.000      0.000     -0.000
     66 H        0.000      0.000      0.000      0.000     -0.000      0.000
     67 H        0.000      0.000      0.000      0.000      0.000      0.000
     68 H        0.000      0.000      0.000      0.000      0.000     -0.000
     69 H        0.000      0.000      0.000      0.000     -0.000     -0.000
     70 H        0.003     -0.004     -0.007     -0.451     -0.097      0.004
     71 H       -0.000     -0.004     -0.005      0.045      0.001      0.001
     72 H        0.000     -0.008     -0.010      0.051     -0.060      0.006
                 35 H       37 H       38 H       40 H       41 H       42 H  
      3 H       -0.262     -0.001     -0.001      0.000      0.000      0.000
      4 H       -0.641     -0.045     -0.016      0.000      0.000      0.000
      8 H       -0.035     -0.002     -0.002      0.000     -0.000      0.000
      9 H       -0.160      0.005      0.002      0.000      0.001      0.000
     10 H       -0.402     -0.000     -0.000      0.000      0.000      0.000
     11 H       -0.145     -0.002     -0.000      0.000      0.000      0.000
     13 H       12.470      0.000      0.000      0.000      0.000      0.000
     16 H       -0.003      0.004      0.004      0.000      0.001     -0.001
     17 H       -0.002      0.005      0.004     -0.000      0.001      0.000
     19 H        0.045     -0.013      0.082      0.014     -0.005      0.004
     21 H       -0.015      0.054     -0.548     -0.010      0.061     -0.026
     24 H       -0.001     -0.052     -0.080     -0.022      0.072     -0.024
     25 H       -0.026      0.274      0.176     -0.014      0.008     -0.019
     27 H        0.001      0.005      0.002      0.023      0.019      0.007
     28 H       -0.001     -0.035     -0.028      0.135     -0.029     -0.005
     30 H        0.000      0.533     -0.020     -0.000      0.013     -0.264
     31 H        0.000     -0.040      0.121     -0.037      0.090     -0.393
     33 H       -0.034      6.204     12.295     -0.247     -0.393     -0.208
     35 H        0.000      0.000     -0.000      0.000      0.000      0.000
     37 H        0.000      0.000    -12.157      9.427      2.248     -0.247
     38 H       -0.000    -12.157      0.000      7.259     11.243     -0.463
     40 H        0.000      9.427      7.259      0.000    -13.839      9.677
     41 H        0.000      2.248     11.243    -13.839      0.000      8.068
     42 H        0.000     -0.247     -0.463      9.677      8.068      0.000
     45 H       -0.000      0.091     -0.076     -0.111     -0.035     -0.111
     46 H        0.000      0.053      0.034     -0.073      0.016      0.955
     47 H        0.000     -0.158      0.013      0.043      0.034     -0.400
     48 H        0.000      0.133      0.006     -0.153     -0.445     10.704
     52 H        0.000     -0.008     -0.003     -0.020      0.082     -0.564
     53 H        0.000      0.010      0.019     -0.147     -0.036     -0.407
     57 H        0.000      0.001      0.005     -0.011     -0.003      0.053
     58 H        0.000     -0.001     -0.001      0.015     -0.000     -0.007
     61 H        0.000      0.000      0.000     -0.001     -0.001     -0.000
     62 H        0.000      0.000      0.000      0.004      0.006     -0.004
     63 H        0.000      0.000      0.000      0.000      0.000      0.000
     64 H        0.000     -0.000      0.000     -0.016     -0.003     -0.000
     65 H        0.000     -0.000     -0.000     -0.097     -0.014     -0.001
     66 H        0.000     -0.000     -0.001     -0.011     -0.002     -0.002
     67 H        0.000      0.000      0.001     -0.009     -0.008      0.001
     68 H        0.000     -0.000     -0.000     -0.006     -0.006      0.002
     69 H        0.000      0.000      0.002     -0.040     -0.041      0.001
     70 H        0.000     -0.017     -0.002      0.033     -0.005     -0.168
     71 H        0.000     -0.025      0.031     -0.002     -0.072     -0.354
     72 H        0.000      0.060      0.010     -0.042     -0.014     -0.438
                 45 H       46 H       47 H       48 H       52 H       53 H  
      3 H        0.001     -0.000     -0.001      0.000      0.000      0.000
      4 H        0.026     -0.020     -0.020      0.000      0.000      0.000
      8 H        0.001     -0.001      0.000      0.000      0.000      0.000
      9 H       -0.003      0.003      0.000      0.000      0.000      0.000
     10 H        0.000     -0.000      0.000      0.000      0.000      0.000
     11 H        0.000      0.000      0.000      0.000      0.000      0.000
     13 H        0.000      0.000      0.000      0.000      0.000      0.000
     16 H       -0.003      0.001      0.003     -0.002      0.000      0.000
     17 H       -0.004      0.000      0.001     -0.002      0.000      0.000
     19 H        0.010     -0.012     -0.009      0.006      0.000      0.000
     21 H       -0.018      0.048      0.016     -0.016      0.000     -0.000
     24 H       -0.022     -0.022     -0.015      0.003      0.000     -0.000
     25 H       -0.061     -0.010      0.015     -0.014     -0.002     -0.000
     27 H       -0.117     -0.204      0.037      0.031     -0.001      0.000
     28 H       -0.145      0.028      0.059      0.022      0.010     -0.001
     30 H       -0.156     -0.200     -0.314      0.036     -0.009      0.000
     31 H        1.818     -0.475      0.051      0.015      0.003     -0.001
     33 H       -0.475     -0.177      0.873     -0.002      0.017     -0.002
     35 H       -0.000      0.000      0.000      0.000      0.000      0.000
     37 H        0.091      0.053     -0.158      0.133     -0.008      0.010
     38 H       -0.076      0.034      0.013      0.006     -0.003      0.019
     40 H       -0.111     -0.073      0.043     -0.153     -0.020     -0.147
     41 H       -0.035      0.016      0.034     -0.445      0.082     -0.036
     42 H       -0.111      0.955     -0.400     10.704     -0.564     -0.407
     45 H        0.000    -13.624    -13.081     -0.249      0.018     -0.000
     46 H      -13.624      0.000    -13.047     -0.153      0.018      0.004
     47 H      -13.081    -13.047      0.000     -0.062      0.010     -0.004
     48 H       -0.249     -0.153     -0.062      0.000      6.109     -1.914
     52 H        0.018      0.018      0.010      6.109      0.000     16.785
     53 H       -0.000      0.004     -0.004     -1.914     16.785      0.000
     57 H       -0.000      0.000     -0.001      0.119     -0.692     10.222
     58 H        0.000      0.000      0.000      0.223      0.159     -0.398
     61 H       -0.000      0.000      0.000     -0.052      0.045     -0.324
     62 H        0.000      0.000      0.000      0.118     -0.342     -0.059
     63 H       -0.000      0.000     -0.000     -0.059      0.134     -0.172
     64 H       -0.000      0.000      0.000      0.016     -0.016     -0.000
     65 H       -0.000      0.000      0.000     -0.014      0.104     -0.062
     66 H       -0.000      0.000      0.000      0.002      0.143     -0.027
     67 H       -0.000      0.000     -0.000      0.002      0.009     -0.008
     68 H       -0.000      0.000      0.000     -0.021      0.049     -0.042
     69 H       -0.000     -0.000     -0.000     -0.019      0.037      0.011
     70 H       -0.022     -0.075     -0.299      5.583     -0.053     -0.418
     71 H        0.026     -0.038     -0.056     12.361     -0.240      0.138
     72 H       -0.010     -0.031     -0.019      1.888     -0.208     -0.043
                 57 H       58 H       61 H       62 H       63 H       64 H  
      3 H        0.000      0.000      0.000      0.000      0.000      0.000
      4 H        0.000      0.000      0.000      0.000      0.000      0.000
      8 H        0.000      0.000      0.000      0.000      0.000      0.000
      9 H        0.000      0.000      0.000      0.000      0.000      0.000
     10 H        0.000      0.000      0.000      0.000      0.000      0.000
     11 H        0.000      0.000      0.000      0.000      0.000      0.000
     13 H        0.000      0.000      0.000      0.000      0.000      0.000
     16 H        0.000      0.000      0.000      0.000      0.000      0.000
     17 H        0.000      0.000      0.000      0.000      0.000      0.000
     19 H        0.000      0.000      0.000      0.000      0.000      0.000
     21 H        0.000      0.000      0.000      0.000      0.000      0.000
     24 H        0.000      0.000      0.000      0.000      0.000      0.000
     25 H        0.000      0.000      0.000      0.000      0.000      0.000
     27 H        0.000      0.000      0.000      0.000      0.000      0.000
     28 H        0.000      0.000      0.000      0.000      0.000      0.000
     30 H        0.001      0.000      0.000      0.000      0.000      0.000
     31 H        0.001      0.000      0.000     -0.000      0.000     -0.000
     33 H        0.000     -0.000      0.000     -0.000      0.000     -0.000
     35 H        0.000      0.000      0.000      0.000      0.000      0.000
     37 H        0.001     -0.001      0.000      0.000      0.000     -0.000
     38 H        0.005     -0.001      0.000      0.000      0.000      0.000
     40 H       -0.011      0.015     -0.001      0.004      0.000     -0.016
     41 H       -0.003     -0.000     -0.001      0.006      0.000     -0.003
     42 H        0.053     -0.007     -0.000     -0.004      0.000     -0.000
     45 H       -0.000      0.000     -0.000      0.000     -0.000     -0.000
     46 H        0.000      0.000      0.000      0.000      0.000      0.000
     47 H       -0.001      0.000      0.000      0.000     -0.000      0.000
     48 H        0.119      0.223     -0.052      0.118     -0.059      0.016
     52 H       -0.692      0.159      0.045     -0.342      0.134     -0.016
     53 H       10.222     -0.398     -0.324     -0.059     -0.172     -0.000
     57 H        0.000      3.005     13.007      2.465      4.802     -0.449
     58 H        3.005      0.000     -0.254     -0.318     -0.238      3.031
     61 H       13.007     -0.254      0.000    -12.345    -13.020     -0.286
     62 H        2.465     -0.318    -12.345      0.000    -12.503      0.005
     63 H        4.802     -0.238    -13.020    -12.503      0.000     -0.117
     64 H       -0.449      3.031     -0.286      0.005     -0.117      0.000
     65 H       -0.532     13.291      0.024      0.037      0.051    -12.079
     66 H        0.521      3.858     -0.096      0.045     -0.094    -13.081
     67 H       -0.319      3.143      0.039      0.056      0.007      2.926
     68 H       -0.085      3.649     -0.066      0.020      0.582     -0.035
     69 H       -0.270     13.089      0.032      0.023     -0.051     -0.288
     70 H        0.031     -0.021     -0.023      0.182     -0.020      0.002
     71 H       -0.005      0.000      0.003     -0.028      0.002     -0.001
     72 H        0.005     -0.006     -0.003      0.018     -0.003      0.000
                 65 H       66 H       67 H       68 H       69 H       70 H  
      3 H        0.000      0.000      0.000      0.000      0.000      0.000
      4 H        0.000      0.000      0.000      0.000      0.000      0.000
      8 H        0.000      0.000      0.000      0.000      0.000      0.000
      9 H        0.000      0.000      0.000      0.000      0.000      0.000
     10 H        0.000      0.000      0.000      0.000      0.000      0.000
     11 H        0.000      0.000      0.000      0.000      0.000      0.000
     13 H        0.000      0.000      0.000      0.000      0.000      0.000
     16 H        0.000      0.000      0.000      0.000      0.000      0.000
     17 H        0.000      0.000      0.000      0.000      0.000      0.000
     19 H        0.000      0.000      0.000      0.000      0.000     -0.000
     21 H       -0.000      0.000      0.000      0.000     -0.000      0.001
     24 H        0.000      0.000      0.000      0.000      0.000      0.018
     25 H       -0.000      0.000      0.000      0.000      0.000      0.003
     27 H        0.000      0.000      0.000      0.000      0.000     -0.004
     28 H        0.000      0.000      0.000      0.000      0.000     -0.007
     30 H        0.000      0.000      0.000      0.000      0.000     -0.451
     31 H        0.000     -0.000      0.000      0.000     -0.000     -0.097
     33 H       -0.000      0.000      0.000     -0.000     -0.000      0.004
     35 H        0.000      0.000      0.000      0.000      0.000      0.000
     37 H       -0.000     -0.000      0.000     -0.000      0.000     -0.017
     38 H       -0.000     -0.001      0.001     -0.000      0.002     -0.002
     40 H       -0.097     -0.011     -0.009     -0.006     -0.040      0.033
     41 H       -0.014     -0.002     -0.008     -0.006     -0.041     -0.005
     42 H       -0.001     -0.002      0.001      0.002      0.001     -0.168
     45 H       -0.000     -0.000     -0.000     -0.000     -0.000     -0.022
     46 H        0.000      0.000      0.000      0.000     -0.000     -0.075
     47 H        0.000      0.000     -0.000      0.000     -0.000     -0.299
     48 H       -0.014      0.002      0.002     -0.021     -0.019      5.583
     52 H        0.104      0.143      0.009      0.049      0.037     -0.053
     53 H       -0.062     -0.027     -0.008     -0.042      0.011     -0.418
     57 H       -0.532      0.521     -0.319     -0.085     -0.270      0.031
     58 H       13.291      3.858      3.143      3.649     13.089     -0.021
     61 H        0.024     -0.096      0.039     -0.066      0.032     -0.023
     62 H        0.037      0.045      0.056      0.020      0.023      0.182
     63 H        0.051     -0.094      0.007      0.582     -0.051     -0.020
     64 H      -12.079    -13.081      2.926     -0.035     -0.288      0.002
     65 H        0.000    -13.154     -0.236     -0.188     -0.325     -0.002
     66 H      -13.154      0.000     -0.032     -0.219     -0.222      0.000
     67 H       -0.236     -0.032      0.000    -12.379    -12.532     -0.002
     68 H       -0.188     -0.219    -12.379      0.000    -12.483      0.000
     69 H       -0.325     -0.222    -12.532    -12.483      0.000      0.005
     70 H       -0.002      0.000     -0.002      0.000      0.005      0.000
     71 H        0.001      0.000      0.000      0.002      0.001    -11.521
     72 H       -0.000     -0.001     -0.000     -0.001      0.001    -13.434
                 71 H       72 H  
      3 H        0.000      0.000
      4 H        0.000      0.000
      8 H        0.000      0.000
      9 H        0.000      0.000
     10 H        0.000      0.000
     11 H        0.000      0.000
     13 H        0.000      0.000
     16 H        0.000      0.000
     17 H        0.000      0.000
     19 H        0.000      0.000
     21 H        0.001      0.003
     24 H        0.014      0.035
     25 H       -0.000      0.000
     27 H       -0.004     -0.008
     28 H       -0.005     -0.010
     30 H        0.045      0.051
     31 H        0.001     -0.060
     33 H        0.001      0.006
     35 H        0.000      0.000
     37 H       -0.025      0.060
     38 H        0.031      0.010
     40 H       -0.002     -0.042
     41 H       -0.072     -0.014
     42 H       -0.354     -0.438
     45 H        0.026     -0.010
     46 H       -0.038     -0.031
     47 H       -0.056     -0.019
     48 H       12.361      1.888
     52 H       -0.240     -0.208
     53 H        0.138     -0.043
     57 H       -0.005      0.005
     58 H        0.000     -0.006
     61 H        0.003     -0.003
     62 H       -0.028      0.018
     63 H        0.002     -0.003
     64 H       -0.001      0.000
     65 H        0.001     -0.000
     66 H        0.000     -0.001
     67 H        0.000     -0.000
     68 H        0.002     -0.001
     69 H        0.001      0.001
     70 H      -11.521    -13.434
     71 H        0.000    -13.053
     72 H      -13.053      0.000

Maximum memory used throughout the entire EPRNMR-calculation: 986.2 MB

Timings for individual modules:

Sum of individual times         ...      407.093 sec (=   6.785 min)
GTO integral calculation        ...        0.569 sec (=   0.009 min)   0.1 %
SCF iterations                  ...      105.731 sec (=   1.762 min)  26.0 %
EPR/NMR calculation             ...      300.793 sec (=   5.013 min)  73.9 %
                             ****ORCA TERMINATED NORMALLY****
TOTAL RUN TIME: 0 days 0 hours 6 minutes 47 seconds 496 msec
