
                                 *****************
                                 * O   R   C   A *
                                 *****************

                                            #,                                       
                                            ###                                      
                                            ####                                     
                                            #####                                    
                                            ######                                   
                                           ########,                                 
                                     ,,################,,,,,                         
                               ,,#################################,,                 
                          ,,##########################################,,             
                       ,#########################################, ''#####,          
                    ,#############################################,,   '####,        
                  ,##################################################,,,,####,       
                ,###########''''           ''''###############################       
              ,#####''   ,,,,##########,,,,          '''####'''          '####       
            ,##' ,,,,###########################,,,                        '##       
           ' ,,###''''                  '''############,,,                           
         ,,##''                                '''############,,,,        ,,,,,,###''
      ,#''                                            '''#######################'''  
     '                                                          ''''####''''         
             ,#######,   #######,   ,#######,      ##                                
            ,#'     '#,  ##    ##  ,#'     '#,    #''#        ,####,   ,####,        
            ##       ##  ##   ,#'  ##            #'  '#       #'       #'  '#        
            ##       ##  #######   ##           ,######,      #####,   #    #        
            '#,     ,#'  ##    ##  '#,     ,#' ,#      #,     #,   #   #,  ,#        
             '#######'   ##     ##  '#######'  #'      '#     '####' # '####'        



                #########################################################
                #                        -***-                          #
                #          Department of theory and spectroscopy        #
                #                                                       #
                #                      Frank Neese                      #
                #                                                       #
                #     Directorship, Architecture, Infrastructure        #
                #                    SHARK, DRIVERS                     #
                #        Core code/Algorithms in most modules           #
                #                                                       #
                #        Max Planck Institute fuer Kohlenforschung      #
                #                Kaiser Wilhelm Platz 1                 #
                #                 D-45470 Muelheim/Ruhr                 #
                #                      Germany                          #
                #                                                       #
                #                  All rights reserved                  #
                #                        -***-                          #
                #########################################################


                         Program Version 6.0.0  -   RELEASE  -


 With contributions from (in alphabetic order):
   Daniel Aravena         : Magnetic Suceptibility
   Michael Atanasov       : Ab Initio Ligand Field Theory (pilot matlab implementation)
   Alexander A. Auer      : GIAO ZORA, VPT2 properties, NMR spectrum
   Ute Becker             : All parallelization in ORCA, NUMFREQ, NUMCALC
   Giovanni Bistoni       : ED, misc. LED, open-shell LED, HFLD
   Martin Brehm           : Molecular dynamics
   Dmytro Bykov           : pre 5.0 version of the SCF Hessian
   Marcos Casanova-Páez   : Triplet and SCS-CIS(D). UHF-(DLPNO)-IP/EA/STEOM-CCSD. UHF-CVS-IP/STEOM-CCSD
   Vijay G. Chilkuri      : MRCI spin determinant printing, contributions to CSF-ICE
   Pauline Colinet        : FMM embedding
   Dipayan Datta          : RHF DLPNO-CCSD density
   Achintya Kumar Dutta   : EOM-CC, STEOM-CC
   Nicolas Foglia         : Exact transition moments, OPA infrastructure, MCD improvements
   Dmitry Ganyushin       : Spin-Orbit,Spin-Spin,Magnetic field MRCI
   Miquel Garcia          : C-PCM and meta-GGA Hessian, CCSD/C-PCM, Gaussian charge scheme
   Tiago L. C. Gouveia    : GS-ROHF, GS-ROCIS
   Yang Guo               : DLPNO-NEVPT2, F12-NEVPT2, CIM, IAO-localization
   Andreas Hansen         : Spin unrestricted coupled pair/coupled cluster methods
   Ingolf Harden          : AUTO-CI MPn and infrastructure 
   Benjamin Helmich-Paris : MC-RPA, TRAH-(SCF,CASSCF), AVAS, COSX integrals, SCF dyn. polar.
   Lee Huntington         : MR-EOM, pCC
   Robert Izsak           : Overlap fitted RIJCOSX, COSX-SCS-MP3, EOM
   Riya Kayal             : Wick's Theorem for AUTO-CI, AUTO-CI UHF-CCSDT
   Emily Kempfer          : AUTO-CI, RHF CISDT and CCSDT
   Christian Kollmar      : KDIIS, OOCD, Brueckner-CCSD(T), CCSD density, CASPT2, CASPT2-K, improved NEVPT2
   Axel Koslowski         : Symmetry handling
   Simone Kossmann        : Meta GGA functionals, TD-DFT gradient, OOMP2, (MP2 Hessian; deprecated post 5.0)
   Lucas Lang             : DCDCAS
   Marvin Lechner         : AUTO-CI (C++ implementation), FIC-MRCC
   Spencer Leger          : CASSCF response
   Dagmar Lenk            : GEPOL surface, SMD, ORCA-2-JSON
   Dimitrios Liakos       : Extrapolation schemes; Compound Job, initial MDCI parallelization
   Dimitrios Manganas     : Further ROCIS development; embedding schemes. LFT, Crystal Embedding
   Dimitrios Pantazis     : SARC Basis sets
   Anastasios Papadopoulos: AUTO-CI, single reference methods and gradients
   Taras Petrenko         : pre 6.0 DFT Hessian and TD-DFT gradient, (ASA, deprecated), ECA, 1-Electron XAS/XES, NRVS
   Peter Pinski           : DLPNO-MP2, DLPNO-MP2 Gradient
   Christoph Reimann      : Effective Core Potentials
   Marius Retegan         : Local ZFS, SOC
   Christoph Riplinger    : Optimizer, TS searches, QM/MM, DLPNO-CCSD(T), (RO)-DLPNO pert. Triples
   Michael Roemelt        : Original ROCIS implementation
   Masaaki Saitow         : Open-shell DLPNO-CCSD energy and density
   Barbara Sandhoefer     : DKH picture change effects
   Kantharuban Sivalingam : CASSCF convergence/infrastructure, NEVPT2 and variants, FIC-MRCI
   Bernardo de Souza      : ESD, SOC TD-DFT
   Georgi Stoychev        : AutoAux, RI-MP2 NMR, DLPNO-MP2 response, X2C
   Van Anh Tran           : RI-MP2 g-tensors
   Willem Van den Heuvel  : Paramagnetic NMR
   Zikuan Wang            : NOTCH, Electric field optimization 
   Frank Wennmohs         : Technical directorship and infrastructure
   Hang Xu                : AUTO-CI-Response properties 


 We gratefully acknowledge several colleagues who have allowed us to
 interface, adapt or use parts of their codes:
   Stefan Grimme, W. Hujo, H. Kruse, P. Pracht,  : VdW corrections, initial TS optimization,
                  C. Bannwarth, S. Ehlert,         DFT functionals, gCP, sTDA/sTD-DF
                  L. Wittmann, M. Mueller
   Ed Valeev, F. Pavosevic, A. Kumar             : LibInt (2-el integral package), F12 methods
   Garnet Chan, S. Sharma, J. Yang, R. Olivares  : DMRG
   Ulf Ekstrom                                   : XCFun DFT Library
   Mihaly Kallay                                 : mrcc  (arbitrary order and MRCC methods)
   Frank Weinhold                                : gennbo (NPA and NBO analysis)
   Simon Mueller                                 : openCOSMO-RS
   Christopher J. Cramer and Donald G. Truhlar   : smd solvation model
   Lars Goerigk                                  : TD-DFT with DH, B97 family of functionals
   V. Asgeirsson, H. Jonsson                     : NEB implementation
   FAccTs GmbH                                   : IRC, NEB, NEB-TS, DLPNO-Multilevel, CI-OPT
                                                   MM, QMMM, 2- and 3-layer-ONIOM, Crystal-QMMM,
                                                   LR-CPCM, SF, NACMEs, symmetry and pop. for TD-DFT,
                                                   nearIR, NL-DFT gradient (VV10), updates on ESD,
                                                   ML-optimized integration grids, MBIS, APM,
                                                   GOAT, DOCKER, SOLVATOR, interface openCOSMO-RS
   S Lehtola, MJT Oliveira, MAL Marques          : LibXC Library
   Liviu Ungur et al                             : ANISO software


 Your calculation uses the libint2 library for the computation of 2-el integrals
 For citations please refer to: http://libint.valeyev.net

 Your ORCA version has been built with support for libXC version: 6.2.2
 For citations please refer to: https://libxc.gitlab.io

 This ORCA versions uses:
   CBLAS   interface :  Fast vector & matrix operations
   LAPACKE interface :  Fast linear algebra routines
   SCALAPACK package :  Parallel linear algebra routines
   Shared memory     :  Shared parallel matrices
   BLAS/LAPACK       :  OpenBLAS 0.3.27  USE64BITINT DYNAMIC_ARCH NO_AFFINITY Zen SINGLE_THREADED
        Core in use  :  Zen
   Copyright (c) 2011-2014, The OpenBLAS Project


NOTE: MaxCore=8000 MB was set to SCF,MP2,MDCI,CIPSI,MRCI and CIS
      => If you want to overwrite this, your respective input block should be placed after the MaxCore statement
Your calculation utilizes the atom-pairwise dispersion correction
based on EEQ partial charges (D4)


================================================================================

----- Orbital basis set information -----
Your calculation utilizes the basis: pcJ-0
   F. Jensen, Theor. Chem. Acc. 126, 371 (2010).

----- AuxJ basis set information -----
Your calculation utilizes the auxiliary basis: def2/J
   F. Weigend, Phys. Chem. Chem. Phys. 8, 1057 (2006).

================================================================================
                                        WARNINGS
                       Please study these warnings very carefully!
================================================================================

WARNING: Old DensityContainer found on disk!
         Will remove this file - 
         If you want to keep old densities, please start your calculation with a different basename. 


================================================================================
                                       INPUT FILE
================================================================================
NAME = inpJ
|  1> ! pbe0
|  2> ! D4
|  3> ! pcJ-0
|  4> ! def2/J RIJCOSX
|  5> ! DEFGRID2
|  6> ! scfconv7
|  7> ! smallprint printgap noloewdin
|  8> ! NOSOSCF
|  9> %MaxCore 8000
| 10> %output
| 11>        print[P_BondOrder_M] 1
| 12>        print[P_Mayer] 1
| 13>        print[P_basis] 2
| 14> end
| 15> %pal
| 16>     nprocs 4
| 17> end
| 18> ! CPCM(chloroform)
| 19> *xyz 0 1
| 20> C   -5.1679386200   0.2533097700   0.2125188200
| 21> C   -6.5533920900  -0.2507334900  -0.1174695200
| 22> C   -7.1249328700   0.4303545300  -1.3668895800
| 23> H   -7.2345291200  -0.0208599100   0.7194853900
| 24> H   -6.5472820900  -1.3376808700  -0.2541444100
| 25> C   -5.0527015200   1.7266728200   0.2556902800
| 26> C   -5.6695060900   2.4389771600  -0.9266783000
| 27> C   -7.0960294800   1.9459471800  -1.2047307100
| 28> H   -5.0526968800   2.2362700800  -1.8154112000
| 29> H   -5.6604079100   3.5217352400  -0.7629912200
| 30> H   -7.4930957100   2.4220809500  -2.1089712900
| 31> H   -7.7523866900   2.2229253900  -0.3659153100
| 32> O   -8.4437582300  -0.0491528300  -1.6603776000
| 33> H   -6.5201573900   0.1452997700  -2.2391482700
| 34> C   -4.1415667500  -0.6087936200   0.4051288900
| 35> C   -4.4934237900   2.3905420400   1.2739364900
| 36> H   -4.0789869600   1.8674504700   2.1311624700
| 37> H   -4.4485767700   3.4770956900   1.2757021700
| 38> C   -2.7586584600  -0.2587607800   0.6322015400
| 39> H   -4.3852530200  -1.6684101300   0.3407366200
| 40> C   -1.7516351100  -1.1114021400   0.9196129600
| 41> H   -2.5158032100   0.7984922300   0.5524123200
| 42> C   -1.8896821800  -2.5986665600   1.1267156700
| 43> C   -0.8893360300  -3.3967978800   0.2691613200
| 44> H   -2.9073589100  -2.9505801000   0.9361855500
| 45> H   -1.6755488600  -2.8100097300   2.1868191000
| 46> C    0.5513457700  -2.8880744300   0.4144176100
| 47> H   -1.1961683200  -3.3449738000  -0.7831013600
| 48> H   -0.9355794500  -4.4548811100   0.5548082600
| 49> C    0.6546623400  -1.3826445000   0.1314587100
| 50> H    1.2020275700  -3.4651236000  -0.2508125900
| 51> H    0.8982467200  -3.0727687900   1.4423394300
| 52> C   -0.3350837300  -0.6578852600   1.0967336100
| 53> H   -0.0277880400  -0.9869219400   2.1072425400
| 54> C    0.0393073100   0.8142970400   0.9688363700
| 55> H   -9.0119208700   0.1875373200  -0.9150837300
| 56> C    1.5806445800   0.7802141700   0.8320448900
| 57> H   -0.2965162200   1.4048529200   1.8279370600
| 58> H   -0.4195997300   1.2535777700   0.0758091600
| 59> C    1.9879952100  -0.7017765800   0.5552423200
| 60> H    2.0660289200   1.1532520500   1.7379109200
| 61> H    1.9211843400   1.4243106100   0.0123231600
| 62> H    2.2766315300  -1.1738865900   1.5076958900
| 63> C    3.1854565200  -0.7987252700  -0.4004316300
| 64> C    0.3100981400  -1.0721800500  -1.3320348200
| 65> H   -0.7482241000  -1.2594377800  -1.5383086400
| 66> H    0.9006580700  -1.6948390200  -2.0125079200
| 67> H    0.5098989400  -0.0255806300  -1.5831082200
| 68> H    2.9049582500  -0.2860137500  -1.3343758200
| 69> C    3.5833520000  -2.2399250100  -0.7697429300
| 70> C    4.4253303800  -0.1039219300   0.1177940400
| 71> C    4.7214479100   0.2051094700   1.3791720700
| 72> H    5.1775501600   0.1062549500  -0.6479954400
| 73> H    4.0038167000  -0.0028572100   2.1763331600
| 74> C    6.0125036800   0.8251324600   1.8367297200
| 75> C    6.7430923500  -0.1591560400   2.7645567900
| 76> C    5.7540331900   2.1916453100   2.5179370500
| 77> H    6.6433367100   1.0073638100   0.9519748200
| 78> H    5.0693676500   2.0091923600   3.3624407000
| 79> C    5.0767030400   3.1658719900   1.5503804500
| 80> C    7.0397033500   2.8150599800   3.0693622500
| 81> H    6.8348427200  -1.1383360400   2.2833738800
| 82> H    6.1849590400  -0.2935493000   3.6997764400
| 83> H    7.7495207500   0.1882853000   3.0157184500
| 84> H    4.8752428300   4.1246585000   2.0407015000
| 85> H    4.1304458300   2.7667720000   1.1726038200
| 86> H    5.7273197300   3.3583804300   0.6872187600
| 87> H    7.7908080200   2.9135839400   2.2747533300
| 88> H    7.4763415300   2.2214231900   3.8774301900
| 89> H    6.8390407600   3.8169673800   3.4647524600
| 90> H    4.5241729000  -2.2421947500  -1.3315397200
| 91> H    2.8270123300  -2.7302534900  -1.3880171700
| 92> H    3.7329279000  -2.8375400400   0.1371453900
| 93> *
| 94> %eprnmr
| 95>  Nuclei = all C { ssfc }
| 96>  SpinSpinRThresh 8.0
| 97> end
| 98> 
| 99>                          ****END OF INPUT****
================================================================================

                       ****************************
                       * Single Point Calculation *
                       ****************************

---------------------------------
CARTESIAN COORDINATES (ANGSTROEM)
---------------------------------
  C     -5.167939    0.253310    0.212519
  C     -6.553392   -0.250733   -0.117470
  C     -7.124933    0.430355   -1.366890
  H     -7.234529   -0.020860    0.719485
  H     -6.547282   -1.337681   -0.254144
  C     -5.052702    1.726673    0.255690
  C     -5.669506    2.438977   -0.926678
  C     -7.096029    1.945947   -1.204731
  H     -5.052697    2.236270   -1.815411
  H     -5.660408    3.521735   -0.762991
  H     -7.493096    2.422081   -2.108971
  H     -7.752387    2.222925   -0.365915
  O     -8.443758   -0.049153   -1.660378
  H     -6.520157    0.145300   -2.239148
  C     -4.141567   -0.608794    0.405129
  C     -4.493424    2.390542    1.273936
  H     -4.078987    1.867450    2.131162
  H     -4.448577    3.477096    1.275702
  C     -2.758658   -0.258761    0.632202
  H     -4.385253   -1.668410    0.340737
  C     -1.751635   -1.111402    0.919613
  H     -2.515803    0.798492    0.552412
  C     -1.889682   -2.598667    1.126716
  C     -0.889336   -3.396798    0.269161
  H     -2.907359   -2.950580    0.936186
  H     -1.675549   -2.810010    2.186819
  C      0.551346   -2.888074    0.414418
  H     -1.196168   -3.344974   -0.783101
  H     -0.935579   -4.454881    0.554808
  C      0.654662   -1.382644    0.131459
  H      1.202028   -3.465124   -0.250813
  H      0.898247   -3.072769    1.442339
  C     -0.335084   -0.657885    1.096734
  H     -0.027788   -0.986922    2.107243
  C      0.039307    0.814297    0.968836
  H     -9.011921    0.187537   -0.915084
  C      1.580645    0.780214    0.832045
  H     -0.296516    1.404853    1.827937
  H     -0.419600    1.253578    0.075809
  C      1.987995   -0.701777    0.555242
  H      2.066029    1.153252    1.737911
  H      1.921184    1.424311    0.012323
  H      2.276632   -1.173887    1.507696
  C      3.185457   -0.798725   -0.400432
  C      0.310098   -1.072180   -1.332035
  H     -0.748224   -1.259438   -1.538309
  H      0.900658   -1.694839   -2.012508
  H      0.509899   -0.025581   -1.583108
  H      2.904958   -0.286014   -1.334376
  C      3.583352   -2.239925   -0.769743
  C      4.425330   -0.103922    0.117794
  C      4.721448    0.205109    1.379172
  H      5.177550    0.106255   -0.647995
  H      4.003817   -0.002857    2.176333
  C      6.012504    0.825132    1.836730
  C      6.743092   -0.159156    2.764557
  C      5.754033    2.191645    2.517937
  H      6.643337    1.007364    0.951975
  H      5.069368    2.009192    3.362441
  C      5.076703    3.165872    1.550380
  C      7.039703    2.815060    3.069362
  H      6.834843   -1.138336    2.283374
  H      6.184959   -0.293549    3.699776
  H      7.749521    0.188285    3.015718
  H      4.875243    4.124658    2.040701
  H      4.130446    2.766772    1.172604
  H      5.727320    3.358380    0.687219
  H      7.790808    2.913584    2.274753
  H      7.476342    2.221423    3.877430
  H      6.839041    3.816967    3.464752
  H      4.524173   -2.242195   -1.331540
  H      2.827012   -2.730253   -1.388017
  H      3.732928   -2.837540    0.137145

----------------------------
CARTESIAN COORDINATES (A.U.)
----------------------------
  NO LB      ZA    FRAG     MASS         X           Y           Z
   0 C     6.0000    0    12.011   -9.765989    0.478686    0.401602
   1 C     6.0000    0    12.011  -12.384116   -0.473818   -0.221985
   2 C     6.0000    0    12.011  -13.464172    0.813252   -2.583047
   3 H     1.0000    0     1.008  -13.671279   -0.039420    1.359630
   4 H     1.0000    0     1.008  -12.372570   -2.527850   -0.480263
   5 C     6.0000    0    12.011   -9.548222    3.262939    0.483185
   6 C     6.0000    0    12.011  -10.713814    4.608999   -1.751168
   7 C     6.0000    0    12.011  -13.409552    3.677307   -2.276611
   8 H     1.0000    0     1.008   -9.548213    4.225938   -3.430630
   9 H     1.0000    0     1.008  -10.696621    6.655115   -1.441844
  10 H     1.0000    0     1.008  -14.159899    4.577070   -3.985378
  11 H     1.0000    0     1.008  -14.649888    4.200720   -0.691480
  12 O     8.0000    0    15.999  -15.956391   -0.092885   -3.137659
  13 H     1.0000    0     1.008  -12.321312    0.274577   -4.231377
  14 C     6.0000    0    12.011   -7.826427   -1.150453    0.765583
  15 C     6.0000    0    12.011   -8.491340    4.517470    2.407391
  16 H     1.0000    0     1.008   -7.708168    3.528970    4.027313
  17 H     1.0000    0     1.008   -8.406592    6.570759    2.410728
  18 C     6.0000    0    12.011   -5.213109   -0.488987    1.194688
  19 H     1.0000    0     1.008   -8.286927   -3.152838    0.643899
  20 C     6.0000    0    12.011   -3.310111   -2.100246    1.737817
  21 H     1.0000    0     1.008   -4.754179    1.508932    1.043908
  22 C     6.0000    0    12.011   -3.570982   -4.910768    2.129184
  23 C     6.0000    0    12.011   -1.680602   -6.419018    0.508641
  24 H     1.0000    0     1.008   -5.494112   -5.575788    1.769134
  25 H     1.0000    0     1.008   -3.166328   -5.310149    4.132489
  26 C     6.0000    0    12.011    1.041893   -5.457670    0.783136
  27 H     1.0000    0     1.008   -2.260431   -6.321084   -1.479847
  28 H     1.0000    0     1.008   -1.767989   -8.418505    1.048436
  29 C     6.0000    0    12.011    1.237133   -2.612819    0.248421
  30 H     1.0000    0     1.008    2.271503   -6.548135   -0.473967
  31 H     1.0000    0     1.008    1.697440   -5.806691    2.725627
  32 C     6.0000    0    12.011   -0.633216   -1.243223    2.072526
  33 H     1.0000    0     1.008   -0.052512   -1.865012    3.982111
  34 C     6.0000    0    12.011    0.074280    1.538798    1.830835
  35 H     1.0000    0     1.008  -17.030062    0.354394   -1.729258
  36 C     6.0000    0    12.011    2.986985    1.474391    1.572337
  37 H     1.0000    0     1.008   -0.560334    2.654787    3.454300
  38 H     1.0000    0     1.008   -0.792929    2.368919    0.143259
  39 C     6.0000    0    12.011    3.756767   -1.326166    1.049256
  40 H     1.0000    0     1.008    3.904229    2.179331    3.284176
  41 H     1.0000    0     1.008    3.630512    2.691557    0.023287
  42 H     1.0000    0     1.008    4.302210   -2.218324    2.849132
  43 C     6.0000    0    12.011    6.019640   -1.509372   -0.756706
  44 C     6.0000    0    12.011    0.586001   -2.026127   -2.517181
  45 H     1.0000    0     1.008   -1.413939   -2.379992   -2.906982
  46 H     1.0000    0     1.008    1.701997   -3.202782   -3.803089
  47 H     1.0000    0     1.008    0.963569   -0.048340   -2.991641
  48 H     1.0000    0     1.008    5.489576   -0.540488   -2.521605
  49 C     6.0000    0    12.011    6.771554   -4.232845   -1.454603
  50 C     6.0000    0    12.011    8.362662   -0.196384    0.222598
  51 C     6.0000    0    12.011    8.922244    0.387601    2.606258
  52 H     1.0000    0     1.008    9.784152    0.200793   -1.224534
  53 H     1.0000    0     1.008    7.566117   -0.005399    4.112674
  54 C     6.0000    0    12.011   11.361985    1.559274    3.470916
  55 C     6.0000    0    12.011   12.742598   -0.300761    5.224255
  56 C     6.0000    0    12.011   10.873547    4.141609    4.758211
  57 H     1.0000    0     1.008   12.554087    1.903642    1.798972
  58 H     1.0000    0     1.008    9.579717    3.796823    6.354092
  59 C     6.0000    0    12.011    9.593578    5.982631    2.929794
  60 C     6.0000    0    12.011   13.303111    5.319692    5.800254
  61 H     1.0000    0     1.008   12.915981   -2.151143    4.314951
  62 H     1.0000    0     1.008   11.687879   -0.554728    6.991564
  63 H     1.0000    0     1.008   14.644472    0.355808    5.698882
  64 H     1.0000    0     1.008    9.212874    7.794475    3.856367
  65 H     1.0000    0     1.008    7.805411    5.228441    2.215900
  66 H     1.0000    0     1.008   10.823066    6.346419    1.298655
  67 H     1.0000    0     1.008   14.722494    5.505876    4.298661
  68 H     1.0000    0     1.008   14.128238    4.197881    7.327281
  69 H     1.0000    0     1.008   12.923914    7.213023    6.547433
  70 H     1.0000    0     1.008    8.549448   -4.237134   -2.516245
  71 H     1.0000    0     1.008    5.342279   -5.159431   -2.622972
  72 H     1.0000    0     1.008    7.054211   -5.362174    0.259167

--------------------------------
INTERNAL COORDINATES (ANGSTROEM)
--------------------------------
 C      0   0   0     0.000000000000     0.00000000     0.00000000
 C      1   0   0     1.510772395175     0.00000000     0.00000000
 C      2   1   0     1.533489563225   111.81256139     0.00000000
 H      2   1   3     1.103305505194   109.32609033   241.47249984
 H      2   1   3     1.095523602916   110.68049656   122.94153647
 C      1   2   3     1.478493165787   114.22556635    50.17518564
 C      6   1   2     1.511893121000   114.51087159   312.25842924
 C      3   2   1     1.524516968029   110.35360719   305.18291002
 H      7   6   1     1.100631604746   108.42606313   289.95195856
 H      7   6   1     1.095098761228   110.21483732   172.72266897
 H      8   3   2     1.096364895671   109.70318863   179.18283816
 H      8   3   2     1.100514875506   108.66131711   296.63611916
 O      3   2   1     1.433653673785   111.16748036   180.51541204
 H      3   2   1     1.099019935983   109.04763615    65.34999782
 C      1   2   3     1.354163989199   120.91280200   232.01348951
 C      6   1   2     1.338035599196   123.31421424   129.98475052
 H     16   6   1     1.086378873806   121.40190776     0.66674266
 H     16   6   1     1.087480210007   120.94415776   181.35957038
 C     15   1   2     1.444479254267   126.42133350   175.38558272
 H     15   1   2     1.089181578474   116.19104779   358.03301334
 C     19  15   1     1.350443867984   126.46777835   174.88198887
 H     19  15   1     1.087717297479   115.96104282   354.31438652
 C     21  19  15     1.507946942377   125.70998704   356.81339925
 C     23  21  19     1.540488716930   112.03016400   129.02478421
 H     23  21  19     1.093531340678   112.25111628     4.79305732
 H     23  21  19     1.101970188588   107.66733606   247.69893054
 C     24  23  21     1.534751767295   112.65277635    50.48464595
 H     24  23  21     1.097309681528   109.13388630   288.34447025
 H     24  23  21     1.096937896980   109.11193698   172.38198677
 C     27  24  23     1.535271743655   111.76210108   306.06167760
 H     27  24  23     1.094944641724   109.00473013   182.49297286
 H     27  24  23     1.100488774935   109.18848436    65.97103965
 C     21  19  15     1.497887544938   122.62982719   178.00362873
 H     33  21  19     1.106265824966   106.29914844   122.81079164
 C     33  21  19     1.524416963716   120.97979806     0.47765776
 H     13   3   2     0.966588829471   107.51619971    62.61325502
 C     35  33  21     1.547770697138   103.33971685   194.97422407
 H     35  33  21     1.095256904230   112.30924621    73.19189895
 H     35  33  21     1.095929207983   110.64767417   313.52457544
 C     30  27  24     1.555940299244   115.88434222   166.76894704
 H     37  35  33     1.093319935673   111.18430580   251.64848983
 H     37  35  33     1.096709290011   111.24430825   133.35006808
 H     40  30  27     1.101529205138   105.81296296   321.87416922
 C     40  30  27     1.535130397116   118.11525291    82.72956657
 C     30  27  24     1.535228313635   111.03180085   295.04226768
 H     45  30  27     1.094376676442   111.23041812    67.84639100
 H     45  30  27     1.095220920028   110.87244021   307.80068097
 H     45  30  27     1.094681943677   111.77856367   187.72590328
 H     44  40  30     1.101727794080   107.44215045    62.64326675
 C     44  40  30     1.540054654838   114.19984823   303.71911833
 C     44  40  30     1.512810865585   113.39367696   180.14507352
 C     51  44  40     1.332013713265   127.81739016    21.57936268
 H     51  44  40     1.093820115919   114.33370209   197.73141581
 H     52  51  44     1.092570591297   120.04958996   356.98257177
 C     52  51  44     1.503533342647   125.08200842   176.15398363
 C     55  52  51     1.537350554620   109.12972914   243.88838085
 C     55  52  51     1.548614797121   110.75873844   119.81515213
 H     55  52  51     1.101793905291   108.38916635     1.95535204
 H     57  55  52     1.102380331596   107.13332640    58.05171569
 C     57  55  52     1.531032178083   110.93720581   299.98351793
 C     57  55  52     1.531555863258   112.17579514   176.68875920
 H     56  55  52     1.094873780703   110.31484878    52.09191335
 H     56  55  52     1.097365086838   110.55171085   292.80781777
 H     56  55  52     1.093935916094   111.86549639   172.24293015
 H     60  57  55     1.095569495762   110.81745531   178.78041728
 H     60  57  55     1.094257141475   111.63311157    57.91922979
 H     60  57  55     1.097911508211   110.25803257   298.17730223
 H     61  57  55     1.097847226044   110.50302109    55.95552002
 H     61  57  55     1.093632175062   112.34830912   295.15925076
 H     61  57  55     1.095635583287   110.39026089   175.01701533
 H     50  44  40     1.095794118825   110.28605593   188.15483808
 H     50  44  40     1.093039226452   112.12716515    68.20675946
 H     50  44  40     1.096340776809   110.30359531   307.12845545

---------------------------
INTERNAL COORDINATES (A.U.)
---------------------------
 C      0   0   0     0.000000000000     0.00000000     0.00000000
 C      1   0   0     2.854946077569     0.00000000     0.00000000
 C      2   1   0     2.897875303722   111.81256139     0.00000000
 H      2   1   3     2.084945246865   109.32609033   241.47249984
 H      2   1   3     2.070239582757   110.68049656   122.94153647
 C      1   2   3     2.793947174213   114.22556635    50.17518564
 C      6   1   2     2.857063942449   114.51087159   312.25842924
 C      3   2   1     2.880919556090   110.35360719   305.18291002
 H      7   6   1     2.079892307308   108.42606313   289.95195856
 H      7   6   1     2.069436748318   110.21483732   172.72266897
 H      8   3   2     2.071829395663   109.70318863   179.18283816
 H      8   3   2     2.079671721014   108.66131711   296.63611916
 O      3   2   1     2.709212814343   111.16748036   180.51541204
 H      3   2   1     2.076846694728   109.04763615    65.34999782
 C      1   2   3     2.558999080004   120.91280200   232.01348951
 C      6   1   2     2.528520839918   123.31421424   129.98475052
 H     16   6   1     2.052958549172   121.40190776     0.66674266
 H     16   6   1     2.055039772973   120.94415776   181.35957038
 C     15   1   2     2.729670196695   126.42133350   175.38558272
 H     15   1   2     2.058254893428   116.19104779   358.03301334
 C     19  15   1     2.551969069722   126.46777835   174.88198887
 H     19  15   1     2.055487803364   115.96104282   354.31438652
 C     21  19  15     2.849606745576   125.70998704   356.81339925
 C     23  21  19     2.911101787393   112.03016400   129.02478421
 H     23  21  19     2.066474752742   112.25111628     4.79305732
 H     23  21  19     2.082421864178   107.66733606   247.69893054
 C     24  23  21     2.900260523740   112.65277635    50.48464595
 H     24  23  21     2.073614782188   109.13388630   288.34447025
 H     24  23  21     2.072912211213   109.11193698   172.38198677
 C     27  24  23     2.901243136656   111.76210108   306.06167760
 H     27  24  23     2.069145504664   109.00473013   182.49297286
 H     27  24  23     2.079622398082   109.18848436    65.97103965
 C     21  19  15     2.830597239345   122.62982719   178.00362873
 H     33  21  19     2.090539440502   106.29914844   122.81079164
 C     33  21  19     2.880730575327   120.97979806     0.47765776
 H     13   3   2     1.826588171808   107.51619971    62.61325502
 C     35  33  21     2.924862735699   103.33971685   194.97422407
 H     35  33  21     2.069735595280   112.30924621    73.19189895
 H     35  33  21     2.071006065254   110.64767417   313.52457544
 C     30  27  24     2.940301046303   115.88434222   166.76894704
 H     37  35  33     2.066075255178   111.18430580   251.64848983
 H     37  35  33     2.072480206647   111.24430825   133.35006808
 H     40  30  27     2.081588526226   105.81296296   321.87416922
 C     40  30  27     2.900976030406   118.11525291    82.72956657
 C     30  27  24     2.901161065812   111.03180085   295.04226768
 H     45  30  27     2.068072205827   111.23041812    67.84639100
 H     45  30  27     2.069667594994   110.87244021   307.80068097
 H     45  30  27     2.068649077298   111.77856367   187.72590328
 H     44  40  30     2.081963804940   107.44215045    62.64326675
 C     44  40  30     2.910281528914   114.19984823   303.71911833
 C     44  40  30     2.858798228377   113.39367696   180.14507352
 C     51  44  40     2.517141124698   127.81739016    21.57936268
 H     51  44  40     2.067020458860   114.33370209   197.73141581
 H     52  51  44     2.064659199527   120.04958996   356.98257177
 C     52  51  44     2.841266250823   125.08200842   176.15398363
 C     55  52  51     2.905171520063   109.12972914   243.88838085
 C     55  52  51     2.926457853496   110.75873844   119.81515213
 H     55  52  51     2.082088737023   108.38916635     1.95535204
 H     57  55  52     2.083196922138   107.13332640    58.05171569
 C     57  55  52     2.893231518798   110.93720581   299.98351793
 C     57  55  52     2.894221140359   112.17579514   176.68875920
 H     56  55  52     2.069011596740   110.31484878    52.09191335
 H     56  55  52     2.073719483051   110.55171085   292.80781777
 H     56  55  52     2.067239289479   111.86549639   172.24293015
 H     60  57  55     2.070326307668   110.81745531   178.78041728
 H     60  57  55     2.067846317475   111.63311157    57.91922979
 H     60  57  55     2.074752069799   110.25803257   298.17730223
 H     61  57  55     2.074630594109   110.50302109    55.95552002
 H     61  57  55     2.066665302112   112.34830912   295.15925076
 H     61  57  55     2.070451194991   110.39026089   175.01701533
 H     50  44  40     2.070750783740   110.28605593   188.15483808
 H     50  44  40     2.065544791627   112.12716515    68.20675946
 H     50  44  40     2.071783817620   110.30359531   307.12845545

---------------------
BASIS SET INFORMATION
---------------------
There are 3 groups of distinct atoms

 Group   1 Type C   : 7s4p contracted to 4s3p pattern {4111/211}
 Group   2 Type H   : 5s contracted to 3s pattern {311}
 Group   3 Type O   : 7s4p contracted to 4s3p pattern {4111/211}

Atom   0C    basis set group =>   1
Atom   1C    basis set group =>   1
Atom   2C    basis set group =>   1
Atom   3H    basis set group =>   2
Atom   4H    basis set group =>   2
Atom   5C    basis set group =>   1
Atom   6C    basis set group =>   1
Atom   7C    basis set group =>   1
Atom   8H    basis set group =>   2
Atom   9H    basis set group =>   2
Atom  10H    basis set group =>   2
Atom  11H    basis set group =>   2
Atom  12O    basis set group =>   3
Atom  13H    basis set group =>   2
Atom  14C    basis set group =>   1
Atom  15C    basis set group =>   1
Atom  16H    basis set group =>   2
Atom  17H    basis set group =>   2
Atom  18C    basis set group =>   1
Atom  19H    basis set group =>   2
Atom  20C    basis set group =>   1
Atom  21H    basis set group =>   2
Atom  22C    basis set group =>   1
Atom  23C    basis set group =>   1
Atom  24H    basis set group =>   2
Atom  25H    basis set group =>   2
Atom  26C    basis set group =>   1
Atom  27H    basis set group =>   2
Atom  28H    basis set group =>   2
Atom  29C    basis set group =>   1
Atom  30H    basis set group =>   2
Atom  31H    basis set group =>   2
Atom  32C    basis set group =>   1
Atom  33H    basis set group =>   2
Atom  34C    basis set group =>   1
Atom  35H    basis set group =>   2
Atom  36C    basis set group =>   1
Atom  37H    basis set group =>   2
Atom  38H    basis set group =>   2
Atom  39C    basis set group =>   1
Atom  40H    basis set group =>   2
Atom  41H    basis set group =>   2
Atom  42H    basis set group =>   2
Atom  43C    basis set group =>   1
Atom  44C    basis set group =>   1
Atom  45H    basis set group =>   2
Atom  46H    basis set group =>   2
Atom  47H    basis set group =>   2
Atom  48H    basis set group =>   2
Atom  49C    basis set group =>   1
Atom  50C    basis set group =>   1
Atom  51C    basis set group =>   1
Atom  52H    basis set group =>   2
Atom  53H    basis set group =>   2
Atom  54C    basis set group =>   1
Atom  55C    basis set group =>   1
Atom  56C    basis set group =>   1
Atom  57H    basis set group =>   2
Atom  58H    basis set group =>   2
Atom  59C    basis set group =>   1
Atom  60C    basis set group =>   1
Atom  61H    basis set group =>   2
Atom  62H    basis set group =>   2
Atom  63H    basis set group =>   2
Atom  64H    basis set group =>   2
Atom  65H    basis set group =>   2
Atom  66H    basis set group =>   2
Atom  67H    basis set group =>   2
Atom  68H    basis set group =>   2
Atom  69H    basis set group =>   2
Atom  70H    basis set group =>   2
Atom  71H    basis set group =>   2
Atom  72H    basis set group =>   2

-------------------------
BASIS SET IN INPUT FORMAT
-------------------------

 # Basis set for element : H 
 NewGTO H 
 S 3 
   1    1357.7500000000      0.0012928364
   2      54.3100000000      0.0588280685
   3       4.3448000000      0.9761499708
 S 1 
   1       0.6604910000      1.0000000000
 S 1 
   1       0.1366870000      1.0000000000
  end;

 # Basis set for element : C 
 NewGTO C 
 S 4 
   1  139534.0000000000      0.0001655246
   2    5581.3600000000      0.0074486101
   3     446.5090000000      0.1285821065
   4      67.4620000000      0.9218029311
 S 1 
   1      15.0674000000      1.0000000000
 S 1 
   1       3.9387600000      1.0000000000
 S 1 
   1       0.2999150000      1.0000000000
 P 2 
   1      28.3900000000      0.0816325586
   2       4.3676900000      0.9660360576
 P 1 
   1       0.8698170000      1.0000000000
 P 1 
   1       0.1889340000      1.0000000000
  end;

 # Basis set for element : O 
 NewGTO O 
 S 4 
   1  253789.0000000000      0.0001641076
   2   10151.6000000000      0.0074010921
   3     812.1250000000      0.1277711901
   4     122.6930000000      0.9223372164
 S 1 
   1      27.5608000000      1.0000000000
 S 1 
   1       7.3172600000      1.0000000000
 S 1 
   1       0.5792400000      1.0000000000
 P 2 
   1      53.4157000000      0.0793786106
   2       8.2177900000      0.9670506337
 P 1 
   1       1.6754400000      1.0000000000
 P 1 
   1       0.3506720000      1.0000000000
  end;

---------------------------------
AUXILIARY/J BASIS SET INFORMATION
---------------------------------
There are 3 groups of distinct atoms

 Group   1 Type C   : 12s5p4d2f1g contracted to 6s4p3d1f1g pattern {711111/2111/211/2/1}
 Group   2 Type H   : 5s2p1d contracted to 3s1p1d pattern {311/2/1}
 Group   3 Type O   : 12s5p4d2f1g contracted to 6s4p3d1f1g pattern {711111/2111/211/2/1}

Atom   0C    basis set group =>   1
Atom   1C    basis set group =>   1
Atom   2C    basis set group =>   1
Atom   3H    basis set group =>   2
Atom   4H    basis set group =>   2
Atom   5C    basis set group =>   1
Atom   6C    basis set group =>   1
Atom   7C    basis set group =>   1
Atom   8H    basis set group =>   2
Atom   9H    basis set group =>   2
Atom  10H    basis set group =>   2
Atom  11H    basis set group =>   2
Atom  12O    basis set group =>   3
Atom  13H    basis set group =>   2
Atom  14C    basis set group =>   1
Atom  15C    basis set group =>   1
Atom  16H    basis set group =>   2
Atom  17H    basis set group =>   2
Atom  18C    basis set group =>   1
Atom  19H    basis set group =>   2
Atom  20C    basis set group =>   1
Atom  21H    basis set group =>   2
Atom  22C    basis set group =>   1
Atom  23C    basis set group =>   1
Atom  24H    basis set group =>   2
Atom  25H    basis set group =>   2
Atom  26C    basis set group =>   1
Atom  27H    basis set group =>   2
Atom  28H    basis set group =>   2
Atom  29C    basis set group =>   1
Atom  30H    basis set group =>   2
Atom  31H    basis set group =>   2
Atom  32C    basis set group =>   1
Atom  33H    basis set group =>   2
Atom  34C    basis set group =>   1
Atom  35H    basis set group =>   2
Atom  36C    basis set group =>   1
Atom  37H    basis set group =>   2
Atom  38H    basis set group =>   2
Atom  39C    basis set group =>   1
Atom  40H    basis set group =>   2
Atom  41H    basis set group =>   2
Atom  42H    basis set group =>   2
Atom  43C    basis set group =>   1
Atom  44C    basis set group =>   1
Atom  45H    basis set group =>   2
Atom  46H    basis set group =>   2
Atom  47H    basis set group =>   2
Atom  48H    basis set group =>   2
Atom  49C    basis set group =>   1
Atom  50C    basis set group =>   1
Atom  51C    basis set group =>   1
Atom  52H    basis set group =>   2
Atom  53H    basis set group =>   2
Atom  54C    basis set group =>   1
Atom  55C    basis set group =>   1
Atom  56C    basis set group =>   1
Atom  57H    basis set group =>   2
Atom  58H    basis set group =>   2
Atom  59C    basis set group =>   1
Atom  60C    basis set group =>   1
Atom  61H    basis set group =>   2
Atom  62H    basis set group =>   2
Atom  63H    basis set group =>   2
Atom  64H    basis set group =>   2
Atom  65H    basis set group =>   2
Atom  66H    basis set group =>   2
Atom  67H    basis set group =>   2
Atom  68H    basis set group =>   2
Atom  69H    basis set group =>   2
Atom  70H    basis set group =>   2
Atom  71H    basis set group =>   2
Atom  72H    basis set group =>   2

-------------------------------------
AUXILIARY/J BASIS SET IN INPUT FORMAT
-------------------------------------

 # Auxiliary/J basis set for element : H 
 NewAuxJGTO H 
 S 3 
   1      15.6752927000      0.1007184237
   2       3.6063578000      0.3404257499
   3       1.2080016000      0.6491996172
 S 1 
   1       0.4726794000      1.0000000000
 S 1 
   1       0.2018100000      1.0000000000
 P 2 
   1       2.0281365000      0.5596620919
   2       0.5358730000      0.5596620919
 D 1 
   1       2.2165124000      1.0000000000
  end;

 # Auxiliary/J basis set for element : C 
 NewAuxJGTO C 
 S 7 
   1    1861.0916331000      0.0134602335
   2     642.9939764000      0.0299160374
   3     235.1105725000      0.1008649584
   4      90.7028894000      0.2370970548
   5      36.7794552000      0.3924037254
   6      15.6046273000      0.3195862154
   7       6.8907294000      0.0530104441
 S 1 
   1       3.1478850000     -1.0000000000
 S 1 
   1       1.4777287000      1.0000000000
 S 1 
   1       0.7076466000      1.0000000000
 S 1 
   1       0.3430122000      1.0000000000
 S 1 
   1       0.1669453000      1.0000000000
 P 2 
   1      13.5472892000     -0.6769313712
   2       5.4669419000     -0.3779500978
 P 1 
   1       2.1751721000      1.0000000000
 P 1 
   1       0.8582194000      1.0000000000
 P 1 
   1       0.3376720000      1.0000000000
 D 2 
   1       5.9287253000     -0.3533329857
   2       1.9809209000     -0.7456525731
 D 1 
   1       0.8055417000     -1.0000000000
 D 1 
   1       0.3531244000     -1.0000000000
 F 2 
   1       1.6755626000      0.6311076882
   2       0.5997536000      0.4968166032
 G 1 
   1       1.0024600000     -1.0000000000
  end;

 # Auxiliary/J basis set for element : O 
 NewAuxJGTO O 
 S 7 
   1    2876.8216605000      0.0168151159
   2    1004.7443032000      0.0340137548
   3     369.7579954000      0.1194951309
   4     142.9442404000      0.2664627624
   5      57.8366425000      0.4202764046
   6      24.3864983000      0.2765077335
   7      10.6622662000      0.0057008815
 S 1 
   1       4.8070437000     -1.0000000000
 S 1 
   1       2.2210770000      1.0000000000
 S 1 
   1       1.0447795000      1.0000000000
 S 1 
   1       0.4968425000      1.0000000000
 S 1 
   1       0.2371384000      1.0000000000
 P 2 
   1      64.2613382000     -0.2731534179
   2      16.3006076000     -0.8168011598
 P 1 
   1       4.3550542000      1.0000000000
 P 1 
   1       1.2019554000      1.0000000000
 P 1 
   1       0.3354196000      1.0000000000
 D 2 
   1       9.2146611000     -0.4661230638
   2       2.8435251000     -0.6600908911
 D 1 
   1       0.9955759000     -1.0000000000
 D 1 
   1       0.3649441000     -1.0000000000
 F 2 
   1       2.6420115000      0.5931563945
   2       0.7345613000      0.5931563945
 G 1 
   1       1.3931000000     -1.0000000000
  end;


Checking for AutoStart:
The File: inpJ.gbw exists
Trying to determine its content:
     ... Fine, the file contains calculation information
     ... Fine, the calculation information was read
     ... Fine, the file contains a basis set
     ... Fine, the basis set was read
     ... Fine, the file contains a geometry
     ... Fine, the geometry was read
     ... Fine, the file contains a set of orbitals
     ... Fine, the orbitals can be read
     => possible old guess file was deleted
     => GBW file was renamed to GES file
     => GES file is set as startup file
     => Guess is set to MORead
     ... now leaving AutoStart



           ************************************************************
           *        Program running with 4 parallel MPI-processes     *
           *              working on a common directory               *
           ************************************************************
------------------------------------------------------------------------------
                             ORCA STARTUP CALCULATIONS
                           -- RI-GTO INTEGRALS CHOSEN --
------------------------------------------------------------------------------
------------------------------------------------------------------------------
                   ___                                                        
                  /   \      - P O W E R E D   B Y -                         
                 /     \                                                     
                 |  |  |   _    _      __       _____    __    __             
                 |  |  |  | |  | |    /  \     |  _  \  |  |  /  |          
                  \  \/   | |  | |   /    \    | | | |  |  | /  /          
                 / \  \   | |__| |  /  /\  \   | |_| |  |  |/  /          
                |  |  |   |  __  | /  /__\  \  |    /   |      \           
                |  |  |   | |  | | |   __   |  |    \   |  |\   \          
                \     /   | |  | | |  |  |  |  | |\  \  |  | \   \       
                 \___/    |_|  |_| |__|  |__|  |_| \__\ |__|  \__/        
                                                                              
                      - O R C A' S   B I G   F R I E N D -                    
                                      &                                       
                       - I N T E G R A L  F E E D E R -                       
                                                                              
 v1 FN, 2020, v2 2021, v3 2022-2024                                           
------------------------------------------------------------------------------


----------------------
SHARK INTEGRAL PACKAGE
----------------------

Number of atoms                             ...     73
Number of basis functions                   ...    509
Number of shells                            ...    335
Maximum angular momentum                    ...      1
Integral batch strategy                     ... SHARK/LIBINT Hybrid
RI-J (if used) integral strategy            ... SPLIT-RIJ (Revised 2003 algorithm where possible)
Printlevel                                  ...      1
Contraction scheme used                     ... SEGMENTED contraction
Prescreening option                         ... SCHWARTZ
   Thresh                                   ... 3.000e-11
   Tcut                                     ... 1.000e-12
   Tpresel                                  ... 1.000e-12 
Coulomb Range Separation                    ... NOT USED
Exchange Range Separation                   ... NOT USED
Multipole approximations                    ... NOT USED
Finite Nucleus Model                        ... NOT USED
CABS basis                                  ... NOT available
Auxiliary Coulomb fitting basis             ... AVAILABLE
   # of basis functions in Aux-J            ...   1905
   # of shells in Aux-J                     ...    655
   Maximum angular momentum in Aux-J        ...      4
Auxiliary J/K fitting basis                 ... NOT available
Auxiliary Correlation fitting basis         ... NOT available
Auxiliary 'external' fitting basis          ... NOT available

Checking pre-screening integrals            ... done (  0.0 sec) Dimension = 335
Check shell pair data                       ... done (  0.0 sec)
Shell pair information
Shell pair cut-off parameter TPreSel        ...   1.0e-12
Total number of shell pairs                 ...     56280
Shell pairs after pre-screening             ...     21893
Total number of primitive shell pairs       ...    145865
Primitive shell pairs kept                  ...     37613
          la=0 lb=0:  11023 shell pairs
          la=1 lb=0:   8997 shell pairs
          la=1 lb=1:   1873 shell pairs

Calculating one electron integrals          ... done (  0.0 sec)
Calculating RI/J V-Matrix + Cholesky decomp.... done (  0.2 sec)
Calculating Nuclear repulsion               ... done (  0.0 sec) ENN=   2779.438676980233 Eh

Diagonalization of the overlap matrix:
Smallest eigenvalue                        ... 7.563e-03
Time for diagonalization                   ...    0.027 sec
Threshold for overlap eigenvalues          ... 1.000e-07
Number of eigenvalues below threshold      ... 0
Time for construction of square roots      ...    0.014 sec
Total time needed                          ...    0.043 sec

-------------------
DFT GRID GENERATION
-------------------

General Integration Accuracy     IntAcc      ... 4.388
Radial Grid Type                 RadialGrid  ... OptM3 with GC (2021)
Angular Grid (max. ang.)         AngularGrid ... 4 (Lebedev-302)
Angular grid pruning method      GridPruning ... 4 (adaptive)
Weight generation scheme         WeightScheme... mBecke (2022)
Basis function cutoff            BFCut       ... 1.0000e-11
Integration weight cutoff        WCut        ... 1.0000e-14
Partially contracted basis set               ... off
Rotationally invariant grid construction     ... off
Angular grids for H and He will be reduced by one unit

Total number of grid points                  ...   309905
Total number of batches                      ...     4877
Average number of points per batch           ...       63
Average number of grid points per atom       ...     4245

--------------------
COSX GRID GENERATION
--------------------

GRIDX 1
-------
General Integration Accuracy     IntAcc      ... 3.816
Radial Grid Type                 RadialGrid  ... OptM3 with GC (2021)
Angular Grid (max. ang.)         AngularGrid ... 1 (Lebedev-50)
Angular grid pruning method      GridPruning ... 4 (adaptive)
Weight generation scheme         WeightScheme... mBecke (2022)
Basis function cutoff            BFCut       ... 1.0000e-11
Integration weight cutoff        WCut        ... 1.0000e-14
Partially contracted basis set               ... on
Rotationally invariant grid construction     ... off
Angular grids for H and He will be reduced by one unit

Total number of grid points                  ...    39398
Total number of batches                      ...      350
Average number of points per batch           ...      112
Average number of grid points per atom       ...      540
UseSFitting                                  ... on

GRIDX 2
-------
General Integration Accuracy     IntAcc      ... 4.020
Radial Grid Type                 RadialGrid  ... OptM3 with GC (2021)
Angular Grid (max. ang.)         AngularGrid ... 2 (Lebedev-110)
Angular grid pruning method      GridPruning ... 4 (adaptive)
Weight generation scheme         WeightScheme... mBecke (2022)
Basis function cutoff            BFCut       ... 1.0000e-11
Integration weight cutoff        WCut        ... 1.0000e-14
Partially contracted basis set               ... on
Rotationally invariant grid construction     ... off
Angular grids for H and He will be reduced by one unit

Total number of grid points                  ...    81418
Total number of batches                      ...      676
Average number of points per batch           ...      120
Average number of grid points per atom       ...     1115
UseSFitting                                  ... on

GRIDX 3
-------
General Integration Accuracy     IntAcc      ... 4.338
Radial Grid Type                 RadialGrid  ... OptM3 with GC (2021)
Angular Grid (max. ang.)         AngularGrid ... 3 (Lebedev-194)
Angular grid pruning method      GridPruning ... 4 (adaptive)
Weight generation scheme         WeightScheme... mBecke (2022)
Basis function cutoff            BFCut       ... 1.0000e-11
Integration weight cutoff        WCut        ... 1.0000e-14
Partially contracted basis set               ... on
Rotationally invariant grid construction     ... off
Angular grids for H and He will be reduced by one unit

Total number of grid points                  ...   176386
Total number of batches                      ...     1422
Average number of points per batch           ...      124
Average number of grid points per atom       ...     2416
UseSFitting                                  ... on
Initializing property integral containers    ... done (  0.0 sec)

SHARK setup successfully completed in   3.7 seconds

Maximum memory used throughout the entire STARTUP-calculation: 85.4 MB


           ************************************************************
           *        Program running with 4 parallel MPI-processes     *
           *              working on a common directory               *
           ************************************************************
-------------------------------------------------------------------------------
                                 ORCA GUESS
                   Start orbitals & Density for SCF / CASSCF
-------------------------------------------------------------------------------

------------
SCF SETTINGS
------------
Hamiltonian:
 Density Functional     Method          .... DFT(GTOs)
 Exchange Functional    Exchange        .... PBE
   PBE kappa parameter   XKappa         ....  0.804000
   PBE mue parameter    XMuePBE         ....  0.219520
 Correlation Functional Correlation     .... PBE
   PBE beta parameter  CBetaPBE         ....  0.066725
 LDA part of GGA corr.  LDAOpt          .... PW91-LDA
 Gradients option       PostSCFGGA      .... off
 Hybrid DFT is turned on
   Fraction HF Exchange ScalHFX         ....  0.250000
   Scaling of DF-GGA-X  ScalDFX         ....  0.750000
   Scaling of DF-GGA-C  ScalDFC         ....  1.000000
   Scaling of DF-LDA-C  ScalLDAC        ....  1.000000
   Perturbative correction              ....  0.000000
   NL short-range parameter             ....  6.900000
 RI-approximation to the Coulomb term is turned on
   Number of AuxJ basis functions       .... 1905
   RIJ-COSX (HFX calculated with COS-X)).... on


General Settings:
 Integral files         IntName         .... inpJ
 Hartree-Fock type      HFTyp           .... RHF
 Total Charge           Charge          ....    0
 Multiplicity           Mult            ....    1
 Number of Electrons    NEL             ....  220
 Basis Dimension        Dim             ....  509
 Nuclear Repulsion      ENuc            ....   2779.4386769802 Eh

Convergence Acceleration:
 AO-DIIS                CNVDIIS         .... on
   Start iteration      DIISMaxIt       ....    12
   Startup error        DIISStart       ....  0.200000
   # of expansion vecs  DIISMaxEq       ....     5
   Bias factor          DIISBfac        ....   1.050
   Max. coefficient     DIISMaxC        ....  10.000
 MO-DIIS                CNVKDIIS        .... off
 Trust-Rad. Augm. Hess. CNVTRAH         .... auto
   Auto Start mean grad. ratio tolernc. ....  1.125000
   Auto Start start iteration           ....     1
   Auto Start num. interpolation iter.  ....    10
   Max. Number of Micro iterations      ....    24
   Max. Number of Macro iterations      .... Maxiter - #DIIS iter
   Number of Davidson start vectors     ....     2
   Converg. threshold    (grad. norm)   ....   1.000e-04
   Grad. Scal. Fac. for Micro threshold ....   0.100
   Minimum threshold for Micro iter.    ....   1.000e-02
   NR start threshold (gradient norm)   ....   1.000e-04
   Initial trust radius                 ....   0.400
   Minimum AH scaling param. (alpha)    ....   1.000
   Maximum AH scaling param. (alpha)    .... 1000.000
   Quad. conv. algorithm                .... NR
   White noise on init. David. guess    .... on
   Maximum white noise                  ....   0.010
   Pseudo random numbers                .... off
   Inactive MOs                         .... canonical
   Orbital update algorithm             .... Taylor
   Preconditioner                       .... Diag
   Full preconditioner red. dimension   ....   250
 SOSCF                  CNVSOSCF        .... off
 Level Shifting         CNVShift        .... on
   Level shift para.    LevelShift      ....    0.2500
   Turn off err/grad.   ShiftErr        ....    0.0010
 Zerner damping         CNVZerner       .... off
 Static damping         CNVDamp         .... on
   Fraction old density DampFac         ....    0.7000
   Max. Damping (<1)    DampMax         ....    0.9800
   Min. Damping (>=0)   DampMin         ....    0.0000
   Turn off err/grad.   DampErr         ....    0.1000

SCF Procedure:
 Maximum # iterations   MaxIter         ....   125
 SCF integral mode      SCFMode         .... Direct
   Integral package                     .... SHARK and LIBINT hybrid scheme
 Reset frequency        DirectResetFreq ....    20
 Integral Threshold     Thresh          ....  3.000e-11 Eh
 Primitive CutOff       TCut            ....  1.000e-12 Eh

Convergence Tolerance:
 Convergence Check Mode ConvCheckMode   .... Total+1el-Energy
 Convergence forced     ConvForced      .... 0
 Energy Change          TolE            ....  1.000e-07 Eh
 1-El. energy change                    ....  1.000e-04 Eh
 DIIS Error             TolErr          ....  1.000e-07

---------------------
INITIAL GUESS: MOREAD
---------------------
Guess MOs are being read from file: inpJ.ges
Input Geometry matches current geometry (good)
Input basis set matches current basis set (good)
Occupation numbers will be reassigned to an Aufbau configuration
MOs were renormalized
MOs were reorthogonalized (Cholesky)
                      ------------------
                      INITIAL GUESS DONE (   0.2 sec)
                      ------------------
             **** ENERGY FILE WAS UPDATED (inpJ.en.tmp) ****
Finished Guess after   0.4 sec
Maximum memory used throughout the entire GUESS-calculation: 36.7 MB


           ************************************************************
           *        Program running with 4 parallel MPI-processes     *
           *              working on a common directory               *
           ************************************************************

-------------------------------------------------------------------------------------------
                                      ORCA LEAN-SCF
                              memory conserving SCF solver
-------------------------------------------------------------------------------------------

--------------------
CPCM SOLVATION MODEL
--------------------
CPCM parameters:
  Epsilon                                         ...       4.8030
  Refrac                                          ...       1.4459
  Rsolv                                           ...       1.3000
  Surface type                                    ... GAUSSIAN VDW
  Discretization scheme                           ... Constant charge density
    Threshold for H atoms                         ...       5.0000 (charges/Ang^2)
    Threshold for non-H atoms                     ...       5.0000 (charges/Ang^2)
  Epsilon function type                           ...         CPCM
Solvent:                                          ... CHLOROFORM
Radii:
  Scheme                                          ... Element-dependent radii
  Radius for C  used is    3.8550 Bohr (=   2.0400 Ang.)
  Radius for H  used is    2.4944 Bohr (=   1.3200 Ang.)
  Radius for O  used is    3.4469 Bohr (=   1.8240 Ang.)
Calculating surface                               ...        done! (  0.0s)
Cavity surface points                             ...         5423
Cavity Volume                                     ...    3608.8420
Cavity Surface-area                               ...    1794.6471
Calculating surface distance matrix               ...        done! (  0.2s)
Performing Cholesky decomposition & store         ...        done! (  0.9s)
Overall time for CPCM initialization              ...                 1.1s

----------------------------------------D-I-I-S--------------------------------------------
Iteration    Energy (Eh)           Delta-E    RMSDP     MaxDP     DIISErr   Damp  Time(sec)
-------------------------------------------------------------------------------------------
               ***  Starting incremental Fock matrix formation  ***
    1    -1165.5081683236421668     0.00e+00  4.67e-08  5.33e-06  8.10e-06  0.700   6.1

  HOMO= 109 E= -5.923 eV LUMO=  5.980 eV gap=  11.903 eV
    2    -1165.5081683486851034    -2.50e-08  3.12e-08  3.16e-06  3.78e-06  0.700   2.0
                 **** Energy Check signals convergence ****

  HOMO= 109 E= -5.923 eV LUMO=  5.980 eV gap=  11.903 eV

               *****************************************************
               *                     SUCCESS                       *
               *           SCF CONVERGED AFTER   2 CYCLES          *
               *****************************************************

Recomputing exchange energy using gridx3       ... done (    8.157 sec)
Old exchange energy                            :    -42.067096996 Eh
New exchange energy                            :    -42.067138767 Eh
Exchange energy change after final integration :     -0.000041771 Eh
Total energy after final integration           :  -1165.508210119 Eh
             **** ENERGY FILE WAS UPDATED (inpJ.en.tmp) ****

----------------
TOTAL SCF ENERGY
----------------

Total Energy       :      -1165.50821011922312 Eh          -31715.09076 eV

Components:
Nuclear Repulsion  :       2779.43867698023314 Eh           75632.37148 eV
Electronic Energy  :      -3944.93148805407054 Eh         -107347.04321 eV
One Electron Energy:      -7100.92084083149530 Eh         -193225.87949 eV
Two Electron Energy:       3155.98935277742476 Eh           85878.83628 eV
CPCM Dielectric    :         -0.01535727484759 Eh              -0.41789 eV

Virial components:
Potential Energy   :      -2322.40797313151234 Eh          -63195.93377 eV
Kinetic Energy     :       1156.89976301228944 Eh           31480.84301 eV
Virial Ratio       :          2.00744096194170

DFT components:
N(Alpha)           :      110.000232999124 electrons
N(Beta)            :      110.000232999124 electrons
N(Total)           :      220.000465998247 electrons
E(X)               :     -125.744411531790 Eh       
E(C)               :       -7.326966237603 Eh       
E(XC)              :     -133.071377769394 Eh       

CPCM Solvation Model Properties:
Surface-charge          :         -0.03330657288281
Corrected charge        :          0.00000000000000
Outlying charge corr.   :          0.00003878966890 Eh               0.00106 eV
Free-energy (cav+disp)  :  This term is not implemented in the current solvation scheme

---------------
SCF CONVERGENCE
---------------

  Last Energy change         ...    2.5043e-08  Tolerance :   1.0000e-07
  Last MAX-Density change    ...    3.1578e-06  Tolerance :   1.0000e-05
  Last RMS-Density change    ...    3.1157e-08  Tolerance :   1.0000e-06
  Last DIIS Error            ...    3.7804e-06  Tolerance :   1.0000e-07


----------------
ORBITAL ENERGIES
----------------

  NO   OCC          E(Eh)            E(eV) 
   0   2.0000     -19.215127      -522.8702 
   1   2.0000     -10.301413      -280.3157 
   2   2.0000     -10.269562      -279.4490 
   3   2.0000     -10.266904      -279.3767 
   4   2.0000     -10.261782      -279.2373 
   5   2.0000     -10.256298      -279.0881 
   6   2.0000     -10.253506      -279.0121 
   7   2.0000     -10.251869      -278.9675 
   8   2.0000     -10.249704      -278.9086 
   9   2.0000     -10.249251      -278.8963 
  10   2.0000     -10.248467      -278.8750 
  11   2.0000     -10.246192      -278.8131 
  12   2.0000     -10.245138      -278.7844 
  13   2.0000     -10.244662      -278.7714 
  14   2.0000     -10.244297      -278.7615 
  15   2.0000     -10.243909      -278.7509 
  16   2.0000     -10.243154      -278.7304 
  17   2.0000     -10.242362      -278.7088 
  18   2.0000     -10.242080      -278.7012 
  19   2.0000     -10.241183      -278.6767 
  20   2.0000     -10.239096      -278.6200 
  21   2.0000     -10.233622      -278.4710 
  22   2.0000     -10.233423      -278.4656 
  23   2.0000     -10.232658      -278.4448 
  24   2.0000     -10.226998      -278.2908 
  25   2.0000     -10.226499      -278.2772 
  26   2.0000     -10.224472      -278.2220 
  27   2.0000     -10.221570      -278.1431 
  28   2.0000     -10.220177      -278.1052 
  29   2.0000      -1.045934       -28.4613 
  30   2.0000      -0.900735       -24.5102 
  31   2.0000      -0.883691       -24.0465 
  32   2.0000      -0.860215       -23.4076 
  33   2.0000      -0.845441       -23.0056 
  34   2.0000      -0.822101       -22.3705 
  35   2.0000      -0.813801       -22.1447 
  36   2.0000      -0.795010       -21.6333 
  37   2.0000      -0.794807       -21.6278 
  38   2.0000      -0.777095       -21.1458 
  39   2.0000      -0.757486       -20.6123 
  40   2.0000      -0.739663       -20.1273 
  41   2.0000      -0.735799       -20.0221 
  42   2.0000      -0.713823       -19.4241 
  43   2.0000      -0.700638       -19.0653 
  44   2.0000      -0.699502       -19.0344 
  45   2.0000      -0.693617       -18.8743 
  46   2.0000      -0.668887       -18.2013 
  47   2.0000      -0.657715       -17.8973 
  48   2.0000      -0.630597       -17.1594 
  49   2.0000      -0.621946       -16.9240 
  50   2.0000      -0.619438       -16.8558 
  51   2.0000      -0.608260       -16.5516 
  52   2.0000      -0.596877       -16.2418 
  53   2.0000      -0.578413       -15.7394 
  54   2.0000      -0.574323       -15.6281 
  55   2.0000      -0.544423       -14.8145 
  56   2.0000      -0.540167       -14.6987 
  57   2.0000      -0.529731       -14.4147 
  58   2.0000      -0.515042       -14.0150 
  59   2.0000      -0.509949       -13.8764 
  60   2.0000      -0.497349       -13.5336 
  61   2.0000      -0.487757       -13.2725 
  62   2.0000      -0.482074       -13.1179 
  63   2.0000      -0.479796       -13.0559 
  64   2.0000      -0.475885       -12.9495 
  65   2.0000      -0.468023       -12.7355 
  66   2.0000      -0.462470       -12.5845 
  67   2.0000      -0.458023       -12.4634 
  68   2.0000      -0.456947       -12.4342 
  69   2.0000      -0.449819       -12.2402 
  70   2.0000      -0.445637       -12.1264 
  71   2.0000      -0.441172       -12.0049 
  72   2.0000      -0.435762       -11.8577 
  73   2.0000      -0.433223       -11.7886 
  74   2.0000      -0.430373       -11.7110 
  75   2.0000      -0.421610       -11.4726 
  76   2.0000      -0.416198       -11.3253 
  77   2.0000      -0.415358       -11.3025 
  78   2.0000      -0.407116       -11.0782 
  79   2.0000      -0.403039       -10.9672 
  80   2.0000      -0.400678       -10.9030 
  81   2.0000      -0.397158       -10.8072 
  82   2.0000      -0.394324       -10.7301 
  83   2.0000      -0.391583       -10.6555 
  84   2.0000      -0.389606       -10.6017 
  85   2.0000      -0.385310       -10.4848 
  86   2.0000      -0.378403       -10.2969 
  87   2.0000      -0.370563       -10.0835 
  88   2.0000      -0.367684       -10.0052 
  89   2.0000      -0.367272        -9.9940 
  90   2.0000      -0.361776        -9.8444 
  91   2.0000      -0.357486        -9.7277 
  92   2.0000      -0.353025        -9.6063 
  93   2.0000      -0.343600        -9.3498 
  94   2.0000      -0.341350        -9.2886 
  95   2.0000      -0.339742        -9.2449 
  96   2.0000      -0.336869        -9.1667 
  97   2.0000      -0.332785        -9.0555 
  98   2.0000      -0.329505        -8.9663 
  99   2.0000      -0.328736        -8.9454 
 100   2.0000      -0.326142        -8.8748 
 101   2.0000      -0.323779        -8.8105 
 102   2.0000      -0.317448        -8.6382 
 103   2.0000      -0.315511        -8.5855 
 104   2.0000      -0.311056        -8.4643 
 105   2.0000      -0.299535        -8.1508 
 106   2.0000      -0.280064        -7.6209 
 107   2.0000      -0.274892        -7.4802 
 108   2.0000      -0.256327        -6.9750 
 109   2.0000      -0.217674        -5.9232 
 110   0.0000      -0.030250        -0.8231 
 111   0.0000       0.021395         0.5822 
 112   0.0000       0.028262         0.7690 
 113   0.0000       0.080043         2.1781 
 114   0.0000       0.089166         2.4263 
 115   0.0000       0.101300         2.7565 
 116   0.0000       0.103564         2.8181 
 117   0.0000       0.108026         2.9395 
 118   0.0000       0.108778         2.9600 
 119   0.0000       0.118560         3.2262 
 120   0.0000       0.119049         3.2395 
*Only the first 10 virtual orbitals were printed.

                    ********************************
                    * MULLIKEN POPULATION ANALYSIS *
                    ********************************

-----------------------
MULLIKEN ATOMIC CHARGES
-----------------------
   0 C :    0.108134
   1 C :   -0.499949
   2 C :   -0.054902
   3 H :    0.207267
   4 H :    0.222172
   5 C :    0.135683
   6 C :   -0.475890
   7 C :   -0.451698
   8 H :    0.214162
   9 H :    0.224054
  10 H :    0.229132
  11 H :    0.204670
  12 O :   -0.487379
  13 H :    0.233915
  14 C :   -0.283548
  15 C :   -0.516387
  16 H :    0.201515
  17 H :    0.196712
  18 C :   -0.259217
  19 H :    0.217598
  20 C :    0.149538
  21 H :    0.219615
  22 C :   -0.480017
  23 C :   -0.427435
  24 H :    0.211538
  25 H :    0.206506
  26 C :   -0.396606
  27 H :    0.207972
  28 H :    0.216870
  29 C :    0.004242
  30 H :    0.222455
  31 H :    0.194125
  32 C :   -0.229102
  33 H :    0.226699
  34 C :   -0.434267
  35 H :    0.343116
  36 C :   -0.419910
  37 H :    0.207215
  38 H :    0.198444
  39 C :   -0.199014
  40 H :    0.211572
  41 H :    0.205552
  42 H :    0.209631
  43 C :   -0.241909
  44 C :   -0.629697
  45 H :    0.209234
  46 H :    0.201566
  47 H :    0.205176
  48 H :    0.219998
  49 C :   -0.620378
  50 C :   -0.177266
  51 C :   -0.175789
  52 H :    0.210588
  53 H :    0.211452
  54 C :   -0.240184
  55 C :   -0.614756
  56 C :   -0.202683
  57 H :    0.212922
  58 H :    0.209149
  59 C :   -0.609360
  60 C :   -0.610609
  61 H :    0.206085
  62 H :    0.193364
  63 H :    0.210203
  64 H :    0.200218
  65 H :    0.213175
  66 H :    0.189640
  67 H :    0.191944
  68 H :    0.208801
  69 H :    0.205512
  70 H :    0.204487
  71 H :    0.208523
  72 H :    0.195810
Sum of atomic charges:    0.0000000

--------------------------------
MULLIKEN REDUCED ORBITAL CHARGES
--------------------------------
  0 C s       :     3.355762  s :     3.355762
      pz      :     1.009341  p :     2.536105
      px      :     0.793412
      py      :     0.733352

  1 C s       :     3.383686  s :     3.383686
      pz      :     1.014392  p :     3.116263
      px      :     0.951416
      py      :     1.150454

  2 C s       :     3.306318  s :     3.306318
      pz      :     1.057015  p :     2.748584
      px      :     0.802693
      py      :     0.888876

  3 H s       :     0.792733  s :     0.792733

  4 H s       :     0.777828  s :     0.777828

  5 C s       :     3.345368  s :     3.345368
      pz      :     0.826693  p :     2.518948
      px      :     0.943069
      py      :     0.749187

  6 C s       :     3.368414  s :     3.368414
      pz      :     1.022179  p :     3.107475
      px      :     0.948839
      py      :     1.136457

  7 C s       :     3.340426  s :     3.340426
      pz      :     1.194614  p :     3.111273
      px      :     0.994225
      py      :     0.922433

  8 H s       :     0.785838  s :     0.785838

  9 H s       :     0.775946  s :     0.775946

 10 H s       :     0.770868  s :     0.770868

 11 H s       :     0.795330  s :     0.795330

 12 O s       :     3.685552  s :     3.685552
      pz      :     1.657295  p :     4.801828
      px      :     1.288068
      py      :     1.856465

 13 H s       :     0.766085  s :     0.766085

 14 C s       :     3.392595  s :     3.392595
      pz      :     1.004914  p :     2.890953
      px      :     0.797635
      py      :     1.088403

 15 C s       :     3.387076  s :     3.387076
      pz      :     1.006603  p :     3.129311
      px      :     1.016271
      py      :     1.106436

 16 H s       :     0.798485  s :     0.798485

 17 H s       :     0.803288  s :     0.803288

 18 C s       :     3.396577  s :     3.396577
      pz      :     1.025512  p :     2.862640
      px      :     0.748282
      py      :     1.088845

 19 H s       :     0.782402  s :     0.782402

 20 C s       :     3.350718  s :     3.350718
      pz      :     0.951838  p :     2.499744
      px      :     0.752639
      py      :     0.795267

 21 H s       :     0.780385  s :     0.780385

 22 C s       :     3.372685  s :     3.372685
      pz      :     1.109357  p :     3.107332
      px      :     1.114282
      py      :     0.883693

 23 C s       :     3.327172  s :     3.327172
      pz      :     1.106911  p :     3.100263
      px      :     0.893639
      py      :     1.099712

 24 H s       :     0.788462  s :     0.788462

 25 H s       :     0.793494  s :     0.793494

 26 C s       :     3.349384  s :     3.349384
      pz      :     1.169437  p :     3.047222
      px      :     0.965883
      py      :     0.911903

 27 H s       :     0.792028  s :     0.792028

 28 H s       :     0.783130  s :     0.783130

 29 C s       :     3.317626  s :     3.317626
      pz      :     0.871431  p :     2.678133
      px      :     0.904602
      py      :     0.902100

 30 H s       :     0.777545  s :     0.777545

 31 H s       :     0.805875  s :     0.805875

 32 C s       :     3.362303  s :     3.362303
      pz      :     1.086475  p :     2.866799
      px      :     0.871274
      py      :     0.909050

 33 H s       :     0.773301  s :     0.773301

 34 C s       :     3.343788  s :     3.343788
      pz      :     1.186878  p :     3.090479
      px      :     0.939833
      py      :     0.963768

 35 H s       :     0.656884  s :     0.656884

 36 C s       :     3.339153  s :     3.339153
      pz      :     1.173408  p :     3.080756
      px      :     0.931324
      py      :     0.976024

 37 H s       :     0.792785  s :     0.792785

 38 H s       :     0.801556  s :     0.801556

 39 C s       :     3.342362  s :     3.342362
      pz      :     1.074441  p :     2.856652
      px      :     0.867214
      py      :     0.914996

 40 H s       :     0.788428  s :     0.788428

 41 H s       :     0.794448  s :     0.794448

 42 H s       :     0.790369  s :     0.790369

 43 C s       :     3.348425  s :     3.348425
      pz      :     1.061784  p :     2.893484
      px      :     0.886251
      py      :     0.945449

 44 C s       :     3.366444  s :     3.366444
      pz      :     0.952006  p :     3.263253
      px      :     1.158583
      py      :     1.152664

 45 H s       :     0.790766  s :     0.790766

 46 H s       :     0.798434  s :     0.798434

 47 H s       :     0.794824  s :     0.794824

 48 H s       :     0.780002  s :     0.780002

 49 C s       :     3.348360  s :     3.348360
      pz      :     1.155137  p :     3.272018
      px      :     1.152873
      py      :     0.964008

 50 C s       :     3.342386  s :     3.342386
      pz      :     0.900807  p :     2.834880
      px      :     0.963318
      py      :     0.970755

 51 C s       :     3.343243  s :     3.343243
      pz      :     0.901953  p :     2.832546
      px      :     0.951310
      py      :     0.979284

 52 H s       :     0.789412  s :     0.789412

 53 H s       :     0.788548  s :     0.788548

 54 C s       :     3.337128  s :     3.337128
      pz      :     1.051078  p :     2.903057
      px      :     0.963171
      py      :     0.888808

 55 C s       :     3.343637  s :     3.343637
      pz      :     1.081413  p :     3.271118
      px      :     1.112429
      py      :     1.077276

 56 C s       :     3.310208  s :     3.310208
      pz      :     1.028470  p :     2.892475
      px      :     0.982182
      py      :     0.881822

 57 H s       :     0.787078  s :     0.787078

 58 H s       :     0.790851  s :     0.790851

 59 C s       :     3.341219  s :     3.341219
      pz      :     1.068666  p :     3.268141
      px      :     1.127580
      py      :     1.071895

 60 C s       :     3.341684  s :     3.341684
      pz      :     1.134168  p :     3.268925
      px      :     1.004628
      py      :     1.130129

 61 H s       :     0.793915  s :     0.793915

 62 H s       :     0.806636  s :     0.806636

 63 H s       :     0.789797  s :     0.789797

 64 H s       :     0.799782  s :     0.799782

 65 H s       :     0.786825  s :     0.786825

 66 H s       :     0.810360  s :     0.810360

 67 H s       :     0.808056  s :     0.808056

 68 H s       :     0.791199  s :     0.791199

 69 H s       :     0.794488  s :     0.794488

 70 H s       :     0.795513  s :     0.795513

 71 H s       :     0.791477  s :     0.791477

 72 H s       :     0.804190  s :     0.804190


------------------------
MULLIKEN OVERLAP CHARGES
------------------------
B(  0-C ,  1-C ) :   0.4955 B(  0-C ,  2-C ) :  -0.1303 B(  0-C ,  3-H ) :  -0.0878 
B(  0-C ,  4-H ) :  -0.0673 B(  0-C ,  5-C ) :   0.4218 B(  0-C ,  6-C ) :  -0.1560 
B(  0-C , 14-C ) :   0.9467 B(  0-C , 15-C ) :  -0.2028 B(  0-C , 18-C ) :  -0.1838 
B(  0-C , 19-H ) :  -0.0751 B(  1-C ,  2-C ) :   0.5271 B(  1-C ,  3-H ) :   0.7957 
B(  1-C ,  4-H ) :   0.8138 B(  1-C ,  5-C ) :  -0.1482 B(  1-C ,  7-C ) :  -0.1691 
B(  1-C , 12-O ) :  -0.0832 B(  1-C , 13-H ) :  -0.0842 B(  1-C , 14-C ) :  -0.1075 
B(  2-C ,  3-H ) :  -0.0820 B(  2-C ,  4-H ) :  -0.0581 B(  2-C ,  6-C ) :  -0.1288 
B(  2-C ,  7-C ) :   0.5343 B(  2-C , 10-H ) :  -0.0697 B(  2-C , 11-H ) :  -0.0825 
B(  2-C , 12-O ) :   0.6902 B(  2-C , 13-H ) :   0.7985 B(  2-C , 35-H ) :  -0.1133 
B(  5-C ,  6-C ) :   0.5388 B(  5-C ,  7-C ) :  -0.1717 B(  5-C ,  8-H ) :  -0.0879 
B(  5-C ,  9-H ) :  -0.0737 B(  5-C , 14-C ) :  -0.1962 B(  5-C , 15-C ) :   1.0577 
B(  5-C , 16-H ) :  -0.0995 B(  5-C , 17-H ) :  -0.0943 B(  6-C ,  7-C ) :   0.5411 
B(  6-C ,  8-H ) :   0.8037 B(  6-C ,  9-H ) :   0.8190 B(  6-C , 11-H ) :  -0.0739 
B(  6-C , 15-C ) :  -0.1291 B(  7-C ,  8-H ) :  -0.0769 B(  7-C , 10-H ) :   0.8059 
B(  7-C , 11-H ) :   0.7945 B(  7-C , 12-O ) :  -0.0901 B(  7-C , 13-H ) :  -0.0842 
B( 12-O , 35-H ) :   0.6600 B( 14-C , 18-C ) :   0.6128 B( 14-C , 19-H ) :   0.8252 
B( 14-C , 20-C ) :  -0.1953 B( 14-C , 21-H ) :  -0.0736 B( 15-C , 16-H ) :   0.8143 
B( 15-C , 17-H ) :   0.8069 B( 18-C , 19-H ) :  -0.0610 B( 18-C , 20-C ) :   0.9233 
B( 18-C , 21-H ) :   0.8313 B( 18-C , 22-C ) :  -0.1497 B( 18-C , 32-C ) :  -0.1481 
B( 20-C , 21-H ) :  -0.0848 B( 20-C , 22-C ) :   0.5319 B( 20-C , 23-C ) :  -0.1694 
B( 20-C , 24-H ) :  -0.0670 B( 20-C , 25-H ) :  -0.0934 B( 20-C , 29-C ) :  -0.1246 
B( 20-C , 32-C ) :   0.5173 B( 20-C , 33-H ) :  -0.0921 B( 20-C , 34-C ) :  -0.0992 
[...]
        0.0000         1.3729        0.0000
        0.0000         0.0000        1.3729

 Diagonalized JT*J matrix:
 
 J[55,60](FC)             1.373            1.373            1.373  iso=      1.373
                ---------------  ---------------  ---------------  ---------------
 J[55,60](Total)          1.373            1.373            1.373  iso=      1.373



-----------------------------------------------------------
 NUCLEUS A = C   56 NUCLEUS B = C   59 
 ( 13C  gnA =  1.405  13C  gnB =  1.405) r(AB) =     1.5310
-----------------------------------------------------------

Fermi-contact contribution to J (Hz):
       27.4843         0.0000        0.0000
        0.0000        27.4843        0.0000
        0.0000         0.0000       27.4843

Total spin-spin coupling tensor J (Hz):
       27.4843         0.0000        0.0000
        0.0000        27.4843        0.0000
        0.0000         0.0000       27.4843

 Diagonalized JT*J matrix:
 
 J[56,59](FC)            27.484           27.484           27.484  iso=     27.484
                ---------------  ---------------  ---------------  ---------------
 J[56,59](Total)         27.484           27.484           27.484  iso=     27.484



-----------------------------------------------------------
 NUCLEUS A = C   56 NUCLEUS B = C   60 
 ( 13C  gnA =  1.405  13C  gnB =  1.405) r(AB) =     1.5316
-----------------------------------------------------------

Fermi-contact contribution to J (Hz):
       26.7070         0.0000        0.0000
        0.0000        26.7070        0.0000
        0.0000         0.0000       26.7070

Total spin-spin coupling tensor J (Hz):
       26.7070         0.0000        0.0000
        0.0000        26.7070        0.0000
        0.0000         0.0000       26.7070

 Diagonalized JT*J matrix:
 
 J[56,60](FC)            26.707           26.707           26.707  iso=     26.707
                ---------------  ---------------  ---------------  ---------------
 J[56,60](Total)         26.707           26.707           26.707  iso=     26.707



-----------------------------------------------------------
 NUCLEUS A = C   59 NUCLEUS B = C   60 
 ( 13C  gnA =  1.405  13C  gnB =  1.405) r(AB) =     2.5067
-----------------------------------------------------------

Fermi-contact contribution to J (Hz):
       -0.9532         0.0000        0.0000
        0.0000        -0.9532        0.0000
        0.0000         0.0000       -0.9532

Total spin-spin coupling tensor J (Hz):
       -0.9532         0.0000        0.0000
        0.0000        -0.9532        0.0000
        0.0000         0.0000       -0.9532

 Diagonalized JT*J matrix:
 
 J[59,60](FC)            -0.953           -0.953           -0.953  iso=     -0.953
                ---------------  ---------------  ---------------  ---------------
 J[59,60](Total)         -0.953           -0.953           -0.953  iso=     -0.953



-----------------------------------------------------------------------------
                SUMMARY OF ISOTROPIC COUPLING CONSTANTS J (Hz)                
-----------------------------------------------------------------------------
                  0 C        1 C        2 C        5 C        6 C        7 C  
      0 C        0.000     32.397     -2.353     42.224     -0.170      0.883
      1 C       32.397      0.000     25.386     -1.182      0.377     -0.393
      2 C       -2.353     25.386      0.000      2.036     -1.347     25.830
      5 C       42.224     -1.182      2.036      0.000     31.046     -2.897
      6 C       -0.170      0.377     -1.347     31.046      0.000     23.045
      7 C        0.883     -0.393     25.830     -2.897     23.045      0.000
     14 C       70.278     -0.394      3.567     -3.193      2.741     -0.707
     15 C       -3.287      2.725     -0.831     64.257     -0.893      2.837
     18 C       -2.633      4.219     -1.051      3.287     -1.011      0.207
     20 C        6.949     -1.147      1.237     -1.508      0.778     -0.146
     22 C       -0.944      0.331     -0.375      0.445     -0.236      0.046
     23 C        0.772     -0.262      0.281     -0.324      0.184      0.000
     26 C       -0.072      0.028      0.000      0.039      0.000      0.000
     29 C        1.106     -0.353      0.000     -0.480      0.253      0.000
     32 C       -1.151      0.554     -0.410      0.516     -0.277      0.058
     34 C        0.022     -0.015      0.016     -0.018      0.009     -0.002
     36 C       -0.011      0.000      0.000      0.015     -0.009      0.000
     39 C       -0.079      0.000      0.000      0.033      0.000      0.000
     43 C        0.000      0.000      0.000      0.000      0.000      0.000
     44 C        0.012     -0.004      0.006     -0.008      0.005     -0.001
     49 C        0.000      0.000      0.000      0.000      0.000      0.000
     50 C        0.000      0.000      0.000      0.000      0.000      0.000
     51 C        0.000      0.000      0.000      0.000      0.000      0.000
     54 C        0.000      0.000      0.000      0.000      0.000      0.000
     55 C        0.000      0.000      0.000      0.000      0.000      0.000
     56 C        0.000      0.000      0.000      0.000      0.000      0.000
     59 C        0.000      0.000      0.000      0.000      0.000      0.000
     60 C        0.000      0.000      0.000      0.000      0.000      0.000
                 14 C       15 C       18 C       20 C       22 C       23 C  
      0 C       70.278     -3.287     -2.633      6.949     -0.944      0.772
      1 C       -0.394      2.725      4.219     -1.147      0.331     -0.262
      2 C        3.567     -0.831     -1.051      1.237     -0.375      0.281
      5 C       -3.193     64.257      3.287     -1.508      0.445     -0.324
      6 C        2.741     -0.893     -1.011      0.778     -0.236      0.184
      7 C       -0.707      2.837      0.207     -0.146      0.046      0.000
     14 C        0.000      3.069     54.466     -2.783      3.840     -0.864
     15 C        3.069      0.000     -1.118      1.067     -0.273      0.229
     18 C       54.466     -1.118      0.000     70.066     -2.177      2.465
     20 C       -2.783      1.067     70.066      0.000     32.205     -2.818
     22 C        3.840     -0.273     -2.177     32.205      0.000     24.542
     23 C       -0.864      0.229      2.465     -2.818     24.542      0.000
     26 C        0.109     -0.019     -0.365      1.030     -1.927     25.414
     29 C       -1.130      0.335      2.399     -2.323      1.110     -2.178
     32 C        4.412     -0.337     -1.320     37.079     -0.261      1.506
     34 C        0.066      0.004      2.458     -1.311      1.590     -0.251
     36 C        0.011     -0.013     -0.154      3.530      0.057      0.181
     39 C        0.269     -0.023     -0.037      2.940     -0.338      2.552
     43 C        0.012      0.000      0.302      0.193      0.002     -0.109
     44 C       -0.003      0.004     -0.067      0.703     -0.137      0.642
     49 C       -0.001      0.000     -0.010     -0.035      0.138      0.039
     50 C        0.000      0.000      0.032      0.148     -0.010      0.136
     51 C        0.000      0.000     -0.006      0.044     -0.002     -0.007
     54 C        0.000      0.000      0.000      0.000      0.000      0.000
     55 C        0.000      0.000      0.000      0.000      0.000      0.000
     56 C        0.000      0.000      0.000      0.000      0.000      0.000
     59 C        0.000      0.000      0.000      0.000      0.000      0.000
     60 C        0.000      0.000      0.000      0.000      0.000      0.000
                 26 C       29 C       32 C       34 C       36 C       39 C  
      0 C       -0.072      1.106     -1.151      0.022     -0.011     -0.079
      1 C        0.028     -0.353      0.554     -0.015      0.000      0.000
      2 C        0.000      0.000     -0.410      0.016      0.000      0.000
      5 C        0.039     -0.480      0.516     -0.018      0.015      0.033
      6 C        0.000      0.253     -0.277      0.009     -0.009      0.000
      7 C        0.000      0.000      0.058     -0.002      0.000      0.000
     14 C        0.109     -1.130      4.412      0.066      0.011      0.269
     15 C       -0.019      0.335     -0.337      0.004     -0.013     -0.023
     18 C       -0.365      2.399     -1.320      2.458     -0.154     -0.037
     20 C        1.030     -2.323     37.079     -1.311      3.530      2.940
     22 C       -1.927      1.110     -0.261      1.590      0.057     -0.338
     23 C       25.414     -2.178      1.506     -0.251      0.181      2.552
     26 C        0.000     27.807     -0.955      2.331      3.032     -0.603
     29 C       27.807      0.000     23.477      0.912      0.559     28.952
     32 C       -0.955     23.477      0.000     27.880      1.344      3.504
     34 C        2.331      0.912     27.880      0.000     25.930      0.054
     36 C        3.032      0.559      1.344     25.930      0.000     26.229
     39 C       -0.603     28.952      3.504      0.054     26.229      0.000
     43 C       -0.011     -0.686      2.725      1.647      0.209     30.438
     44 C       -0.555     27.276     -0.927      0.831      0.249     -1.225
     49 C        0.364      0.227     -0.001     -0.003      3.200     -1.025
     50 C       -0.094      3.375      0.007     -0.062      0.516     -1.612
     51 C        0.018     -0.104      0.042      0.012      0.129      2.041
     54 C        0.004      0.024     -0.003      0.001      0.042     -0.171
     55 C        0.002     -0.030      0.004      0.003     -0.045      0.062
     56 C       -0.000     -0.001      0.001      0.003     -0.016      0.049
     59 C        0.001      0.019      0.008      0.008      0.013      0.030
     60 C        0.000      0.000      0.000      0.003      0.011      0.004
                 43 C       44 C       49 C       50 C       51 C       54 C  
      0 C        0.000      0.012      0.000      0.000      0.000      0.000
      1 C        0.000     -0.004      0.000      0.000      0.000      0.000
      2 C        0.000      0.006      0.000      0.000      0.000      0.000
      5 C        0.000     -0.008      0.000      0.000      0.000      0.000
      6 C        0.000      0.005      0.000      0.000      0.000      0.000
      7 C        0.000     -0.001      0.000      0.000      0.000      0.000
     14 C        0.012     -0.003     -0.001      0.000      0.000      0.000
     15 C        0.000      0.004      0.000      0.000      0.000      0.000
     18 C        0.302     -0.067     -0.010      0.032     -0.006      0.000
     20 C        0.193      0.703     -0.035      0.148      0.044      0.000
     22 C        0.002     -0.137      0.138     -0.010     -0.002      0.000
     23 C       -0.109      0.642      0.039      0.136     -0.007      0.000
     26 C       -0.011     -0.555      0.364     -0.094      0.018      0.004
     29 C       -0.686     27.276      0.227      3.375     -0.104      0.024
     32 C        2.725     -0.927     -0.001      0.007      0.042     -0.003
     34 C        1.647      0.831     -0.003     -0.062      0.012      0.001
     36 C        0.209      0.249      3.200      0.516      0.129      0.042
     39 C       30.438     -1.225     -1.025     -1.612      2.041     -0.171
     43 C        0.000      1.490     24.962     35.297     -1.723      3.742
     44 C        1.490      0.000     -0.082     -0.152      0.125      0.023
     49 C       24.962     -0.082      0.000     -3.420      3.500     -1.015
     50 C       35.297     -0.152     -3.420      0.000     68.751     -0.645
     51 C       -1.723      0.125      3.500     68.751      0.000     36.712
     54 C        3.742      0.023     -1.015     -0.645     36.712      0.000
     55 C       -0.690      0.020      1.484      3.655     -2.713     26.612
     56 C       -0.528      0.018      1.055      3.223     -1.690     26.231
     59 C       -0.030     -0.001      0.049     -0.004      0.692     -0.472
     60 C        0.089      0.000      0.007      0.123      3.447     -0.552
                 55 C       56 C       59 C       60 C  
      0 C        0.000      0.000      0.000      0.000
      1 C        0.000      0.000      0.000      0.000
      2 C        0.000      0.000      0.000      0.000
      5 C        0.000      0.000      0.000      0.000
      6 C        0.000      0.000      0.000      0.000
      7 C        0.000      0.000      0.000      0.000
     14 C        0.000      0.000      0.000      0.000
     15 C        0.000      0.000      0.000      0.000
     18 C        0.000      0.000      0.000      0.000
     20 C        0.000      0.000      0.000      0.000
     22 C        0.000      0.000      0.000      0.000
     23 C        0.000      0.000      0.000      0.000
     26 C        0.002     -0.000      0.001      0.000
     29 C       -0.030     -0.001      0.019      0.000
     32 C        0.004      0.001      0.008      0.000
     34 C        0.003      0.003      0.008      0.003
     36 C       -0.045     -0.016      0.013      0.011
     39 C        0.062      0.049      0.030      0.004
     43 C       -0.690     -0.528     -0.030      0.089
     44 C        0.020      0.018     -0.001      0.000
     49 C        1.484      1.055      0.049      0.007
     50 C        3.655      3.223     -0.004      0.123
     51 C       -2.713     -1.690      0.692      3.447
     54 C       26.612     26.231     -0.472     -0.552
     55 C        0.000     -1.135      2.682      1.373
     56 C       -1.135      0.000     27.484     26.707
     59 C        2.682     27.484      0.000     -0.953
     60 C        1.373     26.707     -0.953      0.000

NMR spin-spin coupling calculation done in   0.3 sec 

Maximum memory used throughout the entire PROP-calculation: 34.2 MB

--------------------------------
SUGGESTED CITATIONS FOR THIS RUN
--------------------------------

Below you find a list of papers that are relevant to this ORCA run
We neither can nor want to force you to cite these papers, but we appreciate if you do
You receive ORCA, which is the product of decades of hard work by many enthusiastic individuals, for free
The only thing we kindly ask in return is that you cite our papers,
We deeply appreciate it, if you show your appreciation for ORCA by not just citing the generic ORCA reference.

Please note that relegating all ORCA citations to the supporting information does *not* help us.
SI sections are not indexed - citations you put there will not count into any citation statistics
But we need these citations in order to attract the funding resources that allow us to do what we are doing

Therefore, if you are a happy ORCA user, please consider citing a few of the papers listed below in the main body of your paper

In addition to the list printed below, the program has created the file inpJ.bibtex that contains the list in bibtex format
You can import this file easily into all common literature databanks and citation aid programs


List of essential papers. We consider these as the minimum necessary citations

  1. Neese,F.
     Software update: the ORCA program system, version 5.0
     WIRES Comput. Molec. Sci., 2022 12(1)e1606
     doi.org/10.1002/wcms.1606

List of papers to cite with high priority. The work reported in these papers was absolutely
necessary for this run to complete.
Our perspective: the developers of density functionals and basis sets usually get cited in chemistry papers
Good! But without the algorithms to do something with them, the functionals or basis sets would not do anything.
Hence, in our opinion, the algorithm design and method developments papers are equally worthy of getting cited

  1. Neese,F.
     An improvement of the resolution of the identity approximation for the formation of the Coulomb matrix
     J. Comp. Chem., 2003 24(14)1740-1747
     doi.org/10.1002/jcc.10318
  2. Neese,F.; Wennmohs,F.; Hansen,A.; Becker,U.
     Efficient, approximate and parallel Hartree-Fock and hybrid DFT calculations. A 'chain-of-spheres' algorithm for the Hartree-Fock exchange
     Chem. Phys., 2009 356(1-3)98-109
     doi.org/10.1016/j.chemphys.2008.10.036
  3. Stoychev,G.L.; Auer,A.A.; Izsak,R.; Neese,F.
     Self-Consistent Field Calculation of Nuclear Magnetic Resonance Chemical Shielding Constants Using Gauge-Including Atomic Orbitals and Approximate Two-Electron Integrals
     J. Chem. Theory Comput., 2018 14(2)619-637
     doi.org/10.1021/acs.jctc.7b01006
  4. Garcia-Rates,M.; Neese,F.
     Effect of the Solute Cavity on the Solvation Energy and its Derivatives within the Framework of the Gaussian Charge Scheme
     J. Comput. Chem., 2020 41 922-939
     doi.org/10.1002/jcc.26139
  5. Helmich-Paris,B.; de Souza,B.; Neese,F.; Izsák,R.
     An improved chain of spheres for exchange algorithm
     J. Chem. Phys., 2021 155 104109
     doi.org/doi: 10.1063/5.0058766.
  6. Neese,F.
     The SHARK Integral Generation and Digestion System
     J. Comp. Chem., 2022  1-16
     doi.org/10.1002/jcc.26942
  7. Grimme,S.; Bannwarth,C.; Dohm,S.; Hansen,A.; Pisarek,J.; Pracht,P.; Seibert,J.; Neese,F.
     Fully Automated Quantum-Chemistry-Based Computation of Spin-Spin-Coupled Nuclear Magnetic Resonance Spectra
     Angew. Chem., Int. Ed., 2017 56 14763-14769
     doi.org/10.1002/anie.201708266
  8. Caldeweyher,E.; Bannwarth,C.; Grimme,S.
     Extension of the D3 dispersion coefficient model
     J. Chem. Phys., 2017 147 034112-XXXX
     doi.org/10.1063/1.4993215
  9. Caldeweyher,E.; Ehlert,S.; Hansen,A.; Neugebauer,H.; Spicher,S.; Bannwarth,C.; Grimme,S.
     A generally applicable atomic-charge dependent London dispersion correction
     J. Chem. Phys., 2019 150 154122-XXXX
     doi.org/10.1063/1.5090222
 10. Caldeweyher,E.; Mewes,J.; Ehlert,S.; Grimme,S.
     Extension and evaluation of the D4 London-dispersion model for periodic systems
     Phys. Chem. Chem. Phys., 2020 22(16)8499-8512
     doi.org/10.1039/D0CP00502A

List of suggested additional citations. These are papers that are important in the 'surrounding' of 
of this run, or papers that preceded the highly important papers. If you like your results we are grateful for a citation.

  1. Izsak,R.; Neese,F.
     An overlap fitted chain of spheres exchange method
     J. Chem. Phys., 2011 135 144105
     doi.org/10.1063/1.3646921
  2. Izsak,R.; Hansen,A.; Neese,F.
     The resolution of identity and chain of spheres approximations for the LPNO-CCSD singles Fock term
     Molec. Phys., 2012 110 2413-2417
     doi.org/10.1080/00268976.2012.687466
  3. Neese,F.
     The ORCA program system
     WIRES Comput. Molec. Sci., 2012 2(1)73-78
     doi.org/10.1002/wcms.81
  4. Izsak,R.; Neese,F.; Klopper,W.
     Robust fitting techniques in the chain of spheres approximation to the Fock exchange: The role of the complementary space
     J. Chem. Phys., 2013 139 
     doi.org/10.1063/1.4819264
  5. Neese,F.
     Software update: the ORCA program system, version 4.0
     WIRES Comput. Molec. Sci., 2018 8(1)1-6
     doi.org/10.1002/wcms.1327
  6. Neese,F.; Wennmohs,F.; Becker,U.; Riplinger,C.
     The ORCA quantum chemistry program package
     J. Chem. Phys., 2020 152 Art. No. L224108
     doi.org/10.1063/5.0004608

Timings for individual modules:

Sum of individual times          ...      134.499 sec (=   2.242 min)
Startup calculation              ...        3.903 sec (=   0.065 min)   2.9 %
SCF iterations                   ...       18.925 sec (=   0.315 min)  14.1 %
Property integrals               ...        0.632 sec (=   0.011 min)   0.5 %
SCF Response                     ...      110.483 sec (=   1.841 min)  82.1 %
Property calculations            ...        0.556 sec (=   0.009 min)   0.4 %
                             ****ORCA TERMINATED NORMALLY****
TOTAL RUN TIME: 0 days 0 hours 2 minutes 14 seconds 808 msec
