
                                 *****************
                                 * O   R   C   A *
                                 *****************

                                            #,                                       
                                            ###                                      
                                            ####                                     
                                            #####                                    
                                            ######                                   
                                           ########,                                 
                                     ,,################,,,,,                         
                               ,,#################################,,                 
                          ,,##########################################,,             
                       ,#########################################, ''#####,          
                    ,#############################################,,   '####,        
                  ,##################################################,,,,####,       
                ,###########''''           ''''###############################       
              ,#####''   ,,,,##########,,,,          '''####'''          '####       
            ,##' ,,,,###########################,,,                        '##       
           ' ,,###''''                  '''############,,,                           
         ,,##''                                '''############,,,,        ,,,,,,###''
      ,#''                                            '''#######################'''  
     '                                                          ''''####''''         
             ,#######,   #######,   ,#######,      ##                                
            ,#'     '#,  ##    ##  ,#'     '#,    #''#        ######   ,####,        
            ##       ##  ##   ,#'  ##            #'  '#       #        #'  '#        
            ##       ##  #######   ##           ,######,      #####,   #    #        
            '#,     ,#'  ##    ##  '#,     ,#' ,#      #,         ##   #,  ,#        
             '#######'   ##     ##  '#######'  #'      '#     #####' # '####'        



                  #######################################################
                  #                        -***-                        #
                  #          Department of theory and spectroscopy      #
                  #    Directorship and core code : Frank Neese         #
                  #        Max Planck Institute fuer Kohlenforschung    #
                  #                Kaiser Wilhelm Platz 1               #
                  #                 D-45470 Muelheim/Ruhr               #
                  #                      Germany                        #
                  #                                                     #
                  #                  All rights reserved                #
                  #                        -***-                        #
                  #######################################################


                         Program Version 5.0.2 -  RELEASE  -


 With contributions from (in alphabetic order):
   Daniel Aravena         : Magnetic Suceptibility
   Michael Atanasov       : Ab Initio Ligand Field Theory (pilot matlab implementation)
   Alexander A. Auer      : GIAO ZORA, VPT2 properties, NMR spectrum
   Ute Becker             : Parallelization
   Giovanni Bistoni       : ED, misc. LED, open-shell LED, HFLD
   Martin Brehm           : Molecular dynamics
   Dmytro Bykov           : SCF Hessian
   Vijay G. Chilkuri      : MRCI spin determinant printing, contributions to CSF-ICE
   Dipayan Datta          : RHF DLPNO-CCSD density
   Achintya Kumar Dutta   : EOM-CC, STEOM-CC
   Dmitry Ganyushin       : Spin-Orbit,Spin-Spin,Magnetic field MRCI
   Miquel Garcia          : C-PCM and meta-GGA Hessian, CC/C-PCM, Gaussian charge scheme
   Yang Guo               : DLPNO-NEVPT2, F12-NEVPT2, CIM, IAO-localization
   Andreas Hansen         : Spin unrestricted coupled pair/coupled cluster methods
   Benjamin Helmich-Paris : MC-RPA, TRAH-SCF, COSX integrals
   Lee Huntington         : MR-EOM, pCC
   Robert Izsak           : Overlap fitted RIJCOSX, COSX-SCS-MP3, EOM
   Marcus Kettner         : VPT2
   Christian Kollmar      : KDIIS, OOCD, Brueckner-CCSD(T), CCSD density, CASPT2, CASPT2-K
   Simone Kossmann        : Meta GGA functionals, TD-DFT gradient, OOMP2, MP2 Hessian
   Martin Krupicka        : Initial AUTO-CI
   Lucas Lang             : DCDCAS
   Marvin Lechner         : AUTO-CI (C++ implementation), FIC-MRCC
   Dagmar Lenk            : GEPOL surface, SMD
   Dimitrios Liakos       : Extrapolation schemes; Compound Job, initial MDCI parallelization
   Dimitrios Manganas     : Further ROCIS development; embedding schemes
   Dimitrios Pantazis     : SARC Basis sets
   Anastasios Papadopoulos: AUTO-CI, single reference methods and gradients
   Taras Petrenko         : DFT Hessian,TD-DFT gradient, ASA, ECA, R-Raman, ABS, FL, XAS/XES, NRVS
   Peter Pinski           : DLPNO-MP2, DLPNO-MP2 Gradient
   Christoph Reimann      : Effective Core Potentials
   Marius Retegan         : Local ZFS, SOC
   Christoph Riplinger    : Optimizer, TS searches, QM/MM, DLPNO-CCSD(T), (RO)-DLPNO pert. Triples
   Tobias Risthaus        : Range-separated hybrids, TD-DFT gradient, RPA, STAB
   Michael Roemelt        : Original ROCIS implementation
   Masaaki Saitow         : Open-shell DLPNO-CCSD energy and density
   Barbara Sandhoefer     : DKH picture change effects
   Avijit Sen             : IP-ROCIS
   Kantharuban Sivalingam : CASSCF convergence, NEVPT2, FIC-MRCI
   Bernardo de Souza      : ESD, SOC TD-DFT
   Georgi Stoychev        : AutoAux, RI-MP2 NMR, DLPNO-MP2 response
   Willem Van den Heuvel  : Paramagnetic NMR
   Boris Wezisla          : Elementary symmetry handling
   Frank Wennmohs         : Technical directorship


 We gratefully acknowledge several colleagues who have allowed us to
 interface, adapt or use parts of their codes:
   Stefan Grimme, W. Hujo, H. Kruse, P. Pracht,  : VdW corrections, initial TS optimization,
                  C. Bannwarth, S. Ehlert          DFT functionals, gCP, sTDA/sTD-DF
   Ed Valeev, F. Pavosevic, A. Kumar             : LibInt (2-el integral package), F12 methods
   Garnet Chan, S. Sharma, J. Yang, R. Olivares  : DMRG
   Ulf Ekstrom                                   : XCFun DFT Library
   Mihaly Kallay                                 : mrcc  (arbitrary order and MRCC methods)
   Jiri Pittner, Ondrej Demel                    : Mk-CCSD
   Frank Weinhold                                : gennbo (NPA and NBO analysis)
   Christopher J. Cramer and Donald G. Truhlar   : smd solvation model
   Lars Goerigk                                  : TD-DFT with DH, B97 family of functionals
   V. Asgeirsson, H. Jonsson                     : NEB implementation
   FAccTs GmbH                                   : IRC, NEB, NEB-TS, DLPNO-Multilevel, CI-OPT
                                                   MM, QMMM, 2- and 3-layer-ONIOM, Crystal-QMMM,
                                                   LR-CPCM, SF, NACMEs, symmetry and pop. for TD-DFT,
                                                   nearIR, NL-DFT gradient (VV10), updates on ESD,
                                                   ML-optimized integration grids
   S Lehtola, MJT Oliveira, MAL Marques          : LibXC Library
   Liviu Ungur et al                             : ANISO software


 Your calculation uses the libint2 library for the computation of 2-el integrals
 For citations please refer to: http://libint.valeyev.net

 Your ORCA version has been built with support for libXC version: 5.1.0
 For citations please refer to: https://tddft.org/programs/libxc/

 This ORCA versions uses:
   CBLAS   interface :  Fast vector & matrix operations
   LAPACKE interface :  Fast linear algebra routines
   SCALAPACK package :  Parallel linear algebra routines
   Shared memory     :  Shared parallel matrices
   BLAS/LAPACK       :  OpenBLAS 0.3.15  USE64BITINT DYNAMIC_ARCH NO_AFFINITY Zen SINGLE_THREADED
        Core in use  :  Zen
   Copyright (c) 2011-2014, The OpenBLAS Project


Your calculation utilizes the atom-pairwise dispersion correction
based on tight binding partial charges (D4)
Cite in your paper:
E.Caldeweyher, C.Bannwarth, S.Grimme, J.Chem.Phys., (2017), 147, 034112.
E.Caldeweyher, S.Ehlert, A.Hansen, H.Neugebauer, S.Grimme, J.Chem.Phys., (2018), in progress.
   

================================================================================

----- Orbital basis set information -----
Your calculation utilizes the basis: pcSseg-1
   F. Jensen, J. Chem. Theory Comput. 11, 132 (2015).

----- AuxJ basis set information -----
Your calculation utilizes the auxiliary basis: def2/J
   F. Weigend, Phys. Chem. Chem. Phys. 8, 1057 (2006).

================================================================================
                                        WARNINGS
                       Please study these warnings very carefully!
================================================================================



WARNING: Found flag for RIJCOSX approximation but no HF exchange needed!
  ===> : RIJCOSX  will be disabled and Split-RI-J is turned on

INFO   : the flag for use of the SHARK integral package has been found!

================================================================================
                                       INPUT FILE
================================================================================
NAME = inpS
|  1> ! revTPSS
|  2> ! D4
|  3> ! pcSseg-1
|  4> ! def2/J RIJCOSX
|  5> ! DEFGRID2
|  6> ! scfconv7
|  7> ! smallprint printgap noloewdin
|  8> ! NOSOSCF
|  9> %MaxCore 4000
| 10> %output
| 11>        print[P_BondOrder_M] 1
| 12>        print[P_Mayer] 1
| 13>        print[P_basis] 2
| 14> end
| 15> %pal
| 16>     nprocs 4
| 17> end
| 18> ! CPCM(chloroform)
| 19> *xyz 0 1
| 20> C   -5.0248730900   0.2097763500  -0.4914650600
| 21> C   -6.4736555500  -0.1813786400  -0.6645441300
| 22> C   -7.3789821900   0.7259088800   0.1782684900
| 23> H   -6.6276035700  -1.2296828100  -0.3847054900
| 24> H   -6.7684817900  -0.0646183400  -1.7179867800
| 25> C   -4.7517830000   1.6395193500  -0.7570595900
| 26> C   -5.6811084600   2.5974051100  -0.0446868300
| 27> C   -7.1536056100   2.1912678600  -0.1984345800
| 28> H   -5.5231765300   3.6185098300  -0.4078970700
| 29> H   -5.4250620700   2.5943530800   1.0257969000
| 30> H   -7.4671641100   2.3314369800  -1.2419114400
| 31> H   -7.7875672400   2.8315257300   0.4258192400
| 32> O   -7.1617950600   0.4988962500   1.5808328500
| 33> H   -8.4287584200   0.4601008800   0.0029852700
| 34> C   -4.1032680600  -0.6857667300  -0.0636672100
| 35> C   -3.7904978300   2.0580091800  -1.5876865300
| 36> H   -3.1436642000   1.3539073500  -2.1043357200
| 37> H   -3.6365405400   3.1179419900  -1.7761364000
| 38> C   -2.7186832900  -0.4056627500   0.2406421200
| 39> H   -4.4573639100  -1.7038411900   0.0940177800
| 40> C   -1.7690683600  -1.3111927000   0.5578889900
| 41> H   -2.4320102900   0.6434164900   0.2186776900
| 42> C   -1.9596304100  -2.8058197100   0.6050842200
| 43> C   -0.9491477200  -3.5307624700  -0.3052977100
| 44> H   -2.9766732000  -3.1045770400   0.3375464800
| 45> H   -1.7858323100  -3.1369457000   1.6411969300
| 46> C    0.4989355900  -3.0949860800  -0.0451352600
| 47> H   -1.2125799500  -3.3402875100  -1.3534294800
| 48> H   -1.0400864200  -4.6132009900  -0.1526847200
| 49> C    0.6620159700  -1.5714722600  -0.1336493400
| 50> H    1.1569087900  -3.6079666800  -0.7543443500
| 51> H    0.7982554200  -3.4192743500   0.9629892600
| 52> C   -0.3534583500  -0.9318664600   0.8671293900
| 53> H   -0.1116354400  -1.3969036100   1.8405324900
| 54> C    0.0741951700   0.5307112400   0.9472116500
| 55> H   -6.2074471900   0.4199817900   1.7205808300
| 56> C    1.6179758400   0.4622433700   0.8507745700
| 57> H   -0.2743603100   1.0118687200   1.8670725600
| 58> H   -0.3364953300   1.1030365800   0.1079421000
| 59> C    1.9888392200  -0.9918846300   0.4300431700
| 60> H    2.0950036100   0.7197572300   1.8015558200
| 61> H    1.9983979800   1.1763483200   0.1110640400
| 62> H    2.2214313900  -1.5705413300   1.3393731700
| 63> C    3.2496362900  -1.0192370400  -0.4572551700
| 64> C    0.4115510200  -1.0712305300  -1.5636605600
| 65> H    0.6395930800  -0.0052490900  -1.6638218900
| 66> H   -0.6326539300  -1.2106479700  -1.8600929200
| 67> H    1.0399754400  -1.6135498100  -2.2786666000
| 68> H    3.0523790900  -0.4196607700  -1.3581343400
| 69> C    3.6638179800  -2.4349878300  -0.8872869700
| 70> C    4.3974755900  -0.3816306100   0.2813774400
| 71> C    5.0798397900   0.6808976800  -0.1434159400
| 72> H    4.6668684200  -0.8696221500   1.2212435700
| 73> H    4.7780979500   1.1313012800  -1.0932070200
| 74> C    6.2996707600   1.3146743700   0.4848203000
| 75> C    7.5128716400   0.9702486700  -0.4006770700
| 76> C    6.5183091200   0.9607996200   1.9688741300
| 77> H    6.1615876800   2.4084380100   0.4331311800
| 78> H    6.5152632800  -0.1360731200   2.0600669700
| 79> C    5.3963108000   1.5344561700   2.8415324000
| 80> C    7.8687451100   1.4666747200   2.4873705100
| 81> H    7.7789246800  -0.0873032000  -0.2825114000
| 82> H    8.3868374500   1.5792342500  -0.1514523200
| 83> H    7.2767189000   1.1395804800  -1.4567273800
| 84> H    4.4069762300   1.2180220500   2.5008072700
| 85> H    5.4264533600   2.6313682200   2.8151266300
| 86> H    5.5159020400   1.2227933400   3.8851478300
| 87> H    8.7132808800   0.9653755000   2.0061757800
| 88> H    7.9492144500   1.2935783800   3.5662054600
| 89> H    7.9691098400   2.5460791300   2.3137038100
| 90> H    2.9355929800  -2.8839639300  -1.5674022900
| 91> H    3.7649812900  -3.0911106700  -0.0139945400
| 92> H    4.6303059600  -2.4050694300  -1.4017398000
| 93> *
| 94> %eprnmr
| 95>  Nuclei = all H { shift }
| 96>  origin giao
| 97>  giao_2el giao_2el_same_as_scf
| 98>  giao_1el giao_1el_analytic
| 99> end
|100> 
|101>                          ****END OF INPUT****
================================================================================

                       ****************************
                       * Single Point Calculation *
                       ****************************

---------------------------------
CARTESIAN COORDINATES (ANGSTROEM)
---------------------------------
  C     -5.024873    0.209776   -0.491465
  C     -6.473656   -0.181379   -0.664544
  C     -7.378982    0.725909    0.178268
  H     -6.627604   -1.229683   -0.384705
  H     -6.768482   -0.064618   -1.717987
  C     -4.751783    1.639519   -0.757060
  C     -5.681108    2.597405   -0.044687
  C     -7.153606    2.191268   -0.198435
  H     -5.523177    3.618510   -0.407897
  H     -5.425062    2.594353    1.025797
  H     -7.467164    2.331437   -1.241911
  H     -7.787567    2.831526    0.425819
  O     -7.161795    0.498896    1.580833
  H     -8.428758    0.460101    0.002985
  C     -4.103268   -0.685767   -0.063667
  C     -3.790498    2.058009   -1.587687
  H     -3.143664    1.353907   -2.104336
  H     -3.636541    3.117942   -1.776136
  C     -2.718683   -0.405663    0.240642
  H     -4.457364   -1.703841    0.094018
  C     -1.769068   -1.311193    0.557889
  H     -2.432010    0.643416    0.218678
  C     -1.959630   -2.805820    0.605084
  C     -0.949148   -3.530762   -0.305298
  H     -2.976673   -3.104577    0.337546
  H     -1.785832   -3.136946    1.641197
  C      0.498936   -3.094986   -0.045135
  H     -1.212580   -3.340288   -1.353429
  H     -1.040086   -4.613201   -0.152685
  C      0.662016   -1.571472   -0.133649
  H      1.156909   -3.607967   -0.754344
  H      0.798255   -3.419274    0.962989
  C     -0.353458   -0.931866    0.867129
  H     -0.111635   -1.396904    1.840532
  C      0.074195    0.530711    0.947212
  H     -6.207447    0.419982    1.720581
  C      1.617976    0.462243    0.850775
  H     -0.274360    1.011869    1.867073
  H     -0.336495    1.103037    0.107942
  C      1.988839   -0.991885    0.430043
  H      2.095004    0.719757    1.801556
  H      1.998398    1.176348    0.111064
  H      2.221431   -1.570541    1.339373
  C      3.249636   -1.019237   -0.457255
  C      0.411551   -1.071231   -1.563661
  H      0.639593   -0.005249   -1.663822
  H     -0.632654   -1.210648   -1.860093
  H      1.039975   -1.613550   -2.278667
  H      3.052379   -0.419661   -1.358134
  C      3.663818   -2.434988   -0.887287
  C      4.397476   -0.381631    0.281377
  C      5.079840    0.680898   -0.143416
  H      4.666868   -0.869622    1.221244
  H      4.778098    1.131301   -1.093207
  C      6.299671    1.314674    0.484820
  C      7.512872    0.970249   -0.400677
  C      6.518309    0.960800    1.968874
  H      6.161588    2.408438    0.433131
  H      6.515263   -0.136073    2.060067
  C      5.396311    1.534456    2.841532
  C      7.868745    1.466675    2.487371
  H      7.778925   -0.087303   -0.282511
  H      8.386837    1.579234   -0.151452
  H      7.276719    1.139580   -1.456727
  H      4.406976    1.218022    2.500807
  H      5.426453    2.631368    2.815127
  H      5.515902    1.222793    3.885148
  H      8.713281    0.965375    2.006176
  H      7.949214    1.293578    3.566205
  H      7.969110    2.546079    2.313704
  H      2.935593   -2.883964   -1.567402
  H      3.764981   -3.091111   -0.013995
  H      4.630306   -2.405069   -1.401740

----------------------------
CARTESIAN COORDINATES (A.U.)
----------------------------
  NO LB      ZA    FRAG     MASS         X           Y           Z
   0 C     6.0000    0    12.011   -9.495634    0.396420   -0.928734
   1 C     6.0000    0    12.011  -12.233436   -0.342756   -1.255806
   2 C     6.0000    0    12.011  -13.944255    1.371769    0.336879
   3 H     1.0000    0     1.008  -12.524356   -2.323764   -0.726988
   4 H     1.0000    0     1.008  -12.790577   -0.122111   -3.246525
   5 C     6.0000    0    12.011   -8.979569    3.098243   -1.430635
   6 C     6.0000    0    12.011  -10.735739    4.908384   -0.084446
   7 C     6.0000    0    12.011  -13.518355    4.140896   -0.374987
   8 H     1.0000    0     1.008  -10.437291    6.837993   -0.770814
   9 H     1.0000    0     1.008  -10.251882    4.902617    1.938475
  10 H     1.0000    0     1.008  -14.110895    4.405777   -2.346873
  11 H     1.0000    0     1.008  -14.716369    5.350808    0.804682
  12 O     8.0000    0    15.999  -13.533831    0.942777    2.987341
  13 H     1.0000    0     1.008  -15.928045    0.869465    0.005641
  14 C     6.0000    0    12.011   -7.754053   -1.295911   -0.120314
  15 C     6.0000    0    12.011   -7.163003    3.889074   -3.000293
  16 H     1.0000    0     1.008   -5.940664    2.558514   -3.976618
  17 H     1.0000    0     1.008   -6.872066    5.892056   -3.356411
  18 C     6.0000    0    12.011   -5.137567   -0.766592    0.454748
  19 H     1.0000    0     1.008   -8.423197   -3.219793    0.177668
  20 C     6.0000    0    12.011   -3.343055   -2.477795    1.054257
  21 H     1.0000    0     1.008   -4.595833    1.215881    0.413241
  22 C     6.0000    0    12.011   -3.703165   -5.302231    1.143443
  23 C     6.0000    0    12.011   -1.793629   -6.672174   -0.576929
  24 H     1.0000    0     1.008   -5.625097   -5.866800    0.637870
  25 H     1.0000    0     1.008   -3.374734   -5.927968    3.101413
  26 C     6.0000    0    12.011    0.942852   -5.848676   -0.085293
  27 H     1.0000    0     1.008   -2.291444   -6.312229   -2.557611
  28 H     1.0000    0     1.008   -1.965478   -8.717686   -0.288532
  29 C     6.0000    0    12.011    1.251029   -2.969652   -0.252561
  30 H     1.0000    0     1.008    2.186241   -6.818069   -1.425504
  31 H     1.0000    0     1.008    1.508484   -6.461492    1.819786
  32 C     6.0000    0    12.011   -0.667939   -1.760972    1.638637
  33 H     1.0000    0     1.008   -0.210960   -2.639765    3.478102
  34 C     6.0000    0    12.011    0.140209    1.002899    1.789971
  35 H     1.0000    0     1.008  -11.730375    0.793651    3.251427
  36 C     6.0000    0    12.011    3.057531    0.873513    1.607731
  37 H     1.0000    0     1.008   -0.518466    1.912155    3.528256
  38 H     1.0000    0     1.008   -0.635884    2.084437    0.203981
  39 C     6.0000    0    12.011    3.758361   -1.874390    0.812664
  40 H     1.0000    0     1.008    3.958983    1.360144    3.404447
  41 H     1.0000    0     1.008    3.776425    2.222976    0.209881
  42 H     1.0000    0     1.008    4.197897   -2.967893    2.531048
  43 C     6.0000    0    12.011    6.140923   -1.926079   -0.864087
  44 C     6.0000    0    12.011    0.777719   -2.024332   -2.954890
  45 H     1.0000    0     1.008    1.208656   -0.009919   -3.144168
  46 H     1.0000    0     1.008   -1.195543   -2.287793   -3.515066
  47 H     1.0000    0     1.008    1.965269   -3.049167   -4.306056
  48 H     1.0000    0     1.008    5.768161   -0.793044   -2.566502
  49 C     6.0000    0    12.011    6.923613   -4.601460   -1.676729
  50 C     6.0000    0    12.011    8.310025   -0.721177    0.531726
  51 C     6.0000    0    12.011    9.599506    1.286710   -0.271017
  52 H     1.0000    0     1.008    8.819103   -1.643348    2.307816
  53 H     1.0000    0     1.008    9.029297    2.137850   -2.065862
  54 C     6.0000    0    12.011   11.904652    2.484375    0.916178
  55 C     6.0000    0    12.011   14.197270    1.833504   -0.757170
  56 C     6.0000    0    12.011   12.317819    1.815648    3.720633
  57 H     1.0000    0     1.008   11.643713    4.551288    0.818499
  58 H     1.0000    0     1.008   12.312063   -0.257141    3.892962
  59 C     6.0000    0    12.011   10.197550    2.899702    5.369718
  60 C     6.0000    0    12.011   14.869773    2.771614    4.700449
  61 H     1.0000    0     1.008   14.700037   -0.164979   -0.533869
  62 H     1.0000    0     1.008   15.848826    2.984320   -0.286203
  63 H     1.0000    0     1.008   13.751006    2.153495   -2.752816
  64 H     1.0000    0     1.008    8.327978    2.301728    4.725841
  65 H     1.0000    0     1.008   10.254511    4.972565    5.319818
  66 H     1.0000    0     1.008   10.423544    2.310745    7.341865
  67 H     1.0000    0     1.008   16.465715    1.824295    3.791123
  68 H     1.0000    0     1.008   15.021838    2.444509    6.739152
  69 H     1.0000    0     1.008   15.059435    4.811392    4.372267
  70 H     1.0000    0     1.008    5.547467   -5.449902   -2.961961
  71 H     1.0000    0     1.008    7.114784   -5.841353   -0.026446
  72 H     1.0000    0     1.008    8.750010   -4.544923   -2.648904

--------------------------------
INTERNAL COORDINATES (ANGSTROEM)
--------------------------------
 C      0   0   0     0.000000000000     0.00000000     0.00000000
 C      1   0   0     1.510605576276     0.00000000     0.00000000
 C      2   1   0     1.533988292482   110.48256793     0.00000000
 H      2   1   3     1.095879231548   110.68133657   237.86669031
 H      2   1   3     1.100134944581   109.83145028   118.75192016
 C      1   2   3     1.479622822773   113.99502062   306.26739958
 C      6   1   2     1.512833728142   114.45161460    49.54846107
 C      3   2   1     1.529698253260   110.14060393    56.79650919
 H      7   6   1     1.095225557664   110.21723982   188.87766455
 H      7   6   1     1.100683644338   108.25885483    72.21802255
 H      8   3   2     1.098549167074   108.30581943    64.33049734
 H      8   3   2     1.096143384870   109.51639716   181.33189834
 O      3   2   1     1.437321038446   110.70429742   292.79793635
 H      3   2   1     1.096999650479   109.49169793   177.25543754
 C      1   2   3     1.354387034758   121.17045179   123.12518872
 C      6   1   2     1.337588886515   123.12264441   231.44179128
 H     16   6   1     1.086774823704   121.34945266   359.06171637
 H     16   6   1     1.087508051631   120.94970496   178.45953009
 C     15   1   2     1.445038889876   126.18109631   185.25904575
 H     15   1   2     1.089368639700   116.26237328     3.11816007
 C     19  15   1     1.349962437311   126.40402033   186.01036108
 H     19  15   1     1.087764265323   115.79867521     6.74827739
 C     21  19  15     1.507465151722   125.69731939     2.48798732
 C     23  21  19     1.541237337511   111.40670109   124.19457335
 H     23  21  19     1.093255880956   112.38845050     0.63645800
 H     23  21  19     1.101535178122   107.91147591   242.71690787
 C     24  23  21     1.534448055547   112.64368150    51.39846507
 H     24  23  21     1.097386649032   108.97416346   289.25368833
 H     24  23  21     1.096920107143   109.12434126   173.31701908
 C     27  24  23     1.534771746036   111.86436427   306.25711585
 H     27  24  23     1.095013863489   108.91751725   182.75687214
 H     27  24  23     1.100486388156   109.16629926    66.28739810
 C     21  19  15     1.497821658862   122.92019499   180.32213538
 H     33  21  19     1.105554822598   106.37856671   127.44720804
 C     33  21  19     1.525920781061   121.22840371     4.85977925
 H     13   3   2     0.967748338611   107.62620012    42.43646659
 C     35  33  21     1.548304465112   103.52007998   196.52111260
 H     35  33  21     1.095055951513   112.08796627    74.55028439
 H     35  33  21     1.095717280668   110.81816455   314.91720204
 C     30  27  24     1.553747406569   116.11054165   166.23921213
 H     37  35  33     1.094465105334   111.71980742   250.14748358
 H     37  35  33     1.096283974347   111.05220320   131.58035466
 H     40  30  27     1.102643978309   106.47297977   321.17941817
 C     40  30  27     1.541964899153   118.87210799    81.95503815
 C     30  27  24     1.535547644633   111.08555026   294.07834857
 H     45  30  27     1.094692606891   111.62066794   186.69498867
 H     45  30  27     1.094382631549   111.49264038    66.65442000
 H     45  30  27     1.095564279423   110.66832904   306.54067262
 H     44  40  30     1.099993356998   108.35938391    61.30820281
 C     44  40  30     1.536497354611   113.44103557   300.44777941
 C     44  40  30     1.506537470745   109.47180223   178.75707630
 C     51  44  40     1.332305026705   124.84991316   239.07530583
 H     51  44  40     1.092728961037   114.86793068    60.16064865
 H     52  51  44     1.093624540940   117.64847311     0.71897967
 C     52  51  44     1.511403738717   127.97028278   184.86388791
 C     55  52  51     1.540970807748   107.62790745   107.17633318
 C     55  52  51     1.541248144034   114.73685129   340.49855809
 H     55  52  51     1.103656469330   107.16509034   222.01251176
 H     57  55  52     1.100661264406   107.95066891    53.44196673
 C     57  55  52     1.532806094599   111.00354821   294.17101559
 C     57  55  52     1.532457332509   112.02446571   171.80501740
 H     56  55  52     1.096888008595   110.15451194   287.43676412
 H     56  55  52     1.093980187074   111.93950452   166.54094703
 H     56  55  52     1.095300705623   110.47164593    46.38782444
 H     60  57  55     1.093163783662   112.12827951    54.91672442
 H     60  57  55     1.097643787414   109.88940881   294.97491912
 H     60  57  55     1.095704773204   110.84919527   176.03382769
 H     61  57  55     1.093658970137   112.35306556   294.20264032
 H     61  57  55     1.095592308728   110.22682692   174.07322050
 H     61  57  55     1.097883000162   110.58454997    55.06775212
 H     50  44  40     1.092908064521   111.90559550    67.34675903
 H     50  44  40     1.096982618256   110.68100334   306.66674221
 H     50  44  40     1.095288017116   110.13003366   187.32599891

---------------------------
INTERNAL COORDINATES (A.U.)
---------------------------
 C      0   0   0     0.000000000000     0.00000000     0.00000000
 C      1   0   0     2.854630835537     0.00000000     0.00000000
 C      2   1   0     2.898817765433   110.48256793     0.00000000
 H      2   1   3     2.070911623478   110.68133657   237.86669031
 H      2   1   3     2.078953755614   109.83145028   118.75192016
 C      1   2   3     2.796081916541   113.99502062   306.26739958
 C      6   1   2     2.858841432348   114.45161460    49.54846107
 C      3   2   1     2.890710766199   110.14060393    56.79650919
 H      7   6   1     2.069676358856   110.21723982   188.87766455
 H      7   6   1     2.079990647886   108.25885483    72.21802255
 H      8   3   2     2.075957070417   108.30581943    64.33049734
 H      8   3   2     2.071410800913   109.51639716   181.33189834
 O      3   2   1     2.716143129186   110.70429742   292.79793635
 H      3   2   1     2.073028908412   109.49169793   177.25543754
 C      1   2   3     2.559420575027   121.17045179   123.12518872
 C      6   1   2     2.527676675291   123.12264441   231.44179128
 H     16   6   1     2.053706786040   121.34945266   359.06171637
 H     16   6   1     2.055092386016   120.94970496   178.45953009
 C     15   1   2     2.730727754730   126.18109631   185.25904575
 H     15   1   2     2.058608387916   116.26237328     3.11816007
 C     19  15   1     2.551059297599   126.40402033   186.01036108
 H     19  15   1     2.055576559726   115.79867521     6.74827739
 C     21  19  15     2.848696293185   125.69731939     2.48798732
 C     23  21  19     2.912516475269   111.40670109   124.19457335
 H     23  21  19     2.065954209305   112.38845050     0.63645800
 H     23  21  19     2.081599813531   107.91147591   242.71690787
 C     24  23  21     2.899686591712   112.64368150    51.39846507
 H     24  23  21     2.073760229692   108.97416346   289.25368833
 H     24  23  21     2.072878593291   109.12434126   173.31701908
 C     27  24  23     2.900298278088   111.86436427   306.25711585
 H     27  24  23     2.069276314841   108.91751725   182.75687214
 H     27  24  23     2.079617887722   109.16629926    66.28739810
 C     21  19  15     2.830472732705   122.92019499   180.32213538
 H     33  21  19     2.089195840747   106.37856671   127.44720804
 C     33  21  19     2.883572378264   121.22840371     4.85977925
 H     13   3   2     1.828779326532   107.62620012    42.43646659
 C     35  33  21     2.925871410990   103.52007998   196.52111260
 H     35  33  21     2.069355849680   112.08796627    74.55028439
 H     35  33  21     2.070605580667   110.81816455   314.91720204
 C     30  27  24     2.936157079706   116.11054165   166.23921213
 H     37  35  33     2.068239312215   111.71980742   250.14748358
 H     37  35  33     2.071676476522   111.05220320   131.58035466
 H     40  30  27     2.083695142221   106.47297977   321.17941817
 C     40  30  27     2.913891367519   118.87210799    81.95503815
 C     30  27  24     2.901764513944   111.08555026   294.07834857
 H     45  30  27     2.068669227852   111.62066794   186.69498867
 H     45  30  27     2.068083459347   111.49264038    66.65442000
 H     45  30  27     2.070316450217   110.66832904   306.54067262
 H     44  40  30     2.078686193858   108.35938391    61.30820281
 C     44  40  30     2.903559205710   113.44103557   300.44777941
 C     44  40  30     2.846943230198   109.47180223   178.75707630
 C     51  44  40     2.517691627319   124.84991316   239.07530583
 H     51  44  40     2.064958474964   114.86793068    60.16064865
 H     52  51  44     2.066650875713   117.64847311     0.71897967
 C     52  51  44     2.856139143960   127.97028278   184.86388791
 C     55  52  51     2.912012807010   107.62790745   107.17633318
 C     55  52  51     2.912536896639   114.73685129   340.49855809
 H     55  52  51     2.085608472965   107.16509034   222.01251176
 H     57  55  52     2.079948355943   107.95066891    53.44196673
 C     57  55  52     2.896583735198   111.00354821   294.17101559
 C     57  55  52     2.895924670361   112.02446571   171.80501740
 H     56  55  52     2.072817935827   110.15451194   287.43676412
 H     56  55  52     2.067322949505   111.93950452   166.54094703
 H     56  55  52     2.069818367918   110.47164593    46.38782444
 H     60  57  55     2.065780170643   112.12827951    54.91672442
 H     60  57  55     2.074246150812   109.88940881   294.97491912
 H     60  57  55     2.070581944986   110.84919527   176.03382769
 H     61  57  55     2.066715937466   112.35306556   294.20264032
 H     61  57  55     2.070369417926   110.22682692   174.07322050
 H     61  57  55     2.074698197394   110.58454997    55.06775212
 H     50  44  40     2.065296931499   111.90559550    67.34675903
 H     50  44  40     2.072996722175   110.68100334   306.66674221
 H     50  44  40     2.069794390115   110.13003366   187.32599891

---------------------
BASIS SET INFORMATION
---------------------
There are 3 groups of distinct atoms

 Group   1 Type C   : 8s5p1d contracted to 3s3p1d pattern {521/311/1}
 Group   2 Type H   : 4s2p contracted to 2s1p pattern {31/2}
 Group   3 Type O   : 8s5p1d contracted to 3s3p1d pattern {521/311/1}

Atom   0C    basis set group =>   1
Atom   1C    basis set group =>   1
Atom   2C    basis set group =>   1
Atom   3H    basis set group =>   2
Atom   4H    basis set group =>   2
Atom   5C    basis set group =>   1
Atom   6C    basis set group =>   1
Atom   7C    basis set group =>   1
Atom   8H    basis set group =>   2
Atom   9H    basis set group =>   2
Atom  10H    basis set group =>   2
Atom  11H    basis set group =>   2
Atom  12O    basis set group =>   3
Atom  13H    basis set group =>   2
Atom  14C    basis set group =>   1
Atom  15C    basis set group =>   1
Atom  16H    basis set group =>   2
Atom  17H    basis set group =>   2
Atom  18C    basis set group =>   1
Atom  19H    basis set group =>   2
Atom  20C    basis set group =>   1
Atom  21H    basis set group =>   2
Atom  22C    basis set group =>   1
Atom  23C    basis set group =>   1
Atom  24H    basis set group =>   2
Atom  25H    basis set group =>   2
Atom  26C    basis set group =>   1
Atom  27H    basis set group =>   2
Atom  28H    basis set group =>   2
Atom  29C    basis set group =>   1
Atom  30H    basis set group =>   2
Atom  31H    basis set group =>   2
Atom  32C    basis set group =>   1
Atom  33H    basis set group =>   2
Atom  34C    basis set group =>   1
Atom  35H    basis set group =>   2
Atom  36C    basis set group =>   1
Atom  37H    basis set group =>   2
Atom  38H    basis set group =>   2
Atom  39C    basis set group =>   1
Atom  40H    basis set group =>   2
Atom  41H    basis set group =>   2
Atom  42H    basis set group =>   2
Atom  43C    basis set group =>   1
Atom  44C    basis set group =>   1
Atom  45H    basis set group =>   2
Atom  46H    basis set group =>   2
Atom  47H    basis set group =>   2
Atom  48H    basis set group =>   2
Atom  49C    basis set group =>   1
Atom  50C    basis set group =>   1
Atom  51C    basis set group =>   1
Atom  52H    basis set group =>   2
Atom  53H    basis set group =>   2
Atom  54C    basis set group =>   1
Atom  55C    basis set group =>   1
Atom  56C    basis set group =>   1
Atom  57H    basis set group =>   2
Atom  58H    basis set group =>   2
Atom  59C    basis set group =>   1
Atom  60C    basis set group =>   1
Atom  61H    basis set group =>   2
Atom  62H    basis set group =>   2
Atom  63H    basis set group =>   2
Atom  64H    basis set group =>   2
Atom  65H    basis set group =>   2
Atom  66H    basis set group =>   2
Atom  67H    basis set group =>   2
Atom  68H    basis set group =>   2
Atom  69H    basis set group =>   2
Atom  70H    basis set group =>   2
Atom  71H    basis set group =>   2
Atom  72H    basis set group =>   2

-------------------------
BASIS SET IN INPUT FORMAT
-------------------------

 # Basis set for element : H 
 NewGTO H 
 S 3 
   1      12.2518000000      0.0372173893
   2       1.8687100000      0.2538082070
   3       0.4182080000      0.7973867639
 S 1 
   1       0.1061000000      1.0000000000
 P 2 
   1       9.0000000000      0.0402678705
   2       1.0000000000      0.9880231245
  end;

 # Basis set for element : C 
 NewGTO C 
 S 5 
   1    1243.2000000000      0.0056300977
   2     187.1450000000      0.0419506039
   3      42.5126000000      0.1846643605
   4      11.7393000000      0.4665574214
   5       3.5054800000      0.4482347783
 S 2 
   1       5.3908900000     -0.1481148174
   2       0.4933410000      1.0519817143
 S 1 
   1       0.1497410000      1.0000000000
 P 3 
   1      59.6736000000      0.0113906672
   2       9.1805600000      0.1672414929
   3       1.9365800000      0.9041087436
 P 1 
   1       0.5262960000      1.0000000000
 P 1 
   1       0.1363190000      1.0000000000
 D 1 
   1       0.8000000000      1.0000000000
  end;

 # Basis set for element : O 
 NewGTO O 
 S 5 
   1    2288.6400000000      0.0054511382
   2     344.4160000000      0.0407189228
   3      78.2538000000      0.1813694209
   4      21.7195000000      0.4655368202
   5       6.5590700000      0.4512113212
 S 2 
   1      10.4656000000     -0.1502112012
   2       0.9643510000      1.0528679834
 S 1 
   1       0.2851270000      1.0000000000
 P 3 
   1     110.8840000000      0.0113058003
   2      17.0590000000      0.1699226452
   3       3.6899900000      0.9008060328
 P 1 
   1       0.9929960000      1.0000000000
 P 1 
   1       0.2449240000      1.0000000000
 D 1 
   1       1.0000000000      1.0000000000
  end;

---------------------------------
AUXILIARY/J BASIS SET INFORMATION
---------------------------------
There are 3 groups of distinct atoms

 Group   1 Type C   : 12s5p4d2f1g contracted to 6s4p3d1f1g pattern {711111/2111/211/2/1}
 Group   2 Type H   : 5s2p1d contracted to 3s1p1d pattern {311/2/1}
 Group   3 Type O   : 12s5p4d2f1g contracted to 6s4p3d1f1g pattern {711111/2111/211/2/1}

Atom   0C    basis set group =>   1
Atom   1C    basis set group =>   1
Atom   2C    basis set group =>   1
Atom   3H    basis set group =>   2
Atom   4H    basis set group =>   2
Atom   5C    basis set group =>   1
Atom   6C    basis set group =>   1
Atom   7C    basis set group =>   1
Atom   8H    basis set group =>   2
Atom   9H    basis set group =>   2
Atom  10H    basis set group =>   2
Atom  11H    basis set group =>   2
Atom  12O    basis set group =>   3
Atom  13H    basis set group =>   2
Atom  14C    basis set group =>   1
Atom  15C    basis set group =>   1
Atom  16H    basis set group =>   2
Atom  17H    basis set group =>   2
Atom  18C    basis set group =>   1
Atom  19H    basis set group =>   2
Atom  20C    basis set group =>   1
Atom  21H    basis set group =>   2
Atom  22C    basis set group =>   1
Atom  23C    basis set group =>   1
Atom  24H    basis set group =>   2
Atom  25H    basis set group =>   2
Atom  26C    basis set group =>   1
Atom  27H    basis set group =>   2
Atom  28H    basis set group =>   2
Atom  29C    basis set group =>   1
Atom  30H    basis set group =>   2
Atom  31H    basis set group =>   2
Atom  32C    basis set group =>   1
Atom  33H    basis set group =>   2
Atom  34C    basis set group =>   1
Atom  35H    basis set group =>   2
Atom  36C    basis set group =>   1
Atom  37H    basis set group =>   2
Atom  38H    basis set group =>   2
Atom  39C    basis set group =>   1
Atom  40H    basis set group =>   2
Atom  41H    basis set group =>   2
Atom  42H    basis set group =>   2
Atom  43C    basis set group =>   1
Atom  44C    basis set group =>   1
Atom  45H    basis set group =>   2
Atom  46H    basis set group =>   2
Atom  47H    basis set group =>   2
Atom  48H    basis set group =>   2
Atom  49C    basis set group =>   1
Atom  50C    basis set group =>   1
Atom  51C    basis set group =>   1
Atom  52H    basis set group =>   2
Atom  53H    basis set group =>   2
Atom  54C    basis set group =>   1
Atom  55C    basis set group =>   1
Atom  56C    basis set group =>   1
Atom  57H    basis set group =>   2
Atom  58H    basis set group =>   2
Atom  59C    basis set group =>   1
Atom  60C    basis set group =>   1
Atom  61H    basis set group =>   2
Atom  62H    basis set group =>   2
Atom  63H    basis set group =>   2
Atom  64H    basis set group =>   2
Atom  65H    basis set group =>   2
Atom  66H    basis set group =>   2
Atom  67H    basis set group =>   2
Atom  68H    basis set group =>   2
Atom  69H    basis set group =>   2
Atom  70H    basis set group =>   2
Atom  71H    basis set group =>   2
Atom  72H    basis set group =>   2

-------------------------------------
AUXILIARY/J BASIS SET IN INPUT FORMAT
-------------------------------------

 # Auxiliary/J basis set for element : H 
 NewAuxJGTO H 
 S 3 
   1      15.6752927000      0.1007184237
   2       3.6063578000      0.3404257499
   3       1.2080016000      0.6491996172
 S 1 
   1       0.4726794000      1.0000000000
 S 1 
   1       0.2018100000      1.0000000000
 P 2 
   1       2.0281365000      0.5596620919
   2       0.5358730000      0.5596620919
 D 1 
   1       2.2165124000      1.0000000000
  end;

 # Auxiliary/J basis set for element : C 
 NewAuxJGTO C 
 S 7 
   1    1861.0916331000      0.0134602335
   2     642.9939764000      0.0299160374
   3     235.1105725000      0.1008649584
   4      90.7028894000      0.2370970548
   5      36.7794552000      0.3924037254
   6      15.6046273000      0.3195862154
   7       6.8907294000      0.0530104441
 S 1 
   1       3.1478850000     -1.0000000000
 S 1 
   1       1.4777287000      1.0000000000
 S 1 
   1       0.7076466000      1.0000000000
 S 1 
   1       0.3430122000      1.0000000000
 S 1 
   1       0.1669453000      1.0000000000
 P 2 
   1      13.5472892000     -0.6769313712
   2       5.4669419000     -0.3779500978
 P 1 
   1       2.1751721000      1.0000000000
 P 1 
   1       0.8582194000      1.0000000000
 P 1 
   1       0.3376720000      1.0000000000
 D 2 
   1       5.9287253000     -0.3533329857
   2       1.9809209000     -0.7456525731
 D 1 
   1       0.8055417000     -1.0000000000
 D 1 
   1       0.3531244000     -1.0000000000
 F 2 
   1       1.6755626000      0.6311076882
   2       0.5997536000      0.4968166032
 G 1 
   1       1.0024600000     -1.0000000000
  end;

 # Auxiliary/J basis set for element : O 
 NewAuxJGTO O 
 S 7 
   1    2876.8216605000      0.0168151159
   2    1004.7443032000      0.0340137548
   3     369.7579954000      0.1194951309
   4     142.9442404000      0.2664627624
   5      57.8366425000      0.4202764046
   6      24.3864983000      0.2765077335
   7      10.6622662000      0.0057008815
 S 1 
   1       4.8070437000     -1.0000000000
 S 1 
   1       2.2210770000      1.0000000000
 S 1 
   1       1.0447795000      1.0000000000
 S 1 
   1       0.4968425000      1.0000000000
 S 1 
   1       0.2371384000      1.0000000000
 P 2 
   1      64.2613382000     -0.2731534179
   2      16.3006076000     -0.8168011598
 P 1 
   1       4.3550542000      1.0000000000
 P 1 
   1       1.2019554000      1.0000000000
 P 1 
   1       0.3354196000      1.0000000000
 D 2 
   1       9.2146611000     -0.4661230638
   2       2.8435251000     -0.6600908911
 D 1 
   1       0.9955759000     -1.0000000000
 D 1 
   1       0.3649441000     -1.0000000000
 F 2 
   1       2.6420115000      0.5931563945
   2       0.7345613000      0.5931563945
 G 1 
   1       1.3931000000     -1.0000000000
  end;



           ************************************************************
           *        Program running with 4 parallel MPI-processes     *
           *              working on a common directory               *
           ************************************************************
------------------------------------------------------------------------------
                           ORCA GTO INTEGRAL CALCULATION
                           -- RI-GTO INTEGRALS CHOSEN --
------------------------------------------------------------------------------
------------------------------------------------------------------------------
                   ___                                                        
                  /   \      - P O W E R E D   B Y -                         
                 /     \                                                     
                 |  |  |   _    _      __       _____    __    __             
                 |  |  |  | |  | |    /  \     |  _  \  |  |  /  |          
                  \  \/   | |  | |   /    \    | | | |  |  | /  /          
                 / \  \   | |__| |  /  /\  \   | |_| |  |  |/  /          
                |  |  |   |  __  | /  /__\  \  |    /   |      \           
                |  |  |   | |  | | |   __   |  |    \   |  |\   \          
                \     /   | |  | | |  |  |  |  | |\  \  |  | \   \       
                 \___/    |_|  |_| |__|  |__|  |_| \__\ |__|  \__/        
                                                                              
                      - O R C A' S   B I G   F R I E N D -                    
                                      &                                       
                       - I N T E G R A L  F E E D E R -                       
                                                                              
 v1 FN, 2020, v2 2021                                                         
------------------------------------------------------------------------------


Reading SHARK input file inpS.SHARKINP.tmp ... ok
----------------------
SHARK INTEGRAL PACKAGE
----------------------

Number of atoms                             ...     73
Number of basis functions                   ...    713
Number of shells                            ...    335
Maximum angular momentum                    ...      2
Integral batch strategy                     ... SHARK/LIBINT Hybrid
RI-J (if used) integral strategy            ... SPLIT-RIJ (Revised 2003 algorithm where possible)
Printlevel                                  ...      1
Contraction scheme used                     ... SEGMENTED contraction
Coulomb Range Separation                    ... NOT USED
Exchange Range Separation                   ... NOT USED
Finite Nucleus Model                        ... NOT USED
Auxiliary Coulomb fitting basis             ... AVAILABLE
   # of basis functions in Aux-J            ...   1905
   # of shells in Aux-J                     ...    655
   Maximum angular momentum in Aux-J        ...      4
Auxiliary J/K fitting basis                 ... NOT available
Auxiliary Correlation fitting basis         ... NOT available
Auxiliary 'external' fitting basis          ... NOT available
Integral threshold                          ...     3.000000e-11
Primitive cut-off                           ...     1.000000e-12
Primitive pair pre-selection threshold      ...     1.000000e-12

Calculating pre-screening integrals         ... done (  0.0 sec) Dimension = 335
Organizing shell pair data                  ... done (  0.1 sec)
Shell pair information
Total number of shell pairs                 ...     56280
Shell pairs after pre-screening             ...     31735
Total number of primitive shell pairs       ...    225367
Primitive shell pairs kept                  ...     74633
          la=0 lb=0:   9692 shell pairs
          la=1 lb=0:  13050 shell pairs
          la=1 lb=1:   4260 shell pairs
          la=2 lb=0:   2774 shell pairs
          la=2 lb=1:   1763 shell pairs
          la=2 lb=2:    196 shell pairs

Calculating one electron integrals          ... done (  0.1 sec)
Calculating RI/J V-Matrix + Cholesky decomp.... done (  0.1 sec)
Calculating Nuclear repulsion               ... done (  0.0 sec) ENN=   2790.197660660765 Eh

SHARK setup successfully completed in   0.6 seconds

Maximum memory used throughout the entire GTOINT-calculation: 61.2 MB


           ************************************************************
           *        Program running with 4 parallel MPI-processes     *
           *              working on a common directory               *
           ************************************************************
-------------------------------------------------------------------------------
                                 ORCA SCF
-------------------------------------------------------------------------------

------------
SCF SETTINGS
------------
Hamiltonian:
 Density Functional     Method          .... DFT(GTOs)
 Exchange Functional    Exchange        .... revTPSS
 Correlation Functional Correlation     .... revTPSS
 LDA part of GGA corr.  LDAOpt          .... PW91-LDA
 Gradients option       PostSCFGGA      .... off
   Density functional embedding theory  .... OFF
 RI-approximation to the Coulomb term is turned on
   Number of AuxJ basis functions       .... 1905


General Settings:
 Integral files         IntName         .... inpS
 Hartree-Fock type      HFTyp           .... RHF
 Total Charge           Charge          ....    0
 Multiplicity           Mult            ....    1
 Number of Electrons    NEL             ....  220
 Basis Dimension        Dim             ....  713
 Nuclear Repulsion      ENuc            ....   2790.1976606608 Eh

Convergence Acceleration:
 DIIS                   CNVDIIS         .... on
   Start iteration      DIISMaxIt       ....    12
   Startup error        DIISStart       ....  0.200000
   # of expansion vecs  DIISMaxEq       ....     5
   Bias factor          DIISBfac        ....   1.050
   Max. coefficient     DIISMaxC        ....  10.000
 Trust-Rad. Augm. Hess. CNVTRAH         .... auto
   Auto Start mean grad. ratio tolernc. ....  1.125000
   Auto Start start iteration           ....    20
   Auto Start num. interpolation iter.  ....    10
   Max. Number of Micro iterations      ....    16
   Max. Number of Macro iterations      .... Maxiter - #DIIS iter
   Number of Davidson start vectors     ....     2
   Converg. threshold I  (grad. norm)   ....   1.000e-04
   Converg. threshold II (energy diff.) ....   1.000e-07
   Grad. Scal. Fac. for Micro threshold ....   0.100
   Minimum threshold for Micro iter.    ....   0.010
   NR start threshold (gradient norm)   ....   0.001
   Initial trust radius                 ....   0.400
   Minimum AH scaling param. (alpha)    ....   1.000
   Maximum AH scaling param. (alpha)    .... 1000.000
   Orbital update algorithm             .... Taylor
   White noise on init. David. guess    .... on
   Maximum white noise                  ....   0.010
   Quad. conv. algorithm                .... NR
 SOSCF                  CNVSOSCF        .... off
 Level Shifting         CNVShift        .... on
   Level shift para.    LevelShift      ....    0.2500
   Turn off err/grad.   ShiftErr        ....    0.0010
 Zerner damping         CNVZerner       .... off
 Static damping         CNVDamp         .... on
   Fraction old density DampFac         ....    0.7000
   Max. Damping (<1)    DampMax         ....    0.9800
   Min. Damping (>=0)   DampMin         ....    0.0000
   Turn off err/grad.   DampErr         ....    0.1000
 Fernandez-Rico         CNVRico         .... off

SCF Procedure:
 Maximum # iterations   MaxIter         ....   125
 SCF integral mode      SCFMode         .... Direct
   Integral package                     .... SHARK and LIBINT hybrid scheme
 Reset frequency        DirectResetFreq ....    20
 Integral Threshold     Thresh          ....  3.000e-11 Eh
 Primitive CutOff       TCut            ....  1.000e-12 Eh

Convergence Tolerance:
 Convergence Check Mode ConvCheckMode   .... Total+1el-Energy
 Convergence forced     ConvForced      .... 0
 Energy Change          TolE            ....  1.000e-07 Eh
 1-El. energy change                    ....  1.000e-04 Eh
 DIIS Error             TolErr          ....  1.000e-07


Diagonalization of the overlap matrix:
Smallest eigenvalue                        ... 5.177e-04
Time for diagonalization                   ...    0.081 sec
Threshold for overlap eigenvalues          ... 1.000e-08
Number of eigenvalues below threshold      ... 0
Time for construction of square roots      ...    0.070 sec
Total time needed                          ...    0.153 sec

Time for model grid setup =    0.928 sec

------------------------------
INITIAL GUESS: MODEL POTENTIAL
------------------------------
Loading Hartree-Fock densities                     ... done
Calculating cut-offs                               ... done
Initializing the effective Hamiltonian             ... done
Setting up the integral package (SHARK)            ... done
Starting the Coulomb interaction                   ... done (   0.7 sec)
Reading the grid                                   ... done
Mapping shells                                     ... done
Starting the XC term evaluation                    ... done (   0.3 sec)
  promolecular density results
     # of electrons  =    219.987787767
     EX              =   -164.431725500
     EC              =     -7.327029047
     EX+EC           =   -171.758754547
Transforming the Hamiltonian                       ... done (   0.0 sec)
Diagonalizing the Hamiltonian                      ... done (   0.1 sec)
Back transforming the eigenvectors                 ... done (   0.0 sec)
Now organizing SCF variables                       ... done
                      ------------------
                      INITIAL GUESS DONE (   2.1 sec)
                      ------------------
-------------------
DFT GRID GENERATION
-------------------

General Integration Accuracy     IntAcc      ... 4.388
Radial Grid Type                 RadialGrid  ... OptM3 with GC (2021)
Angular Grid (max. ang.)         AngularGrid ... 4 (Lebedev-302)
Angular grid pruning method      GridPruning ... 4 (adaptive)
Weight generation scheme         WeightScheme... Becke
Basis function cutoff            BFCut       ... 1.0000e-11
Integration weight cutoff        WCut        ... 1.0000e-14
Angular grids for H and He will be reduced by one unit
Partially contracted basis set               ... off
Rotationally invariant grid construction     ... off

Total number of grid points                  ...   309838
Total number of batches                      ...     4874
Average number of points per batch           ...       63
Average number of grid points per atom       ...     4244
Time for grid setup =    2.938 sec


--------------------
CPCM SOLVATION MODEL
--------------------
CPCM parameters:
  Epsilon                                         ...       4.9000
  Refrac                                          ...       1.4500
  Rsolv                                           ...       1.3000
  Surface type                                    ... GAUSSIAN VDW
  Epsilon function type                           ...         CPCM
Radii:
 Radius for C  used is    3.8550 Bohr (=   2.0400 Ang.)
 Radius for H  used is    2.4944 Bohr (=   1.3200 Ang.)
 Radius for O  used is    3.4469 Bohr (=   1.8240 Ang.)
Calculating surface                               ...        done! (  0.0s)
GEPOL surface points                              ...         3630
GEPOL Volume                                      ...    3598.2823
GEPOL Surface-area                                ...    1776.6146
Calculating surface distance matrix               ...        done! (  0.1s)
Performing Cholesky decomposition & store         ...        done! (  0.4s)
Overall time for CPCM initialization              ...                 0.5s
--------------
SCF ITERATIONS
--------------
ITER       Energy         Delta-E        Max-DP      RMS-DP      [F,P]     Damp
               ***  Starting incremental Fock matrix formation  ***

  HOMO= 109 E= -1.916 eV LUMO=  7.773 eV gap=   9.689 eV
  0  -1167.5246803422   0.000000000000 0.05504817  0.00082938  0.2631943 0.7000

  HOMO= 109 E= -3.432 eV LUMO=  6.670 eV gap=  10.102 eV
  1  -1167.8975563699  -0.372876027701 0.02894003  0.00061366  0.1015799 0.7000
                               ***Turning on DIIS***

  HOMO= 109 E= -4.408 eV LUMO=  5.786 eV gap=  10.194 eV
  2  -1168.0437350967  -0.146178726829 0.04875297  0.00101213  0.0317263 0.0000

  HOMO= 109 E= -5.029 eV LUMO=  5.203 eV gap=  10.232 eV
  3  -1168.2408759612  -0.197140864464 0.02317994  0.00047412  0.0531326 0.0000

  HOMO= 109 E= -5.053 eV LUMO=  5.179 eV gap=  10.231 eV
  4  -1168.3077717492  -0.066895788005 0.00743889  0.00015238  0.0103564 0.0000

  HOMO= 109 E= -5.009 eV LUMO=  5.230 eV gap=  10.239 eV
  5  -1168.3108544567  -0.003082707540 0.00346582  0.00005723  0.0104347 0.0000

  HOMO= 109 E= -4.989 eV LUMO=  5.247 eV gap=  10.236 eV
  6  -1168.3111322304  -0.000277773722 0.00125840  0.00001926  0.0029574 0.0000

  HOMO= 109 E= -4.990 eV LUMO= -1.557 eV gap=   3.433 eV
  7  -1168.3111519164  -0.000019685944 0.00070439  0.00001175  0.0005365 0.0000

  HOMO= 109 E= -4.989 eV LUMO= -1.556 eV gap=   3.433 eV
  8  -1168.3111550622  -0.000003145767 0.00026070  0.00000287  0.0003752 0.0000

  HOMO= 109 E= -4.987 eV LUMO= -1.554 eV gap=   3.433 eV
  9  -1168.3111556724  -0.000000610284 0.00015996  0.00000154  0.0002606 0.0000

  HOMO= 109 E= -4.987 eV LUMO= -1.554 eV gap=   3.433 eV
 10  -1168.3111559492  -0.000000276737 0.00006887  0.00000070  0.0000995 0.0000

  HOMO= 109 E= -4.987 eV LUMO= -1.554 eV gap=   3.433 eV
 11  -1168.3111559737  -0.000000024485 0.00003029  0.00000029  0.0000305 0.0000

  HOMO= 109 E= -4.987 eV LUMO= -1.554 eV gap=   3.433 eV
 12  -1168.3111559567   0.000000017011 0.00001501  0.00000013  0.0000174 0.0000

  HOMO= 109 E= -4.987 eV LUMO= -1.554 eV gap=   3.433 eV
 13  -1168.3111559763  -0.000000019689 0.00000643  0.00000006  0.0000074 0.0000
                 **** Energy Check signals convergence ****

               *****************************************************
               *                     SUCCESS                       *
               *           SCF CONVERGED AFTER  14 CYCLES          *
               *****************************************************


----------------
TOTAL SCF ENERGY
----------------

Total Energy       :        -1168.31115600 Eh          -31791.36280 eV

Components:
Nuclear Repulsion  :         2790.19766066 Eh           75925.13831 eV
Electronic Energy  :        -3958.50881666 Eh         -107716.50110 eV
One Electron Energy:        -7126.54551470 Eh         -193923.16232 eV
Two Electron Energy:         3168.03669804 Eh           86206.66122 eV
CPCM Dielectric    :           -0.00895717 Eh              -0.24374 eV

Virial components:
Potential Energy   :        -2330.40949418 Eh          -63413.66623 eV
Kinetic Energy     :         1162.09833818 Eh           31622.30343 eV
Virial Ratio       :            2.00534621


DFT components:
N(Alpha)           :      110.000125299480 electrons
N(Beta)            :      110.000125299480 electrons
N(Total)           :      220.000250598960 electrons
E(X)               :     -169.581958352241 Eh       
E(C)               :       -7.443797130346 Eh       
E(XC)              :     -177.025755482587 Eh       
DFET-embed. en.    :        0.000000000000 Eh       
CPCM Solvation Model Properties:
Surface-charge          :           -0.04555328
Charge-correction       :           -0.00007175 Eh              -0.00195 eV
Free-energy (cav+disp)  :  This term is not implemented in the current solvation scheme

---------------
SCF CONVERGENCE
---------------

  Last Energy change         ...   -2.6514e-08  Tolerance :   1.0000e-07
  Last MAX-Density change    ...    2.7825e-06  Tolerance :   1.0000e-05
  Last RMS-Density change    ...    2.9091e-08  Tolerance :   1.0000e-06
  Last DIIS Error            ...    3.4717e-06  Tolerance :   1.0000e-07

             **** THE GBW FILE WAS UPDATED (inpS.gbw) ****
             **** DENSITY inpS.scfp WAS UPDATED ****
             **** ENERGY FILE WAS UPDATED (inpS.en.tmp) ****
             **** THE GBW FILE WAS UPDATED (inpS.gbw) ****
             **** DENSITY inpS.scfp WAS UPDATED ****
----------------
ORBITAL ENERGIES
----------------

  NO   OCC          E(Eh)            E(eV) 
   0   2.0000     -18.903693      -514.3956 
   1   2.0000     -10.057172      -273.6696 
   2   2.0000     -10.016442      -272.5612 
   3   2.0000     -10.014640      -272.5122 
   4   2.0000     -10.012191      -272.4456 
   5   2.0000     -10.012107      -272.4433 
   6   2.0000     -10.011948      -272.4390 
   7   2.0000     -10.011186      -272.4182 
   8   2.0000     -10.010147      -272.3899 
   9   2.0000     -10.009746      -272.3790 
  10   2.0000     -10.009655      -272.3766 
  11   2.0000     -10.007530      -272.3187 
  12   2.0000     -10.006865      -272.3006 
  13   2.0000     -10.006386      -272.2876 
  14   2.0000     -10.006258      -272.2841 
  15   2.0000     -10.005550      -272.2649 
  16   2.0000     -10.005070      -272.2518 
  17   2.0000     -10.000999      -272.1410 
  18   2.0000     -10.000815      -272.1360 
  19   2.0000      -9.999577      -272.1023 
  20   2.0000      -9.999570      -272.1021 
  21   2.0000      -9.998949      -272.0852 
  22   2.0000      -9.998631      -272.0766 
  23   2.0000      -9.998316      -272.0680 
  24   2.0000      -9.997557      -272.0473 
  25   2.0000      -9.996769      -272.0259 
  26   2.0000      -9.995777      -271.9989 
  27   2.0000      -9.995390      -271.9884 
  28   2.0000      -9.993340      -271.9326 
  29   2.0000      -0.954367       -25.9696 
  30   2.0000      -0.807774       -21.9806 
  31   2.0000      -0.789429       -21.4815 
  32   2.0000      -0.770944       -20.9785 
  33   2.0000      -0.757002       -20.5991 
  34   2.0000      -0.734318       -19.9818 
  35   2.0000      -0.727856       -19.8060 
  36   2.0000      -0.708854       -19.2889 
  37   2.0000      -0.708732       -19.2856 
  38   2.0000      -0.694172       -18.8894 
  39   2.0000      -0.676163       -18.3993 
  40   2.0000      -0.660270       -17.9669 
  41   2.0000      -0.655588       -17.8395 
  42   2.0000      -0.635924       -17.3044 
  43   2.0000      -0.626182       -17.0393 
  44   2.0000      -0.625249       -17.0139 
  45   2.0000      -0.619217       -16.8498 
  46   2.0000      -0.591276       -16.0894 
  47   2.0000      -0.583861       -15.8877 
  48   2.0000      -0.555643       -15.1198 
  49   2.0000      -0.547690       -14.9034 
  50   2.0000      -0.541079       -14.7235 
  51   2.0000      -0.535801       -14.5799 
  52   2.0000      -0.527515       -14.3544 
  53   2.0000      -0.521814       -14.1993 
  54   2.0000      -0.490017       -13.3340 
  55   2.0000      -0.482712       -13.1353 
  56   2.0000      -0.472448       -12.8560 
  57   2.0000      -0.463407       -12.6099 
  58   2.0000      -0.451235       -12.2787 
  59   2.0000      -0.443105       -12.0575 
  60   2.0000      -0.434418       -11.8211 
  61   2.0000      -0.425534       -11.5794 
  62   2.0000      -0.423714       -11.5298 
  63   2.0000      -0.416950       -11.3458 
  64   2.0000      -0.410830       -11.1792 
  65   2.0000      -0.405494       -11.0340 
  66   2.0000      -0.403526       -10.9805 
  67   2.0000      -0.398254       -10.8370 
  68   2.0000      -0.397683       -10.8215 
  69   2.0000      -0.389417       -10.5966 
  70   2.0000      -0.386845       -10.5266 
  71   2.0000      -0.382274       -10.4022 
  72   2.0000      -0.377494       -10.2721 
  73   2.0000      -0.376786       -10.2529 
  74   2.0000      -0.371603       -10.1118 
  75   2.0000      -0.366029        -9.9602 
  76   2.0000      -0.361902        -9.8479 
  77   2.0000      -0.356981        -9.7139 
  78   2.0000      -0.355088        -9.6624 
  79   2.0000      -0.348925        -9.4947 
  80   2.0000      -0.345846        -9.4109 
  81   2.0000      -0.343582        -9.3494 
  82   2.0000      -0.341716        -9.2986 
  83   2.0000      -0.337415        -9.1815 
  84   2.0000      -0.335978        -9.1424 
  85   2.0000      -0.325940        -8.8693 
  86   2.0000      -0.323277        -8.7968 
  87   2.0000      -0.320070        -8.7095 
  88   2.0000      -0.318360        -8.6630 
  89   2.0000      -0.312060        -8.4916 
  90   2.0000      -0.309217        -8.4142 
  91   2.0000      -0.305651        -8.3172 
  92   2.0000      -0.302993        -8.2448 
  93   2.0000      -0.295651        -8.0451 
  94   2.0000      -0.290136        -7.8950 
  95   2.0000      -0.287875        -7.8335 
  96   2.0000      -0.286919        -7.8075 
  97   2.0000      -0.285598        -7.7715 
  98   2.0000      -0.282042        -7.6748 
  99   2.0000      -0.279287        -7.5998 
 100   2.0000      -0.274395        -7.4667 
 101   2.0000      -0.272527        -7.4158 
 102   2.0000      -0.270797        -7.3688 
 103   2.0000      -0.268268        -7.3000 
 104   2.0000      -0.259898        -7.0722 
 105   2.0000      -0.249468        -6.7884 
 106   2.0000      -0.230132        -6.2622 
 107   2.0000      -0.228634        -6.2214 
 108   2.0000      -0.212734        -5.7888 
 109   2.0000      -0.183281        -4.9873 
 110   0.0000      -0.057116        -1.5542 
 111   0.0000      -0.014114        -0.3841 
 112   0.0000      -0.006268        -0.1706 
 113   0.0000       0.030169         0.8209 
 114   0.0000       0.038901         1.0586 
 115   0.0000       0.039635         1.0785 
 116   0.0000       0.047629         1.2960 
 117   0.0000       0.049154         1.3376 
 118   0.0000       0.053224         1.4483 
 119   0.0000       0.059645         1.6230 
 120   0.0000       0.060632         1.6499 
 121   0.0000       0.064096         1.7442 
 122   0.0000       0.070070         1.9067 
 123   0.0000       0.071577         1.9477 
 124   0.0000       0.079683         2.1683 
 125   0.0000       0.080765         2.1977 
 126   0.0000       0.083480         2.2716 
 127   0.0000       0.086092         2.3427 
 128   0.0000       0.088298         2.4027 
 129   0.0000       0.094716         2.5774 
 130   0.0000       0.096553         2.6273 
 131   0.0000       0.101012         2.7487 
 132   0.0000       0.101267         2.7556 
 133   0.0000       0.106501         2.8980 
 134   0.0000       0.109082         2.9683 
 135   0.0000       0.110626         3.0103 
 136   0.0000       0.116993         3.1835 
 137   0.0000       0.119694         3.2570 
 138   0.0000       0.123072         3.3490 
 139   0.0000       0.124831         3.3968 
 140   0.0000       0.126759         3.4493 
 141   0.0000       0.127767         3.4767 
 142   0.0000       0.129197         3.5156 
 143   0.0000       0.131008         3.5649 
 144   0.0000       0.137774         3.7490 
 145   0.0000       0.139643         3.7999 
 146   0.0000       0.141391         3.8474 
 147   0.0000       0.143551         3.9062 
 148   0.0000       0.146700         3.9919 
 149   0.0000       0.147594         4.0162 
 150   0.0000       0.154362         4.2004 
 151   0.0000       0.156610         4.2616 
 152   0.0000       0.159400         4.3375 
 153   0.0000       0.163372         4.4456 
 154   0.0000       0.166780         4.5383 
 155   0.0000       0.174777         4.7559 
 156   0.0000       0.175627         4.7791 
 157   0.0000       0.177530         4.8308 
 158   0.0000       0.181959         4.9513 
 159   0.0000       0.185239         5.0406 
 160   0.0000       0.188187         5.1208 
 161   0.0000       0.192383         5.2350 
 162   0.0000       0.196589         5.3495 
 163   0.0000       0.199171         5.4197 
 164   0.0000       0.204414         5.5624 
 165   0.0000       0.205589         5.5943 
 166   0.0000       0.207547         5.6476 
 167   0.0000       0.208630         5.6771 
 168   0.0000       0.213727         5.8158 
 169   0.0000       0.217810         5.9269 
 170   0.0000       0.219930         5.9846 
 171   0.0000       0.221383         6.0241 
 172   0.0000       0.228229         6.2104 
 173   0.0000       0.229815         6.2536 
 174   0.0000       0.238844         6.4993 
 175   0.0000       0.244254         6.6465 
 176   0.0000       0.249325         6.7845 
 177   0.0000       0.254988         6.9386 
 178   0.0000       0.262052         7.1308 
 179   0.0000       0.269054         7.3213 
 180   0.0000       0.275192         7.4884 
 181   0.0000       0.278046         7.5660 
 182   0.0000       0.285966         7.7815 
 183   0.0000       0.293692         7.9918 
 184   0.0000       0.296590         8.0706 
 185   0.0000       0.327938         8.9236 
 186   0.0000       0.336245         9.1497 
 187   0.0000       0.341613         9.2958 
 188   0.0000       0.345561         9.4032 
 189   0.0000       0.350568         9.5395 
 190   0.0000       0.360384         9.8065 
 191   0.0000       0.363483         9.8909 
 192   0.0000       0.368519        10.0279 
 193   0.0000       0.371717        10.1149 
 194   0.0000       0.375121        10.2076 
 195   0.0000       0.381429        10.3792 
 196   0.0000       0.387623        10.5478 
 197   0.0000       0.390057        10.6140 
 198   0.0000       0.396526        10.7900 
 199   0.0000       0.401398        10.9226 
 200   0.0000       0.407668        11.0932 
 201   0.0000       0.408767        11.1231 
 202   0.0000       0.414596        11.2817 
 203   0.0000       0.415602        11.3091 
 204   0.0000       0.420990        11.4557 
 205   0.0000       0.431610        11.7447 
 206   0.0000       0.436426        11.8758 
 207   0.0000       0.443915        12.0796 
 208   0.0000       0.449317        12.2265 
 209   0.0000       0.454473        12.3668 
 210   0.0000       0.457034        12.4365 
 211   0.0000       0.464499        12.6397 
 212   0.0000       0.473966        12.8973 
 213   0.0000       0.475661        12.9434 
 214   0.0000       0.480332        13.0705 
 215   0.0000       0.482852        13.1391 
 216   0.0000       0.489870        13.3300 
 217   0.0000       0.493894        13.4395 
 218   0.0000       0.499314        13.5870 
 219   0.0000       0.500268        13.6130 
 220   0.0000       0.503763        13.7081 
 221   0.0000       0.506524        13.7832 
 222   0.0000       0.512254        13.9392 
 223   0.0000       0.513384        13.9699 
 224   0.0000       0.520854        14.1731 
 225   0.0000       0.525357        14.2957 
 226   0.0000       0.536069        14.5872 
 227   0.0000       0.537463        14.6251 
 228   0.0000       0.539658        14.6848 
 229   0.0000       0.543667        14.7939 
 230   0.0000       0.546772        14.8784 
 231   0.0000       0.549855        14.9623 
 232   0.0000       0.554785        15.0965 
 233   0.0000       0.558749        15.2043 
 234   0.0000       0.561746        15.2859 
 235   0.0000       0.568083        15.4583 
 236   0.0000       0.570907        15.5352 
 237   0.0000       0.574957        15.6454 
 238   0.0000       0.575977        15.6731 
 239   0.0000       0.581353        15.8194 
 240   0.0000       0.583334        15.8733 
 241   0.0000       0.586734        15.9658 
 242   0.0000       0.588200        16.0057 
 243   0.0000       0.594711        16.1829 
 244   0.0000       0.594893        16.1878 
 245   0.0000       0.597568        16.2606 
 246   0.0000       0.600303        16.3351 
 247   0.0000       0.601433        16.3658 
 248   0.0000       0.602312        16.3897 
 249   0.0000       0.604380        16.4460 
 250   0.0000       0.605860        16.4863 
 251   0.0000       0.608962        16.5707 
 252   0.0000       0.609472        16.5846 
 253   0.0000       0.614010        16.7081 
 254   0.0000       0.616556        16.7773 
 255   0.0000       0.618030        16.8174 
 256   0.0000       0.625493        17.0205 
 257   0.0000       0.627766        17.0824 
 258   0.0000       0.630328        17.1521 
 259   0.0000       0.633594        17.2410 
 260   0.0000       0.635465        17.2919 
 261   0.0000       0.637148        17.3377 
 262   0.0000       0.641939        17.4680 
 263   0.0000       0.645879        17.5753 
 264   0.0000       0.648359        17.6428 
 265   0.0000       0.649921        17.6852 
 266   0.0000       0.652405        17.7528 
 267   0.0000       0.653743        17.7893 
 268   0.0000       0.655255        17.8304 
 269   0.0000       0.658302        17.9133 
 270   0.0000       0.662199        18.0193 
 271   0.0000       0.666461        18.1353 
 272   0.0000       0.670718        18.2512 
 273   0.0000       0.675464        18.3803 
 274   0.0000       0.677404        18.4331 
 275   0.0000       0.679850        18.4997 
 276   0.0000       0.682340        18.5674 
 277   0.0000       0.685838        18.6626 
 278   0.0000       0.689659        18.7666 
 279   0.0000       0.693401        18.8684 
 280   0.0000       0.695049        18.9133 
 281   0.0000       0.698006        18.9937 
 282   0.0000       0.700553        19.0630 
 283   0.0000       0.710293        19.3281 
 284   0.0000       0.714725        19.4487 
 285   0.0000       0.719988        19.5919 
 286   0.0000       0.721465        19.6321 
 287   0.0000       0.725082        19.7305 
 288   0.0000       0.732220        19.9247 
 289   0.0000       0.736749        20.0480 
 290   0.0000       0.739867        20.1328 
 291   0.0000       0.744426        20.2569 
 292   0.0000       0.746803        20.3215 
 293   0.0000       0.753193        20.4954 
 294   0.0000       0.759447        20.6656 
 295   0.0000       0.769340        20.9348 
 296   0.0000       0.773487        21.0476 
 297   0.0000       0.781357        21.2618 
 298   0.0000       0.785845        21.3839 
 299   0.0000       0.798168        21.7193 
 300   0.0000       0.802045        21.8248 
 301   0.0000       0.811978        22.0951 
 302   0.0000       0.819028        22.2869 
 303   0.0000       0.827294        22.5118 
 304   0.0000       0.851471        23.1697 
 305   0.0000       0.862961        23.4824 
 306   0.0000       0.872627        23.7454 
 307   0.0000       0.891579        24.2611 
 308   0.0000       0.897706        24.4278 
 309   0.0000       0.901540        24.5322 
 310   0.0000       0.929927        25.3046 
 311   0.0000       0.934167        25.4200 
 312   0.0000       0.947160        25.7735 
 313   0.0000       0.959178        26.1006 
 314   0.0000       0.976354        26.5679 
 315   0.0000       0.984894        26.8003 
 316   0.0000       1.001301        27.2468 
 317   0.0000       1.018556        27.7163 
 318   0.0000       1.026772        27.9399 
 319   0.0000       1.039768        28.2935 
 320   0.0000       1.049825        28.5672 
 321   0.0000       1.058719        28.8092 
 322   0.0000       1.067665        29.0526 
 323   0.0000       1.090893        29.6847 
 324   0.0000       1.108829        30.1728 
 325   0.0000       1.114297        30.3216 
 326   0.0000       1.120866        30.5003 
 327   0.0000       1.144571        31.1454 
 328   0.0000       1.159809        31.5600 
 329   0.0000       1.174958        31.9722 
 330   0.0000       1.187982        32.3266 
 331   0.0000       1.213291        33.0153 
 332   0.0000       1.236525        33.6476 
 333   0.0000       1.252243        34.0753 
 334   0.0000       1.259757        34.2797 
 335   0.0000       1.272489        34.6262 
 336   0.0000       1.285201        34.9721 
 337   0.0000       1.294484        35.2247 
 338   0.0000       1.301177        35.4068 
 339   0.0000       1.305390        35.5215 
 340   0.0000       1.310784        35.6683 
 341   0.0000       1.328410        36.1479 
 342   0.0000       1.337073        36.3836 
 343   0.0000       1.348961        36.7071 
 344   0.0000       1.354475        36.8571 
 345   0.0000       1.370477        37.2926 
 346   0.0000       1.382291        37.6141 
 347   0.0000       1.388944        37.7951 
 348   0.0000       1.402958        38.1764 
 349   0.0000       1.415003        38.5042 
 350   0.0000       1.422039        38.6957 
 351   0.0000       1.440941        39.2100 
 352   0.0000       1.445616        39.3372 
 353   0.0000       1.452172        39.5156 
 354   0.0000       1.457795        39.6686 
 355   0.0000       1.465527        39.8790 
 356   0.0000       1.480236        40.2793 
 357   0.0000       1.483060        40.3561 
 358   0.0000       1.500579        40.8328 
 359   0.0000       1.509106        41.0649 
 360   0.0000       1.517246        41.2864 
 361   0.0000       1.522119        41.4190 
 362   0.0000       1.537073        41.8259 
 363   0.0000       1.544448        42.0266 
 364   0.0000       1.552018        42.2326 
 365   0.0000       1.566408        42.6241 
 366   0.0000       1.574357        42.8404 
 367   0.0000       1.588248        43.2184 
 368   0.0000       1.597049        43.4579 
 369   0.0000       1.608577        43.7716 
 370   0.0000       1.612747        43.8851 
 371   0.0000       1.621283        44.1174 
 372   0.0000       1.629414        44.3386 
 373   0.0000       1.631423        44.3933 
 374   0.0000       1.641790        44.6754 
 375   0.0000       1.653720        45.0000 
 376   0.0000       1.661721        45.2177 
 377   0.0000       1.668678        45.4070 
 378   0.0000       1.674747        45.5722 
 379   0.0000       1.682741        45.7897 
 380   0.0000       1.687450        45.9178 
 381   0.0000       1.690921        46.0123 
 382   0.0000       1.700327        46.2683 
 383   0.0000       1.704406        46.3792 
 384   0.0000       1.709583        46.5201 
 385   0.0000       1.713562        46.6284 
 386   0.0000       1.717642        46.7394 
 387   0.0000       1.728270        47.0286 
 388   0.0000       1.731623        47.1199 
 389   0.0000       1.739915        47.3455 
 390   0.0000       1.748531        47.5799 
 391   0.0000       1.750521        47.6341 
 392   0.0000       1.751375        47.6573 
 393   0.0000       1.761944        47.9449 
 394   0.0000       1.769265        48.1441 
 395   0.0000       1.773697        48.2648 
 396   0.0000       1.781094        48.4660 
 397   0.0000       1.787375        48.6369 
 398   0.0000       1.789892        48.7054 
 399   0.0000       1.794500        48.8308 
 400   0.0000       1.799604        48.9697 
 401   0.0000       1.811280        49.2874 
 402   0.0000       1.812959        49.3331 
 403   0.0000       1.818106        49.4732 
 404   0.0000       1.821397        49.5627 
 405   0.0000       1.828747        49.7627 
 406   0.0000       1.833993        49.9055 
 407   0.0000       1.842640        50.1408 
 408   0.0000       1.846410        50.2434 
 409   0.0000       1.852713        50.4149 
 410   0.0000       1.854975        50.4764 
 411   0.0000       1.867040        50.8047 
 412   0.0000       1.869927        50.8833 
 413   0.0000       1.878594        51.1191 
 414   0.0000       1.885592        51.3096 
 415   0.0000       1.891395        51.4675 
 416   0.0000       1.894107        51.5413 
 417   0.0000       1.904539        51.8251 
 418   0.0000       1.911909        52.0257 
 419   0.0000       1.920764        52.2667 
 420   0.0000       1.923473        52.3404 
 421   0.0000       1.926844        52.4321 
 422   0.0000       1.933407        52.6107 
 423   0.0000       1.949376        53.0452 
 424   0.0000       1.952197        53.1220 
 425   0.0000       1.954196        53.1764 
 426   0.0000       1.964087        53.4455 
 427   0.0000       1.968458        53.5645 
 428   0.0000       1.969993        53.6062 
 429   0.0000       1.976738        53.7898 
 430   0.0000       1.978898        53.8485 
 431   0.0000       1.984537        54.0020 
 432   0.0000       1.989994        54.1505 
 433   0.0000       1.992933        54.2305 
 434   0.0000       1.995673        54.3050 
 435   0.0000       2.001249        54.4568 
 436   0.0000       2.004020        54.5322 
 437   0.0000       2.009206        54.6733 
 438   0.0000       2.013242        54.7831 
 439   0.0000       2.018209        54.9182 
 440   0.0000       2.027776        55.1786 
 441   0.0000       2.029946        55.2376 
 442   0.0000       2.034518        55.3620 
 443   0.0000       2.042407        55.5767 
[...]

 --------------
 Nucleus  47H :
 --------------

Diamagnetic contribution to the shielding tensor (ppm) : 
            33.348         -2.800        -6.038
            -4.773         33.753         8.471
            -8.264          8.612        49.668

Paramagnetic contribution to the shielding tensor (ppm): 
            -1.959          1.358         3.725
             3.262         -6.539        -6.386
             5.168         -5.862       -14.347

Total shielding tensor (ppm): 
            31.389         -1.442        -2.313
            -1.511         27.214         2.084
            -3.096          2.750        35.320


 Diagonalized sT*s matrix:
 
 sDSO            30.230           31.010           55.529  iso=      38.923
 sPSO            -3.805           -0.987          -18.054  iso=      -7.615
        ---------------  ---------------  ---------------
 Total           26.425           30.023           37.475  iso=      31.308

 --------------
 Nucleus  48H :
 --------------

Diamagnetic contribution to the shielding tensor (ppm) : 
            37.177          0.120        -3.221
            -7.156         36.705         1.486
            -6.521          0.556        47.009

Paramagnetic contribution to the shielding tensor (ppm): 
            -5.161          1.244         3.502
             8.774         -8.235        -2.870
             6.021         -2.518       -17.483

Total shielding tensor (ppm): 
            32.016          1.365         0.281
             1.618         28.470        -1.384
            -0.500         -1.962        29.526


 Diagonalized sT*s matrix:
 
 sDSO            43.027           40.916           36.948  iso=      40.297
 sPSO           -16.053          -10.606           -4.220  iso=     -10.293
        ---------------  ---------------  ---------------
 Total           26.974           30.310           32.728  iso=      30.004

 --------------
 Nucleus  52H :
 --------------

Diamagnetic contribution to the shielding tensor (ppm) : 
            38.783          0.779         0.617
             8.968         30.876        -6.091
             4.592         -7.108        51.252

Paramagnetic contribution to the shielding tensor (ppm): 
            -8.008          3.977         0.438
            -5.439         -4.520         8.369
            -2.187         10.161       -28.553

Total shielding tensor (ppm): 
            30.775          4.757         1.055
             3.529         26.357         2.278
             2.405          3.054        22.699


 Diagonalized sT*s matrix:
 
 sDSO            51.806           28.353           40.752  iso=      40.304
 sPSO           -30.532           -3.788           -6.761  iso=     -13.694
        ---------------  ---------------  ---------------
 Total           21.274           24.565           33.991  iso=      26.610

 --------------
 Nucleus  53H :
 --------------

Diamagnetic contribution to the shielding tensor (ppm) : 
            36.019          1.405         1.373
             3.074         35.412        -7.918
            -9.443         -5.550        53.257

Paramagnetic contribution to the shielding tensor (ppm): 
            -6.776          2.208        -1.297
            -0.246         -9.752         7.142
             9.814          5.482       -29.597

Total shielding tensor (ppm): 
            29.243          3.613         0.075
             2.828         25.659        -0.776
             0.370         -0.068        23.660


 Diagonalized sT*s matrix:
 
 sDSO            40.675           46.065           37.948  iso=      41.563
 sPSO           -17.442          -21.872           -6.812  iso=     -15.375
        ---------------  ---------------  ---------------
 Total           23.233           24.193           31.136  iso=      26.187

 --------------
 Nucleus  57H :
 --------------

Diamagnetic contribution to the shielding tensor (ppm) : 
            34.493         -0.475        -0.053
             5.683         41.758        -6.725
            -7.744         -6.375        34.124

Paramagnetic contribution to the shielding tensor (ppm): 
            -5.634         -0.244         0.245
            -5.938         -8.174         5.675
             8.112          5.751        -5.748

Total shielding tensor (ppm): 
            28.859         -0.720         0.192
            -0.255         33.584        -1.050
             0.368         -0.624        28.376


 Diagonalized sT*s matrix:
 
 sDSO            34.771           32.705           42.898  iso=      36.792
 sPSO            -6.591           -3.838           -9.127  iso=      -6.519
        ---------------  ---------------  ---------------
 Total           28.181           28.867           33.771  iso=      30.273

 --------------
 Nucleus  58H :
 --------------

Diamagnetic contribution to the shielding tensor (ppm) : 
            31.892         -0.024         0.581
             4.697         38.586        -8.883
            14.053         -8.822        34.254

Paramagnetic contribution to the shielding tensor (ppm): 
            -2.038          1.476         1.136
            -3.144         -4.858         8.464
           -12.370          8.357        -6.921

Total shielding tensor (ppm): 
            29.854          1.451         1.717
             1.553         33.728        -0.419
             1.683         -0.465        27.333


 Diagonalized sT*s matrix:
 
 sDSO            25.133           40.544           39.054  iso=      34.910
 sPSO             1.183          -10.190           -4.810  iso=      -4.606
        ---------------  ---------------  ---------------
 Total           26.316           30.354           34.245  iso=      30.305

 --------------
 Nucleus  61H :
 --------------

Diamagnetic contribution to the shielding tensor (ppm) : 
            35.587         -5.324        -2.126
           -10.445         31.422        -2.769
           -13.970         -7.575        17.386

Paramagnetic contribution to the shielding tensor (ppm): 
            -4.005          2.280         0.589
             7.164          1.849         4.061
            12.239          9.383        11.738

Total shielding tensor (ppm): 
            31.582         -3.044        -1.537
            -3.281         33.271         1.292
            -1.730          1.808        29.124


 Diagonalized sT*s matrix:
 
 sDSO            14.352           30.758           39.285  iso=      28.132
 sPSO            13.957           -1.472           -2.902  iso=       3.194
        ---------------  ---------------  ---------------
 Total           28.309           29.286           36.383  iso=      31.326

 --------------
 Nucleus  62H :
 --------------

Diamagnetic contribution to the shielding tensor (ppm) : 
            42.741          6.296         1.767
            11.756         27.676        -5.420
           -15.271         -8.551         5.125

Paramagnetic contribution to the shielding tensor (ppm): 
            -7.690         -1.578        -2.590
            -7.677         -0.890         5.765
            13.200          8.575        24.311

Total shielding tensor (ppm): 
            35.051          4.718        -0.823
             4.079         26.787         0.345
            -2.071          0.024        29.437


 Diagonalized sT*s matrix:
 
 sDSO            24.110            2.774           48.659  iso=      25.181
 sPSO             0.652           26.580          -11.501  iso=       5.244
        ---------------  ---------------  ---------------
 Total           24.762           29.354           37.158  iso=      30.425

 --------------
 Nucleus  63H :
 --------------

Diamagnetic contribution to the shielding tensor (ppm) : 
            31.684          0.397        -1.566
             2.410         17.616        -6.859
           -25.570         -6.772        34.753

Paramagnetic contribution to the shielding tensor (ppm): 
            -1.969          0.523        -0.329
            -1.991          8.622         6.008
            24.387          5.185         1.576

Total shielding tensor (ppm): 
            29.715          0.920        -1.894
             0.420         26.238        -0.851
            -1.183         -1.587        36.329


 Diagonalized sT*s matrix:
 
 sDSO            16.705           25.569           41.779  iso=      28.018
 sPSO             9.320            3.850           -4.941  iso=       2.743
        ---------------  ---------------  ---------------
 Total           26.025           29.419           36.837  iso=      30.761

 --------------
 Nucleus  64H :
 --------------

Diamagnetic contribution to the shielding tensor (ppm) : 
            40.713          1.481        -5.278
            14.326         29.981         7.409
            16.263          7.849        50.265

Paramagnetic contribution to the shielding tensor (ppm): 
            -4.080          1.886         6.868
           -12.047         -4.837        -3.760
           -15.282         -4.775       -21.427

Total shielding tensor (ppm): 
            36.633          3.367         1.591
             2.279         25.144         3.649
             0.981          3.073        28.838


 Diagonalized sT*s matrix:
 
 sDSO            27.117           45.829           48.013  iso=      40.320
 sPSO            -4.205          -15.905          -10.235  iso=     -10.115
        ---------------  ---------------  ---------------
 Total           22.912           29.924           37.778  iso=      30.205

 --------------
 Nucleus  65H :
 --------------

Diamagnetic contribution to the shielding tensor (ppm) : 
            24.348         -3.014        -5.195
             8.526         44.153         2.424
            15.706          4.714        41.011

Paramagnetic contribution to the shielding tensor (ppm): 
             5.420          1.158         4.557
            -9.483         -8.844         0.236
           -16.298         -1.661       -12.011

Total shielding tensor (ppm): 
            29.768         -1.855        -0.638
            -0.957         35.308         2.661
            -0.592          3.053        29.000


 Diagonalized sT*s matrix:
 
 sDSO            39.355           26.782           43.375  iso=      36.504
 sPSO           -11.459            2.652           -6.629  iso=      -5.145
        ---------------  ---------------  ---------------
 Total           27.896           29.434           36.746  iso=      31.359

 --------------
 Nucleus  66H :
 --------------

Diamagnetic contribution to the shielding tensor (ppm) : 
            21.901         -1.905        -4.470
             5.731         32.995        -1.087
            21.611         -1.490        50.699

Paramagnetic contribution to the shielding tensor (ppm): 
             7.101          2.150         2.524
            -5.272         -6.354         0.634
           -22.356          0.206       -13.584

Total shielding tensor (ppm): 
            29.002          0.245        -1.945
             0.459         26.641        -0.453
            -0.745         -1.284        37.115


 Diagonalized sT*s matrix:
 
 sDSO            32.281           25.705           47.609  iso=      35.198
 sPSO            -5.737            3.100          -10.201  iso=      -4.279
        ---------------  ---------------  ---------------
 Total           26.545           28.805           37.408  iso=      30.919

 --------------
 Nucleus  67H :
 --------------

Diamagnetic contribution to the shielding tensor (ppm) : 
            40.986         -2.358         4.505
            -5.009         23.725        -4.498
             7.314         -5.276         2.401

Paramagnetic contribution to the shielding tensor (ppm): 
            -4.522         -0.184        -4.985
             3.169          2.217         5.711
            -7.039          6.716        26.587

Total shielding tensor (ppm): 
            36.464         -2.542        -0.479
            -1.840         25.941         1.212
             0.275          1.440        28.988


 Diagonalized sT*s matrix:
 
 sDSO            23.126            3.049           40.937  iso=      22.371
 sPSO             1.957           26.343           -4.018  iso=       8.094
        ---------------  ---------------  ---------------
 Total           25.082           29.392           36.918  iso=      30.464

 --------------
 Nucleus  68H :
 --------------

Diamagnetic contribution to the shielding tensor (ppm) : 
            24.318          2.480         9.560
             1.464         16.102        -4.104
            29.079         -1.294        25.492

Paramagnetic contribution to the shielding tensor (ppm): 
             6.403         -2.080        -5.277
            -1.112         10.142         3.656
           -25.505          0.435        10.121

Total shielding tensor (ppm): 
            30.721          0.400         4.283
             0.352         26.244        -0.448
             3.574         -0.859        35.613


 Diagonalized sT*s matrix:
 
 sDSO            13.869           10.508           41.535  iso=      21.971
 sPSO            12.194           18.200           -3.727  iso=       8.889
        ---------------  ---------------  ---------------
 Total           26.063           28.708           37.808  iso=      30.859

 --------------
 Nucleus  69H :
 --------------

Diamagnetic contribution to the shielding tensor (ppm) : 
            28.074          5.659         6.424
            14.634         35.979        -0.336
            11.488         -4.199         9.402

Paramagnetic contribution to the shielding tensor (ppm): 
             2.530         -1.369        -5.232
           -10.637         -1.507         0.953
           -10.492          5.087        19.138

Total shielding tensor (ppm): 
            30.603          4.290         1.192
             3.997         34.471         0.617
             0.996          0.889        28.540


 Diagonalized sT*s matrix:
 
 sDSO             9.419           20.970           43.065  iso=      24.485
 sPSO            18.196            7.748           -5.784  iso=       6.720
        ---------------  ---------------  ---------------
 Total           27.615           28.718           37.281  iso=      31.205

 --------------
 Nucleus  70H :
 --------------

Diamagnetic contribution to the shielding tensor (ppm) : 
            31.218          0.822         3.784
            -7.941         36.476        11.615
            -4.758          9.453        40.319

Paramagnetic contribution to the shielding tensor (ppm): 
             0.998         -0.338        -3.286
             9.652         -6.421        -6.181
             5.738         -4.724       -11.922

Total shielding tensor (ppm): 
            32.216          0.484         0.498
             1.710         30.055         5.434
             0.981          4.730        28.397


 Diagonalized sT*s matrix:
 
 sDSO            28.309           36.872           42.832  iso=      36.004
 sPSO            -4.235           -5.275           -7.836  iso=      -5.782
        ---------------  ---------------  ---------------
 Total           24.075           31.597           34.996  iso=      30.223

 --------------
 Nucleus  71H :
 --------------

Diamagnetic contribution to the shielding tensor (ppm) : 
            28.046         -6.894        -0.606
           -12.165         38.524        -0.412
            -5.425         -5.626        37.264

Paramagnetic contribution to the shielding tensor (ppm): 
             2.565          4.512         1.326
            10.401         -4.808        -2.763
             5.774          3.651        -8.672

Total shielding tensor (ppm): 
            30.612         -2.382         0.719
            -1.764         33.716        -3.175
             0.349         -1.975        28.592


 Diagonalized sT*s matrix:
 
 sDSO            33.444           26.321           44.069  iso=      34.611
 sPSO            -5.959            3.438           -8.394  iso=      -3.638
        ---------------  ---------------  ---------------
 Total           27.485           29.759           35.675  iso=      30.973

 --------------
 Nucleus  72H :
 --------------

Diamagnetic contribution to the shielding tensor (ppm) : 
            36.277         -7.371        -8.868
           -14.872         24.330         4.419
           -18.562          3.635        34.250

Paramagnetic contribution to the shielding tensor (ppm): 
            -1.662          6.099         4.276
            13.290          5.139        -1.602
            14.275         -0.918        -5.328

Total shielding tensor (ppm): 
            34.615         -1.272        -4.592
            -1.582         29.469         2.818
            -4.286          2.717        28.922


 Diagonalized sT*s matrix:
 
 sDSO            25.206           17.189           52.461  iso=      31.619
 sPSO             0.370           12.379          -14.600  iso=      -0.617
        ---------------  ---------------  ---------------
 Total           25.577           29.568           37.861  iso=      31.002



--------------------------------
CHEMICAL SHIELDING SUMMARY (ppm)
--------------------------------


  Nucleus  Element    Isotropic     Anisotropy
  -------  -------  ------------   ------------
      3       H           29.370          6.453 
      4       H           29.050          7.417 
      8       H           29.572          7.933 
      9       H           29.336          5.437 
     10       H           30.108          8.332 
     11       H           29.860         10.228 
     13       H           27.735          7.782 
     16       H           26.788          4.712 
     17       H           26.509          4.828 
     19       H           25.407         10.409 
     21       H           25.607         14.638 
     24       H           28.910         10.101 
     25       H           30.045          9.537 
     27       H           30.246          7.032 
     28       H           30.112         11.841 
     30       H           29.759          8.066 
     31       H           30.423          7.015 
     33       H           29.752          4.264 
     35       H           30.170         14.750 
     37       H           30.386         10.523 
     38       H           30.245          9.843 
     40       H           30.012         10.658 
     41       H           30.528          8.303 
     42       H           30.509          5.351 
     45       H           31.244          7.226 
     46       H           31.016          8.061 
     47       H           31.308          9.251 
     48       H           30.004          4.086 
     52       H           26.610         11.071 
     53       H           26.187          7.423 
     57       H           30.273          5.247 
     58       H           30.305          5.910 
     61       H           31.326          7.586 
     62       H           30.425         10.100 
     63       H           30.761          9.115 
     64       H           30.205         11.360 
     65       H           31.359          8.081 
     66       H           30.919          9.733 
     67       H           30.464          9.681 
     68       H           30.859         10.422 
     69       H           31.205          9.115 
     70       H           30.223          7.160 
     71       H           30.973          7.052 
     72       H           31.002         10.288 



Maximum memory used throughout the entire EPRNMR-calculation: 140.9 MB

Timings for individual modules:

Sum of individual times         ...      140.706 sec (=   2.345 min)
GTO integral calculation        ...        0.790 sec (=   0.013 min)   0.6 %
SCF iterations                  ...       92.512 sec (=   1.542 min)  65.7 %
EPR/NMR calculation             ...       47.404 sec (=   0.790 min)  33.7 %
                             ****ORCA TERMINATED NORMALLY****
TOTAL RUN TIME: 0 days 0 hours 2 minutes 21 seconds 202 msec
