
                                 *****************
                                 * O   R   C   A *
                                 *****************

                                            #,                                       
                                            ###                                      
                                            ####                                     
                                            #####                                    
                                            ######                                   
                                           ########,                                 
                                     ,,################,,,,,                         
                               ,,#################################,,                 
                          ,,##########################################,,             
                       ,#########################################, ''#####,          
                    ,#############################################,,   '####,        
                  ,##################################################,,,,####,       
                ,###########''''           ''''###############################       
              ,#####''   ,,,,##########,,,,          '''####'''          '####       
            ,##' ,,,,###########################,,,                        '##       
           ' ,,###''''                  '''############,,,                           
         ,,##''                                '''############,,,,        ,,,,,,###''
      ,#''                                            '''#######################'''  
     '                                                          ''''####''''         
             ,#######,   #######,   ,#######,      ##                                
            ,#'     '#,  ##    ##  ,#'     '#,    #''#        ,####,   ,####,        
            ##       ##  ##   ,#'  ##            #'  '#       #'       #'  '#        
            ##       ##  #######   ##           ,######,      #####,   #    #        
            '#,     ,#'  ##    ##  '#,     ,#' ,#      #,     #,   #   #,  ,#        
             '#######'   ##     ##  '#######'  #'      '#     '####' # '####'        



                #########################################################
                #                        -***-                          #
                #          Department of theory and spectroscopy        #
                #                                                       #
                #                      Frank Neese                      #
                #                                                       #
                #     Directorship, Architecture, Infrastructure        #
                #                    SHARK, DRIVERS                     #
                #        Core code/Algorithms in most modules           #
                #                                                       #
                #        Max Planck Institute fuer Kohlenforschung      #
                #                Kaiser Wilhelm Platz 1                 #
                #                 D-45470 Muelheim/Ruhr                 #
                #                      Germany                          #
                #                                                       #
                #                  All rights reserved                  #
                #                        -***-                          #
                #########################################################


                         Program Version 6.0.0  -   RELEASE  -


 With contributions from (in alphabetic order):
   Daniel Aravena         : Magnetic Suceptibility
   Michael Atanasov       : Ab Initio Ligand Field Theory (pilot matlab implementation)
   Alexander A. Auer      : GIAO ZORA, VPT2 properties, NMR spectrum
   Ute Becker             : All parallelization in ORCA, NUMFREQ, NUMCALC
   Giovanni Bistoni       : ED, misc. LED, open-shell LED, HFLD
   Martin Brehm           : Molecular dynamics
   Dmytro Bykov           : pre 5.0 version of the SCF Hessian
   Marcos Casanova-Páez   : Triplet and SCS-CIS(D). UHF-(DLPNO)-IP/EA/STEOM-CCSD. UHF-CVS-IP/STEOM-CCSD
   Vijay G. Chilkuri      : MRCI spin determinant printing, contributions to CSF-ICE
   Pauline Colinet        : FMM embedding
   Dipayan Datta          : RHF DLPNO-CCSD density
   Achintya Kumar Dutta   : EOM-CC, STEOM-CC
   Nicolas Foglia         : Exact transition moments, OPA infrastructure, MCD improvements
   Dmitry Ganyushin       : Spin-Orbit,Spin-Spin,Magnetic field MRCI
   Miquel Garcia          : C-PCM and meta-GGA Hessian, CCSD/C-PCM, Gaussian charge scheme
   Tiago L. C. Gouveia    : GS-ROHF, GS-ROCIS
   Yang Guo               : DLPNO-NEVPT2, F12-NEVPT2, CIM, IAO-localization
   Andreas Hansen         : Spin unrestricted coupled pair/coupled cluster methods
   Ingolf Harden          : AUTO-CI MPn and infrastructure 
   Benjamin Helmich-Paris : MC-RPA, TRAH-(SCF,CASSCF), AVAS, COSX integrals, SCF dyn. polar.
   Lee Huntington         : MR-EOM, pCC
   Robert Izsak           : Overlap fitted RIJCOSX, COSX-SCS-MP3, EOM
   Riya Kayal             : Wick's Theorem for AUTO-CI, AUTO-CI UHF-CCSDT
   Emily Kempfer          : AUTO-CI, RHF CISDT and CCSDT
   Christian Kollmar      : KDIIS, OOCD, Brueckner-CCSD(T), CCSD density, CASPT2, CASPT2-K, improved NEVPT2
   Axel Koslowski         : Symmetry handling
   Simone Kossmann        : Meta GGA functionals, TD-DFT gradient, OOMP2, (MP2 Hessian; deprecated post 5.0)
   Lucas Lang             : DCDCAS
   Marvin Lechner         : AUTO-CI (C++ implementation), FIC-MRCC
   Spencer Leger          : CASSCF response
   Dagmar Lenk            : GEPOL surface, SMD, ORCA-2-JSON
   Dimitrios Liakos       : Extrapolation schemes; Compound Job, initial MDCI parallelization
   Dimitrios Manganas     : Further ROCIS development; embedding schemes. LFT, Crystal Embedding
   Dimitrios Pantazis     : SARC Basis sets
   Anastasios Papadopoulos: AUTO-CI, single reference methods and gradients
   Taras Petrenko         : pre 6.0 DFT Hessian and TD-DFT gradient, (ASA, deprecated), ECA, 1-Electron XAS/XES, NRVS
   Peter Pinski           : DLPNO-MP2, DLPNO-MP2 Gradient
   Christoph Reimann      : Effective Core Potentials
   Marius Retegan         : Local ZFS, SOC
   Christoph Riplinger    : Optimizer, TS searches, QM/MM, DLPNO-CCSD(T), (RO)-DLPNO pert. Triples
   Michael Roemelt        : Original ROCIS implementation
   Masaaki Saitow         : Open-shell DLPNO-CCSD energy and density
   Barbara Sandhoefer     : DKH picture change effects
   Kantharuban Sivalingam : CASSCF convergence/infrastructure, NEVPT2 and variants, FIC-MRCI
   Bernardo de Souza      : ESD, SOC TD-DFT
   Georgi Stoychev        : AutoAux, RI-MP2 NMR, DLPNO-MP2 response, X2C
   Van Anh Tran           : RI-MP2 g-tensors
   Willem Van den Heuvel  : Paramagnetic NMR
   Zikuan Wang            : NOTCH, Electric field optimization 
   Frank Wennmohs         : Technical directorship and infrastructure
   Hang Xu                : AUTO-CI-Response properties 


 We gratefully acknowledge several colleagues who have allowed us to
 interface, adapt or use parts of their codes:
   Stefan Grimme, W. Hujo, H. Kruse, P. Pracht,  : VdW corrections, initial TS optimization,
                  C. Bannwarth, S. Ehlert,         DFT functionals, gCP, sTDA/sTD-DF
                  L. Wittmann, M. Mueller
   Ed Valeev, F. Pavosevic, A. Kumar             : LibInt (2-el integral package), F12 methods
   Garnet Chan, S. Sharma, J. Yang, R. Olivares  : DMRG
   Ulf Ekstrom                                   : XCFun DFT Library
   Mihaly Kallay                                 : mrcc  (arbitrary order and MRCC methods)
   Frank Weinhold                                : gennbo (NPA and NBO analysis)
   Simon Mueller                                 : openCOSMO-RS
   Christopher J. Cramer and Donald G. Truhlar   : smd solvation model
   Lars Goerigk                                  : TD-DFT with DH, B97 family of functionals
   V. Asgeirsson, H. Jonsson                     : NEB implementation
   FAccTs GmbH                                   : IRC, NEB, NEB-TS, DLPNO-Multilevel, CI-OPT
                                                   MM, QMMM, 2- and 3-layer-ONIOM, Crystal-QMMM,
                                                   LR-CPCM, SF, NACMEs, symmetry and pop. for TD-DFT,
                                                   nearIR, NL-DFT gradient (VV10), updates on ESD,
                                                   ML-optimized integration grids, MBIS, APM,
                                                   GOAT, DOCKER, SOLVATOR, interface openCOSMO-RS
   S Lehtola, MJT Oliveira, MAL Marques          : LibXC Library
   Liviu Ungur et al                             : ANISO software


 Your calculation uses the libint2 library for the computation of 2-el integrals
 For citations please refer to: http://libint.valeyev.net

 Your ORCA version has been built with support for libXC version: 6.2.2
 For citations please refer to: https://libxc.gitlab.io

 This ORCA versions uses:
   CBLAS   interface :  Fast vector & matrix operations
   LAPACKE interface :  Fast linear algebra routines
   SCALAPACK package :  Parallel linear algebra routines
   Shared memory     :  Shared parallel matrices
   BLAS/LAPACK       :  OpenBLAS 0.3.27  USE64BITINT DYNAMIC_ARCH NO_AFFINITY Zen SINGLE_THREADED
        Core in use  :  Zen
   Copyright (c) 2011-2014, The OpenBLAS Project


NOTE: MaxCore=8000 MB was set to SCF,MP2,MDCI,CIPSI,MRCI and CIS
      => If you want to overwrite this, your respective input block should be placed after the MaxCore statement
Your calculation utilizes the atom-pairwise dispersion correction
based on EEQ partial charges (D4)


================================================================================

----- Orbital basis set information -----
Your calculation utilizes the basis: def2-SVP
   F. Weigend and R. Ahlrichs, Phys. Chem. Chem. Phys. 7, 3297 (2005).

----- AuxJ basis set information -----
Your calculation utilizes the auxiliary basis: def2/J
   F. Weigend, Phys. Chem. Chem. Phys. 8, 1057 (2006).

================================================================================
                                        WARNINGS
                       Please study these warnings very carefully!
================================================================================

WARNING: Old DensityContainer found on disk!
         Will remove this file - 
         If you want to keep old densities, please start your calculation with a different basename. 


================================================================================
                                       INPUT FILE
================================================================================
NAME = inpS
|  1> ! wb97x-d4
|  2> ! def2-svp
|  3> ! def2/J RIJCOSX
|  4> ! DEFGRID2
|  5> ! scfconv7
|  6> ! smallprint printgap noloewdin
|  7> ! NOSOSCF
|  8> %MaxCore 8000
|  9> %output
| 10>        print[P_BondOrder_M] 1
| 11>        print[P_Mayer] 1
| 12>        print[P_basis] 2
| 13> end
| 14> %pal
| 15>     nprocs 4
| 16> end
| 17> ! CPCM(chloroform)
| 18> *xyz 0 1
| 19> C   -5.1413635800   0.1267026700  -0.6092433500
| 20> C   -6.5746565300  -0.3278903200  -0.7497738700
| 21> C   -7.5139040700   0.6248034900   0.0013161500
| 22> H   -6.6974478600  -1.3499093900  -0.3736413800
| 23> H   -6.8662010700  -0.3196507400  -1.8105127300
| 24> C   -4.9164140900   1.5314789500  -1.0173173800
| 25> C   -5.8772927400   2.5223610600  -0.3984434200
| 26> C   -7.3352733300   2.0548410500  -0.5110530800
| 27> H   -5.7525717200   3.5086031300  -0.8580368300
| 28> H   -5.6238325300   2.6303234500   0.6672032600
| 29> H   -7.6510961700   2.0861099100  -1.5627150700
| 30> H   -7.9914220700   2.7297481100   0.0507392200
| 31> O   -7.2970030900   0.5366061400   1.4196068200
| 32> H   -8.5534919700   0.3092560600  -0.1509633200
| 33> C   -4.1935924800  -0.6860286200  -0.0844040000
| 34> C   -3.9726627900   1.8970964600  -1.8915754500
| 35> H   -3.3032323800   1.1673191400  -2.3392127000
| 36> H   -3.8559243800   2.9374787900  -2.1860248000
| 37> C   -2.8224727100  -0.3239101300   0.1916324700
| 38> H   -4.5130375100  -1.6937680000   0.1786613400
| 39> C   -1.8455767200  -1.1461968400   0.6301442000
| 40> H   -2.5699512000   0.7226571900   0.0366854800
| 41> C   -1.9872512700  -2.6253754600   0.8850695700
| 42> C   -0.9247032100  -3.4400418400   0.1217509400
| 43> H   -2.9853003600  -2.9954083300   0.6349286400
| 44> H   -1.8407056500  -2.7976450200   1.9633572300
| 45> C    0.4989376100  -2.9123212700   0.3460530400
| 46> H   -1.1618904500  -3.4229982400  -0.9495327500
| 47> H   -0.9817647300  -4.4891184800   0.4369000400
| 48> C    0.6097704900  -1.4150043200   0.0266619300
| 49> H    1.1963399400  -3.5017664400  -0.2582161000
| 50> H    0.7800655900  -3.0636934400   1.3992266500
| 51> C   -0.4508486400  -0.6715851900   0.8989315000
| 52> H   -0.2138247700  -0.9695048300   1.9373445000
| 53> C   -0.0777616500   0.7992868400   0.7535101600
| 54> H   -6.3413378900   0.4982888200   1.5679998600
| 55> C    1.4696577200   0.7739518100   0.7342500200
| 56> H   -0.4811011200   1.4124122000   1.5663595400
| 57> H   -0.4693206300   1.2083517500  -0.1846865600
| 58> C    1.9059582100  -0.7102466800   0.5216658800
| 59> H    1.8798224500   1.1706060400   1.6670177400
| 60> H    1.8683137400   1.4034153100  -0.0703235100
| 61> H    2.1361572400  -1.1569001900   1.5017042800
| 62> C    3.1627219400  -0.8166603300  -0.3533612700
| 63> C    0.3667504600  -1.1496277800  -1.4658601200
| 64> H    0.5725693000  -0.1077663800  -1.7315301200
| 65> H   -0.6714157600  -1.3566395900  -1.7439360000
| 66> H    1.0123275700  -1.7824779600  -2.0840946700
| 67> H    2.9357840900  -0.3286999900  -1.3145572400
| 68> C    3.5965612600  -2.2612604600  -0.6629865500
| 69> C    4.3611857400  -0.0979608300   0.2261145300
| 70> C    4.5772792200   0.2325736700   1.4982548700
| 71> H    5.1569081700   0.1063210600  -0.4959477500
| 72> H    3.8138286000   0.0307750600   2.2534127900
| 73> C    5.8348538500   0.8661124000   2.0255065200
| 74> C    6.5179772000  -0.1086679700   2.9986600600
| 75> C    5.5279499200   2.2334892500   2.6841102900
| 76> H    6.5138721400   1.0492389200   1.1773064500
| 77> H    4.7995710600   2.0489209700   3.4907774800
| 78> C    4.8978694700   3.1973993500   1.6753348200
| 79> C    6.7758476500   2.8704816200   3.3023586500
| 80> H    5.9079421100  -0.2414703900   3.9011319200
| 81> H    7.5061726400   0.2467205000   3.3048597800
| 82> H    6.6430619000  -1.0897008200   2.5289229900
| 83> H    3.9760734800   2.7903261200   1.2486017900
| 84> H    5.5937146800   3.3884020800   0.8478752400
| 85> H    4.6642243800   4.1578531700   2.1477178000
| 86> H    7.1741926900   2.2828817500   4.1342660900
| 87> H    6.5446584200   3.8711341400   3.6839994700
| 88> H    7.5675545800   2.9750701900   2.5489443900
| 89> H    2.8811546800  -2.7766550200  -1.3088537100
| 90> H    3.7038118400  -2.8343736600   0.2655901500
| 91> H    4.5668774800  -2.2654603700  -1.1722113200
| 92> *
| 93> %eprnmr
| 94>  Nuclei = all C { shift }
| 95>  origin giao
| 96>  giao_2el giao_2el_same_as_scf
| 97>  giao_1el giao_1el_analytic
| 98> end
| 99> 
|100>                          ****END OF INPUT****
================================================================================

                       ****************************
                       * Single Point Calculation *
                       ****************************

---------------------------------
CARTESIAN COORDINATES (ANGSTROEM)
---------------------------------
  C     -5.141364    0.126703   -0.609243
  C     -6.574657   -0.327890   -0.749774
  C     -7.513904    0.624803    0.001316
  H     -6.697448   -1.349909   -0.373641
  H     -6.866201   -0.319651   -1.810513
  C     -4.916414    1.531479   -1.017317
  C     -5.877293    2.522361   -0.398443
  C     -7.335273    2.054841   -0.511053
  H     -5.752572    3.508603   -0.858037
  H     -5.623833    2.630323    0.667203
  H     -7.651096    2.086110   -1.562715
  H     -7.991422    2.729748    0.050739
  O     -7.297003    0.536606    1.419607
  H     -8.553492    0.309256   -0.150963
  C     -4.193592   -0.686029   -0.084404
  C     -3.972663    1.897096   -1.891575
  H     -3.303232    1.167319   -2.339213
  H     -3.855924    2.937479   -2.186025
  C     -2.822473   -0.323910    0.191632
  H     -4.513038   -1.693768    0.178661
  C     -1.845577   -1.146197    0.630144
  H     -2.569951    0.722657    0.036685
  C     -1.987251   -2.625375    0.885070
  C     -0.924703   -3.440042    0.121751
  H     -2.985300   -2.995408    0.634929
  H     -1.840706   -2.797645    1.963357
  C      0.498938   -2.912321    0.346053
  H     -1.161890   -3.422998   -0.949533
  H     -0.981765   -4.489118    0.436900
  C      0.609770   -1.415004    0.026662
  H      1.196340   -3.501766   -0.258216
  H      0.780066   -3.063693    1.399227
  C     -0.450849   -0.671585    0.898931
  H     -0.213825   -0.969505    1.937344
  C     -0.077762    0.799287    0.753510
  H     -6.341338    0.498289    1.568000
  C      1.469658    0.773952    0.734250
  H     -0.481101    1.412412    1.566360
  H     -0.469321    1.208352   -0.184687
  C      1.905958   -0.710247    0.521666
  H      1.879822    1.170606    1.667018
  H      1.868314    1.403415   -0.070324
  H      2.136157   -1.156900    1.501704
  C      3.162722   -0.816660   -0.353361
  C      0.366750   -1.149628   -1.465860
  H      0.572569   -0.107766   -1.731530
  H     -0.671416   -1.356640   -1.743936
  H      1.012328   -1.782478   -2.084095
  H      2.935784   -0.328700   -1.314557
  C      3.596561   -2.261260   -0.662987
  C      4.361186   -0.097961    0.226115
  C      4.577279    0.232574    1.498255
  H      5.156908    0.106321   -0.495948
  H      3.813829    0.030775    2.253413
  C      5.834854    0.866112    2.025507
  C      6.517977   -0.108668    2.998660
  C      5.527950    2.233489    2.684110
  H      6.513872    1.049239    1.177306
  H      4.799571    2.048921    3.490777
  C      4.897869    3.197399    1.675335
  C      6.775848    2.870482    3.302359
  H      5.907942   -0.241470    3.901132
  H      7.506173    0.246721    3.304860
  H      6.643062   -1.089701    2.528923
  H      3.976073    2.790326    1.248602
  H      5.593715    3.388402    0.847875
  H      4.664224    4.157853    2.147718
  H      7.174193    2.282882    4.134266
  H      6.544658    3.871134    3.683999
  H      7.567555    2.975070    2.548944
  H      2.881155   -2.776655   -1.308854
  H      3.703812   -2.834374    0.265590
  H      4.566877   -2.265460   -1.172211

----------------------------
CARTESIAN COORDINATES (A.U.)
----------------------------
  NO LB      ZA    FRAG     MASS         X           Y           Z
   0 C     6.0000    0    12.011   -9.715769    0.239433   -1.151303
   1 C     6.0000    0    12.011  -12.424300   -0.619623   -1.416867
   2 C     6.0000    0    12.011  -14.199221    1.180707    0.002487
   3 H     1.0000    0     1.008  -12.656342   -2.550959   -0.706080
   4 H     1.0000    0     1.008  -12.975240   -0.604052   -3.421373
   5 C     6.0000    0    12.011   -9.290676    2.894076   -1.922451
   6 C     6.0000    0    12.011  -11.106474    4.766572   -0.752949
   7 C     6.0000    0    12.011  -13.861658    3.883087   -0.965750
   8 H     1.0000    0     1.008  -10.870785    6.630299   -1.621455
   9 H     1.0000    0     1.008  -10.627503    4.970591    1.260831
  10 H     1.0000    0     1.008  -14.458476    3.942176   -2.953104
  11 H     1.0000    0     1.008  -15.101599    5.158476    0.095883
  12 O     8.0000    0    15.999  -13.789337    1.014039    2.682668
  13 H     1.0000    0     1.008  -16.163757    0.584409   -0.285279
  14 C     6.0000    0    12.011   -7.924741   -1.296406   -0.159500
  15 C     6.0000    0    12.011   -7.507245    3.584993   -3.574560
  16 H     1.0000    0     1.008   -6.242205    2.205913   -4.420471
  17 H     1.0000    0     1.008   -7.286641    5.551030   -4.130988
  18 C     6.0000    0    12.011   -5.333700   -0.612101    0.362133
  19 H     1.0000    0     1.008   -8.528405   -3.200758    0.337621
  20 C     6.0000    0    12.011   -3.487635   -2.165998    1.190800
  21 H     1.0000    0     1.008   -4.856504    1.365624    0.069326
  22 C     6.0000    0    12.011   -3.755361   -4.961241    1.672539
  23 C     6.0000    0    12.011   -1.747436   -6.500737    0.230076
  24 H     1.0000    0     1.008   -5.641400   -5.660501    1.199841
  25 H     1.0000    0     1.008   -3.478430   -5.286783    3.710207
  26 C     6.0000    0    12.011    0.942855   -5.503490    0.653945
  27 H     1.0000    0     1.008   -2.195655   -6.468529   -1.794357
  28 H     1.0000    0     1.008   -1.855266   -8.483205    0.825621
  29 C     6.0000    0    12.011    1.152299   -2.673971    0.050384
  30 H     1.0000    0     1.008    2.260755   -6.617380   -0.487958
  31 H     1.0000    0     1.008    1.474110   -5.789542    2.644155
  32 C     6.0000    0    12.011   -0.851980   -1.269112    1.698734
  33 H     1.0000    0     1.008   -0.404070   -1.832099    3.661051
  34 C     6.0000    0    12.011   -0.146948    1.510433    1.423928
  35 H     1.0000    0     1.008  -11.983392    0.941629    2.963090
  36 C     6.0000    0    12.011    2.777251    1.462557    1.387531
  37 H     1.0000    0     1.008   -0.909149    2.669072    2.959991
  38 H     1.0000    0     1.008   -0.886887    2.283454   -0.349007
  39 C     6.0000    0    12.011    3.601739   -1.342172    0.985806
  40 H     1.0000    0     1.008    3.552350    2.212125    3.150207
  41 H     1.0000    0     1.008    3.530601    2.652071   -0.132892
  42 H     1.0000    0     1.008    4.036752   -2.186225    2.837810
  43 C     6.0000    0    12.011    5.976678   -1.543264   -0.667756
  44 C     6.0000    0    12.011    0.693058   -2.172482   -2.770074
  45 H     1.0000    0     1.008    1.081999   -0.203649   -3.272118
  46 H     1.0000    0     1.008   -1.268792   -2.563677   -3.295561
  47 H     1.0000    0     1.008    1.913022   -3.368395   -3.938368
  48 H     1.0000    0     1.008    5.547828   -0.621153   -2.484153
  49 C     6.0000    0    12.011    6.796516   -4.273163   -1.252863
  50 C     6.0000    0    12.011    8.241447   -0.185119    0.427295
  51 C     6.0000    0    12.011    8.649804    0.439501    2.831291
  52 H     1.0000    0     1.008    9.745144    0.200918   -0.937205
  53 H     1.0000    0     1.008    7.207092    0.058156    4.258333
  54 C     6.0000    0    12.011   11.026276    1.636715    3.827653
  55 C     6.0000    0    12.011   12.317192   -0.205353    5.666646
  56 C     6.0000    0    12.011   10.446311    4.220683    5.072233
  57 H     1.0000    0     1.008   12.309434    1.982774    2.224787
  58 H     1.0000    0     1.008    9.069875    3.871900    6.596613
  59 C     6.0000    0    12.011    9.255632    6.042209    3.165924
  60 C     6.0000    0    12.011   12.804496    5.424424    6.240553
  61 H     1.0000    0     1.008   11.164393   -0.456313    7.372071
  62 H     1.0000    0     1.008   14.184611    0.466234    6.245280
  63 H     1.0000    0     1.008   12.553568   -2.059236    4.778972
  64 H     1.0000    0     1.008    7.513690    5.272952    2.359515
  65 H     1.0000    0     1.008   10.570589    6.403152    1.602252
  66 H     1.0000    0     1.008    8.814107    7.857204    4.058598
  67 H     1.0000    0     1.008   13.557259    4.314021    7.812631
  68 H     1.0000    0     1.008   12.367612    7.315383    6.961750
  69 H     1.0000    0     1.008   14.300606    5.622068    4.816807
  70 H     1.0000    0     1.008    5.444593   -5.247118   -2.473375
  71 H     1.0000    0     1.008    6.999190   -5.356190    0.501893
  72 H     1.0000    0     1.008    8.630148   -4.281100   -2.215158

--------------------------------
INTERNAL COORDINATES (ANGSTROEM)
--------------------------------
 C      0   0   0     0.000000000000     0.00000000     0.00000000
 C      1   0   0     1.510209354404     0.00000000     0.00000000
 C      2   1   0     1.534258014531   110.39785605     0.00000000
 H      2   1   3     1.095936284736   110.80020104   237.85250720
 H      2   1   3     1.100105921535   109.81515268   118.68726524
 C      1   2   3     1.480041581802   113.84706755   305.86518814
 C      6   1   2     1.512659946687   114.35544036    50.11124605
 C      3   2   1     1.529522341169   110.18618611    56.82571579
 H      7   6   1     1.095196263682   110.23449395   188.63122436
 H      7   6   1     1.100681971463   108.30545047    71.92335051
 H      8   3   2     1.098505689144   108.28464791    64.52939946
 H      8   3   2     1.096194005175   109.51488855   181.49512704
 O      3   2   1     1.437488515530   110.64263727   292.76611201
 H      3   2   1     1.097042487504   109.48515668   177.25967270
 C      1   2   3     1.354348016962   121.30425274   122.49435288
 C      6   1   2     1.337411624307   123.15880878   232.12926172
 H     16   6   1     1.086780160937   121.35538817   358.95306170
 H     16   6   1     1.087530996644   120.94798721   178.36378311
 C     15   1   2     1.444747506402   125.99867531   185.08136378
 H     15   1   2     1.089397612584   116.32642468     3.06934917
 C     19  15   1     1.350101383626   126.59091336   184.75579081
 H     19  15   1     1.087694275987   115.73953126     5.50671230
 C     21  19  15     1.507656463606   125.76601069     1.74180092
 C     23  21  19     1.541215436406   111.72015930   126.05158207
 H     23  21  19     1.093433489423   112.27872999     2.31754021
 H     23  21  19     1.101751649761   107.84200685   244.68422924
 C     24  23  21     1.534781292705   112.66648612    50.74762772
 H     24  23  21     1.097359109672   109.04301879   288.64443724
 H     24  23  21     1.096875913168   109.11035135   172.68910898
 C     27  24  23     1.535009008831   111.83679138   306.21947190
 H     27  24  23     1.094968863430   108.96826026   182.66618387
 H     27  24  23     1.100509485552   109.23961530    66.16019154
 C     21  19  15     1.497587809812   122.62575769   180.50635860
 H     33  21  19     1.106000897566   106.42337989   125.72002616
 C     33  21  19     1.524403423268   121.10445827     3.07074197
 H     13   3   2     0.967876379412   107.61892667    42.20279476
 C     35  33  21     1.547746595341   103.30202588   195.00677522
 H     35  33  21     1.095139054961   112.28759895    73.25339722
 H     35  33  21     1.095840143831   110.75683483   313.50824021
 C     30  27  24     1.556218123250   115.82989512   166.59041597
 H     37  35  33     1.093446525161   111.00682797   252.18384942
 H     37  35  33     1.096580815668   111.29696241   133.94827896
 H     40  30  27     1.101347455113   105.87124772   322.27665209
 C     40  30  27     1.535073760829   117.98204249    83.18443620
 C     30  27  24     1.535286785164   111.06663542   294.78839999
 H     45  30  27     1.094722394312   111.75679640   187.54996385
 H     45  30  27     1.094517786455   111.37272031    67.60250709
 H     45  30  27     1.095209164541   110.82911702   307.54136721
 H     44  40  30     1.101591473242   107.33803160    62.56800738
 C     44  40  30     1.539790214669   114.22545134   303.68704406
 C     44  40  30     1.512824065778   113.40952159   180.13432202
 C     51  44  40     1.332024959392   127.75067631    22.15674852
 H     51  44  40     1.093745497081   114.34310042   197.99071203
 H     52  51  44     1.092631233452   120.05832609   356.66995177
 C     52  51  44     1.503615501003   125.10863584   175.63050128
 C     55  52  51     1.537492144197   109.05156199   244.61319402
 C     55  52  51     1.548440634323   110.82107213   120.55844219
 H     55  52  51     1.101836884130   108.39165227     2.66441278
 H     57  55  52     1.102412431488   107.11788317    58.16563380
 C     57  55  52     1.530931743491   110.93496913   300.03787428
 C     57  55  52     1.531417336529   112.17983942   176.77361713
 H     56  55  52     1.097376303681   110.50345012   292.71582946
 H     56  55  52     1.093887316305   111.87452323   172.16638217
 H     56  55  52     1.094862799571   110.32184388    51.99377334
 H     60  57  55     1.094311445913   111.68007844    58.04127427
 H     60  57  55     1.097894328103   110.20051833   298.32831974
 H     60  57  55     1.095539706367   110.83266667   178.94009021
 H     61  57  55     1.093628075190   112.35951047   295.35524528
 H     61  57  55     1.095629335743   110.39997134   175.21755369
 H     61  57  55     1.097894202169   110.49922212    56.17029997
 H     50  44  40     1.092969585831   112.13601531    67.66845980
 H     50  44  40     1.096456161781   110.34351086   306.53946603
 H     50  44  40     1.095828943048   110.27453778   187.61473580

---------------------------
INTERNAL COORDINATES (A.U.)
---------------------------
 C      0   0   0     0.000000000000     0.00000000     0.00000000
 C      1   0   0     2.853882084709     0.00000000     0.00000000
 C      2   1   0     2.899327466237   110.39785605     0.00000000
 H      2   1   3     2.071019438378   110.80020104   237.85250720
 H      2   1   3     2.078898910006   109.81515268   118.68726524
 C      1   2   3     2.796873256421   113.84706755   305.86518814
 C      6   1   2     2.858513032990   114.35544036    50.11124605
 C      3   2   1     2.890378340523   110.18618611    56.82571579
 H      7   6   1     2.069621001253   110.23449395   188.63122436
 H      7   6   1     2.079987486609   108.30545047    71.92335051
 H      8   3   2     2.075874909037   108.28464791    64.52939946
 H      8   3   2     2.071506459426   109.51488855   181.49512704
 O      3   2   1     2.716459615009   110.64263727   292.76611201
 H      3   2   1     2.073109858659   109.48515668   177.25967270
 C      1   2   3     2.559346842077   121.30425274   122.49435288
 C      6   1   2     2.527341698262   123.15880878   232.12926172
 H     16   6   1     2.053716871950   121.35538817   358.95306170
 H     16   6   1     2.055135745807   120.94798721   178.36378311
 C     15   1   2     2.730177119765   125.99867531   185.08136378
 H     15   1   2     2.058663138731   116.32642468     3.06934917
 C     19  15   1     2.551321868081   126.59091336   184.75579081
 H     19  15   1     2.055444299049   115.73953126     5.50671230
 C     21  19  15     2.849057820251   125.76601069     1.74180092
 C     23  21  19     2.912475088180   111.72015930   126.05158207
 H     23  21  19     2.066289840667   112.27872999     2.31754021
 H     23  21  19     2.082008885645   107.84200685   244.68422924
 C     24  23  21     2.900316318677   112.66648612    50.74762772
 H     24  23  21     2.073708187843   109.04301879   288.64443724
 H     24  23  21     2.072795078783   109.11035135   172.68910898
 C     27  24  23     2.900746639793   111.83679138   306.21947190
 H     27  24  23     2.069191277055   108.96826026   182.66618387
 H     27  24  23     2.079661535476   109.23961530    66.16019154
 C     21  19  15     2.830030822044   122.62575769   180.50635860
 H     33  21  19     2.090038800271   106.42337989   125.72002616
 C     33  21  19     2.880704987588   121.10445827     3.07074197
 H     13   3   2     1.829021288580   107.61892667    42.20279476
 C     35  33  21     2.924817189903   103.30202588   195.00677522
 H     35  33  21     2.069512892438   112.28759895    73.25339722
 H     35  33  21     2.070837758397   110.75683483   313.50824021
 C     30  27  24     2.940826057588   115.82989512   166.59041597
 H     37  35  33     2.066314474642   111.00682797   252.18384942
 H     37  35  33     2.072237425325   111.29696241   133.94827896
 H     40  30  27     2.081245068454   105.87124772   322.27665209
 C     40  30  27     2.900869003336   117.98204249    83.18443620
 C     30  27  24     2.901271560989   111.06663542   294.78839999
 H     45  30  27     2.068725517921   111.75679640   187.54996385
 H     45  30  27     2.068338865106   111.37272031    67.60250709
 H     45  30  27     2.069645380344   110.82911702   307.54136721
 H     44  40  30     2.081706195890   107.33803160    62.56800738
 C     44  40  30     2.909781809415   114.22545134   303.68704406
 C     44  40  30     2.858823173125   113.40952159   180.13432202
 C     51  44  40     2.517162376799   127.75067631    22.15674852
 H     51  44  40     2.066879449693   114.34310042   197.99071203
 H     52  51  44     2.064773796593   120.05832609   356.66995177
 C     52  51  44     2.841421507615   125.10863584   175.63050128
 C     55  52  51     2.905439085587   109.05156199   244.61319402
 C     55  52  51     2.926128733506   110.82107213   120.55844219
 H     55  52  51     2.082169955259   108.39165227     2.66441278
 H     57  55  52     2.083257582143   107.11788317    58.16563380
 C     57  55  52     2.893041724924   110.93496913   300.03787428
 C     57  55  52     2.893959362778   112.17983942   176.77361713
 H     56  55  52     2.073740679812   110.50345012   292.71582946
 H     56  55  52     2.067147449187   111.87452323   172.16638217
 H     56  55  52     2.068990845408   110.32184388    51.99377334
 H     60  57  55     2.067948937991   111.68007844    58.04127427
 H     60  57  55     2.074719604101   110.20051833   298.32831974
 H     60  57  55     2.070270013871   110.83266667   178.94009021
 H     61  57  55     2.066657554477   112.35951047   295.35524528
 H     61  57  55     2.070439388844   110.39997134   175.21755369
 H     61  57  55     2.074719366119   110.49922212    56.17029997
 H     50  44  40     2.065413189926   112.13601531    67.66845980
 H     50  44  40     2.072001863616   110.34351086   306.53946603
 H     50  44  40     2.070816591984   110.27453778   187.61473580

---------------------
BASIS SET INFORMATION
---------------------
There are 3 groups of distinct atoms

 Group   1 Type C   : 7s4p1d contracted to 3s2p1d pattern {511/31/1}
 Group   2 Type H   : 4s1p contracted to 2s1p pattern {31/1}
 Group   3 Type O   : 7s4p1d contracted to 3s2p1d pattern {511/31/1}

Atom   0C    basis set group =>   1
Atom   1C    basis set group =>   1
Atom   2C    basis set group =>   1
Atom   3H    basis set group =>   2
Atom   4H    basis set group =>   2
Atom   5C    basis set group =>   1
Atom   6C    basis set group =>   1
Atom   7C    basis set group =>   1
Atom   8H    basis set group =>   2
Atom   9H    basis set group =>   2
Atom  10H    basis set group =>   2
Atom  11H    basis set group =>   2
Atom  12O    basis set group =>   3
Atom  13H    basis set group =>   2
Atom  14C    basis set group =>   1
Atom  15C    basis set group =>   1
Atom  16H    basis set group =>   2
Atom  17H    basis set group =>   2
Atom  18C    basis set group =>   1
Atom  19H    basis set group =>   2
Atom  20C    basis set group =>   1
Atom  21H    basis set group =>   2
Atom  22C    basis set group =>   1
Atom  23C    basis set group =>   1
Atom  24H    basis set group =>   2
Atom  25H    basis set group =>   2
Atom  26C    basis set group =>   1
Atom  27H    basis set group =>   2
Atom  28H    basis set group =>   2
Atom  29C    basis set group =>   1
Atom  30H    basis set group =>   2
Atom  31H    basis set group =>   2
Atom  32C    basis set group =>   1
Atom  33H    basis set group =>   2
Atom  34C    basis set group =>   1
Atom  35H    basis set group =>   2
Atom  36C    basis set group =>   1
Atom  37H    basis set group =>   2
Atom  38H    basis set group =>   2
Atom  39C    basis set group =>   1
Atom  40H    basis set group =>   2
Atom  41H    basis set group =>   2
Atom  42H    basis set group =>   2
Atom  43C    basis set group =>   1
Atom  44C    basis set group =>   1
Atom  45H    basis set group =>   2
Atom  46H    basis set group =>   2
Atom  47H    basis set group =>   2
Atom  48H    basis set group =>   2
Atom  49C    basis set group =>   1
Atom  50C    basis set group =>   1
Atom  51C    basis set group =>   1
Atom  52H    basis set group =>   2
Atom  53H    basis set group =>   2
Atom  54C    basis set group =>   1
Atom  55C    basis set group =>   1
Atom  56C    basis set group =>   1
Atom  57H    basis set group =>   2
Atom  58H    basis set group =>   2
Atom  59C    basis set group =>   1
Atom  60C    basis set group =>   1
Atom  61H    basis set group =>   2
Atom  62H    basis set group =>   2
Atom  63H    basis set group =>   2
Atom  64H    basis set group =>   2
Atom  65H    basis set group =>   2
Atom  66H    basis set group =>   2
Atom  67H    basis set group =>   2
Atom  68H    basis set group =>   2
Atom  69H    basis set group =>   2
Atom  70H    basis set group =>   2
Atom  71H    basis set group =>   2
Atom  72H    basis set group =>   2

-------------------------
BASIS SET IN INPUT FORMAT
-------------------------

 # Basis set for element : H 
 NewGTO H 
 S 3 
   1      13.0107010000      0.0334854848
   2       1.9622572000      0.2347218709
   3       0.4445379600      0.8137702853
 S 1 
   1       0.1219496200      1.0000000000
 P 1 
   1       0.8000000000      1.0000000000
  end;

 # Basis set for element : C 
 NewGTO C 
 S 5 
   1    1238.4016938000      0.0055173650
   2     186.2900499200      0.0410888285
   3      42.2511763460      0.1822538213
   4      11.6765579320      0.4682845944
   5       3.5930506482      0.4457581734
 S 1 
   1       0.4024514736      1.0000000000
 S 1 
   1       0.1309018267      1.0000000000
 P 3 
   1       9.4680970621      0.0568883320
   2       2.0103545142      0.3129405934
   3       0.5477100471      0.7606501651
 P 1 
   1       0.1526861379      1.0000000000
 D 1 
   1       0.8000000000      1.0000000000
  end;

 # Basis set for element : O 
 NewGTO O 
 S 5 
   1    2266.1767785000     -0.0053893504
   2     340.8701019100     -0.0402347214
   3      77.3631351670     -0.1800818421
   4      21.4796449400     -0.4682885766
   5       6.6589433124     -0.4469261716
 S 1 
   1       0.8097597567      1.0000000000
 S 1 
   1       0.2553077223      1.0000000000
 P 3 
   1      17.7215043170      0.0626302488
   2       3.8635505440      0.3333113849
   3       1.0480920883      0.7414863830
 P 1 
   1       0.2764154441      1.0000000000
 D 1 
   1       1.2000000000      1.0000000000
  end;

---------------------------------
AUXILIARY/J BASIS SET INFORMATION
---------------------------------
There are 3 groups of distinct atoms

 Group   1 Type C   : 12s5p4d2f1g contracted to 6s4p3d1f1g pattern {711111/2111/211/2/1}
 Group   2 Type H   : 5s2p1d contracted to 3s1p1d pattern {311/2/1}
 Group   3 Type O   : 12s5p4d2f1g contracted to 6s4p3d1f1g pattern {711111/2111/211/2/1}

Atom   0C    basis set group =>   1
Atom   1C    basis set group =>   1
Atom   2C    basis set group =>   1
Atom   3H    basis set group =>   2
Atom   4H    basis set group =>   2
Atom   5C    basis set group =>   1
Atom   6C    basis set group =>   1
Atom   7C    basis set group =>   1
Atom   8H    basis set group =>   2
Atom   9H    basis set group =>   2
Atom  10H    basis set group =>   2
Atom  11H    basis set group =>   2
Atom  12O    basis set group =>   3
Atom  13H    basis set group =>   2
Atom  14C    basis set group =>   1
Atom  15C    basis set group =>   1
Atom  16H    basis set group =>   2
Atom  17H    basis set group =>   2
Atom  18C    basis set group =>   1
Atom  19H    basis set group =>   2
Atom  20C    basis set group =>   1
Atom  21H    basis set group =>   2
Atom  22C    basis set group =>   1
Atom  23C    basis set group =>   1
Atom  24H    basis set group =>   2
Atom  25H    basis set group =>   2
Atom  26C    basis set group =>   1
Atom  27H    basis set group =>   2
Atom  28H    basis set group =>   2
Atom  29C    basis set group =>   1
Atom  30H    basis set group =>   2
Atom  31H    basis set group =>   2
Atom  32C    basis set group =>   1
Atom  33H    basis set group =>   2
Atom  34C    basis set group =>   1
Atom  35H    basis set group =>   2
Atom  36C    basis set group =>   1
Atom  37H    basis set group =>   2
Atom  38H    basis set group =>   2
Atom  39C    basis set group =>   1
Atom  40H    basis set group =>   2
Atom  41H    basis set group =>   2
Atom  42H    basis set group =>   2
Atom  43C    basis set group =>   1
Atom  44C    basis set group =>   1
Atom  45H    basis set group =>   2
Atom  46H    basis set group =>   2
Atom  47H    basis set group =>   2
Atom  48H    basis set group =>   2
Atom  49C    basis set group =>   1
Atom  50C    basis set group =>   1
Atom  51C    basis set group =>   1
Atom  52H    basis set group =>   2
Atom  53H    basis set group =>   2
Atom  54C    basis set group =>   1
Atom  55C    basis set group =>   1
Atom  56C    basis set group =>   1
Atom  57H    basis set group =>   2
Atom  58H    basis set group =>   2
Atom  59C    basis set group =>   1
Atom  60C    basis set group =>   1
Atom  61H    basis set group =>   2
Atom  62H    basis set group =>   2
Atom  63H    basis set group =>   2
Atom  64H    basis set group =>   2
Atom  65H    basis set group =>   2
Atom  66H    basis set group =>   2
Atom  67H    basis set group =>   2
Atom  68H    basis set group =>   2
Atom  69H    basis set group =>   2
Atom  70H    basis set group =>   2
Atom  71H    basis set group =>   2
Atom  72H    basis set group =>   2

-------------------------------------
AUXILIARY/J BASIS SET IN INPUT FORMAT
-------------------------------------

 # Auxiliary/J basis set for element : H 
 NewAuxJGTO H 
 S 3 
   1      15.6752927000      0.1007184237
   2       3.6063578000      0.3404257499
   3       1.2080016000      0.6491996172
 S 1 
   1       0.4726794000      1.0000000000
 S 1 
   1       0.2018100000      1.0000000000
 P 2 
   1       2.0281365000      0.5596620919
   2       0.5358730000      0.5596620919
 D 1 
   1       2.2165124000      1.0000000000
  end;

 # Auxiliary/J basis set for element : C 
 NewAuxJGTO C 
 S 7 
   1    1861.0916331000      0.0134602335
   2     642.9939764000      0.0299160374
   3     235.1105725000      0.1008649584
   4      90.7028894000      0.2370970548
   5      36.7794552000      0.3924037254
   6      15.6046273000      0.3195862154
   7       6.8907294000      0.0530104441
 S 1 
   1       3.1478850000     -1.0000000000
 S 1 
   1       1.4777287000      1.0000000000
 S 1 
   1       0.7076466000      1.0000000000
 S 1 
   1       0.3430122000      1.0000000000
 S 1 
   1       0.1669453000      1.0000000000
 P 2 
   1      13.5472892000     -0.6769313712
   2       5.4669419000     -0.3779500978
 P 1 
   1       2.1751721000      1.0000000000
 P 1 
   1       0.8582194000      1.0000000000
 P 1 
   1       0.3376720000      1.0000000000
 D 2 
   1       5.9287253000     -0.3533329857
   2       1.9809209000     -0.7456525731
 D 1 
   1       0.8055417000     -1.0000000000
 D 1 
   1       0.3531244000     -1.0000000000
 F 2 
   1       1.6755626000      0.6311076882
   2       0.5997536000      0.4968166032
 G 1 
   1       1.0024600000     -1.0000000000
  end;

 # Auxiliary/J basis set for element : O 
 NewAuxJGTO O 
 S 7 
   1    2876.8216605000      0.0168151159
   2    1004.7443032000      0.0340137548
   3     369.7579954000      0.1194951309
   4     142.9442404000      0.2664627624
   5      57.8366425000      0.4202764046
   6      24.3864983000      0.2765077335
   7      10.6622662000      0.0057008815
 S 1 
   1       4.8070437000     -1.0000000000
 S 1 
   1       2.2210770000      1.0000000000
 S 1 
   1       1.0447795000      1.0000000000
 S 1 
   1       0.4968425000      1.0000000000
 S 1 
   1       0.2371384000      1.0000000000
 P 2 
   1      64.2613382000     -0.2731534179
   2      16.3006076000     -0.8168011598
 P 1 
   1       4.3550542000      1.0000000000
 P 1 
   1       1.2019554000      1.0000000000
 P 1 
   1       0.3354196000      1.0000000000
 D 2 
   1       9.2146611000     -0.4661230638
   2       2.8435251000     -0.6600908911
 D 1 
   1       0.9955759000     -1.0000000000
 D 1 
   1       0.3649441000     -1.0000000000
 F 2 
   1       2.6420115000      0.5931563945
   2       0.7345613000      0.5931563945
 G 1 
   1       1.3931000000     -1.0000000000
  end;


Checking for AutoStart:
The File: inpS.gbw exists
Trying to determine its content:
     ... Fine, the file contains calculation information
     ... Fine, the calculation information was read
     ... Fine, the file contains a basis set
     ... Fine, the basis set was read
     ... Fine, the file contains a geometry
     ... Fine, the geometry was read
     ... Fine, the file contains a set of orbitals
     ... Fine, the orbitals can be read
     => possible old guess file was deleted
     => GBW file was renamed to GES file
     => GES file is set as startup file
     => Guess is set to MORead
     ... now leaving AutoStart



           ************************************************************
           *        Program running with 4 parallel MPI-processes     *
           *              working on a common directory               *
           ************************************************************
------------------------------------------------------------------------------
                             ORCA STARTUP CALCULATIONS
                           -- RI-GTO INTEGRALS CHOSEN --
------------------------------------------------------------------------------
------------------------------------------------------------------------------
                   ___                                                        
                  /   \      - P O W E R E D   B Y -                         
                 /     \                                                     
                 |  |  |   _    _      __       _____    __    __             
                 |  |  |  | |  | |    /  \     |  _  \  |  |  /  |          
                  \  \/   | |  | |   /    \    | | | |  |  | /  /          
                 / \  \   | |__| |  /  /\  \   | |_| |  |  |/  /          
                |  |  |   |  __  | /  /__\  \  |    /   |      \           
                |  |  |   | |  | | |   __   |  |    \   |  |\   \          
                \     /   | |  | | |  |  |  |  | |\  \  |  | \   \       
                 \___/    |_|  |_| |__|  |__|  |_| \__\ |__|  \__/        
                                                                              
                      - O R C A' S   B I G   F R I E N D -                    
                                      &                                       
                       - I N T E G R A L  F E E D E R -                       
                                                                              
 v1 FN, 2020, v2 2021, v3 2022-2024                                           
------------------------------------------------------------------------------


----------------------
SHARK INTEGRAL PACKAGE
----------------------

Number of atoms                             ...     73
Number of basis functions                   ...    626
Number of shells                            ...    306
Maximum angular momentum                    ...      2
Integral batch strategy                     ... SHARK/LIBINT Hybrid
RI-J (if used) integral strategy            ... SPLIT-RIJ (Revised 2003 algorithm where possible)
Printlevel                                  ...      1
Contraction scheme used                     ... SEGMENTED contraction
Prescreening option                         ... SCHWARTZ
   Thresh                                   ... 3.000e-11
   Tcut                                     ... 1.000e-12
   Tpresel                                  ... 1.000e-12 
Coulomb Range Separation                    ... NOT USED
Exchange Range Separation                   ... Long Range
   Mu parameter                             ... 3.000e-01
   Scaling (regular/separated)              ... 1.670e-01 8.330e-01
Multipole approximations                    ... NOT USED
Finite Nucleus Model                        ... NOT USED
CABS basis                                  ... NOT available
Auxiliary Coulomb fitting basis             ... AVAILABLE
   # of basis functions in Aux-J            ...   1905
   # of shells in Aux-J                     ...    655
   Maximum angular momentum in Aux-J        ...      4
Auxiliary J/K fitting basis                 ... NOT available
Auxiliary Correlation fitting basis         ... NOT available
Auxiliary 'external' fitting basis          ... NOT available

Checking pre-screening integrals            ... done (  0.0 sec) Dimension = 306
Check shell pair data                       ... done (  0.0 sec)
Shell pair information
Shell pair cut-off parameter TPreSel        ...   1.0e-12
Total number of shell pairs                 ...     46971
Shell pairs after pre-screening             ...     27874
Total number of primitive shell pairs       ...    162105
Primitive shell pairs kept                  ...     61389
          la=0 lb=0:   9771 shell pairs
          la=1 lb=0:  10676 shell pairs
          la=1 lb=1:   2961 shell pairs
          la=2 lb=0:   2787 shell pairs
          la=2 lb=1:   1482 shell pairs
          la=2 lb=2:    197 shell pairs

Calculating one electron integrals          ... done (  0.1 sec)
Calculating RI/J V-Matrix + Cholesky decomp.... done (  0.2 sec)
Calculating Nuclear repulsion               ... done (  0.0 sec) ENN=   2802.064555472283 Eh

Diagonalization of the overlap matrix:
Smallest eigenvalue                        ... 4.317e-04
Time for diagonalization                   ...    0.053 sec
Threshold for overlap eigenvalues          ... 1.000e-07
Number of eigenvalues below threshold      ... 0
Time for construction of square roots      ...    0.024 sec
Total time needed                          ...    0.081 sec

-------------------
DFT GRID GENERATION
-------------------

General Integration Accuracy     IntAcc      ... 4.388
Radial Grid Type                 RadialGrid  ... OptM3 with GC (2021)
Angular Grid (max. ang.)         AngularGrid ... 4 (Lebedev-302)
Angular grid pruning method      GridPruning ... 4 (adaptive)
Weight generation scheme         WeightScheme... mBecke (2022)
Basis function cutoff            BFCut       ... 1.0000e-11
Integration weight cutoff        WCut        ... 1.0000e-14
Partially contracted basis set               ... off
Rotationally invariant grid construction     ... off
Angular grids for H and He will be reduced by one unit

Total number of grid points                  ...   309804
Total number of batches                      ...     4877
Average number of points per batch           ...       63
Average number of grid points per atom       ...     4244

--------------------
COSX GRID GENERATION
--------------------

GRIDX 1
-------
General Integration Accuracy     IntAcc      ... 3.816
Radial Grid Type                 RadialGrid  ... OptM3 with GC (2021)
Angular Grid (max. ang.)         AngularGrid ... 1 (Lebedev-50)
Angular grid pruning method      GridPruning ... 4 (adaptive)
Weight generation scheme         WeightScheme... mBecke (2022)
Basis function cutoff            BFCut       ... 1.0000e-11
Integration weight cutoff        WCut        ... 1.0000e-14
Partially contracted basis set               ... on
Rotationally invariant grid construction     ... off
Angular grids for H and He will be reduced by one unit

Total number of grid points                  ...    39390
Total number of batches                      ...      351
Average number of points per batch           ...      112
Average number of grid points per atom       ...      540
UseSFitting                                  ... on

GRIDX 2
-------
General Integration Accuracy     IntAcc      ... 4.020
Radial Grid Type                 RadialGrid  ... OptM3 with GC (2021)
Angular Grid (max. ang.)         AngularGrid ... 2 (Lebedev-110)
Angular grid pruning method      GridPruning ... 4 (adaptive)
Weight generation scheme         WeightScheme... mBecke (2022)
Basis function cutoff            BFCut       ... 1.0000e-11
Integration weight cutoff        WCut        ... 1.0000e-14
Partially contracted basis set               ... on
Rotationally invariant grid construction     ... off
Angular grids for H and He will be reduced by one unit

Total number of grid points                  ...    81385
Total number of batches                      ...      672
Average number of points per batch           ...      121
Average number of grid points per atom       ...     1115
UseSFitting                                  ... on

GRIDX 3
-------
General Integration Accuracy     IntAcc      ... 4.338
Radial Grid Type                 RadialGrid  ... OptM3 with GC (2021)
Angular Grid (max. ang.)         AngularGrid ... 3 (Lebedev-194)
Angular grid pruning method      GridPruning ... 4 (adaptive)
Weight generation scheme         WeightScheme... mBecke (2022)
Basis function cutoff            BFCut       ... 1.0000e-11
Integration weight cutoff        WCut        ... 1.0000e-14
Partially contracted basis set               ... on
Rotationally invariant grid construction     ... off
Angular grids for H and He will be reduced by one unit

Total number of grid points                  ...   176166
Total number of batches                      ...     1421
Average number of points per batch           ...      123
Average number of grid points per atom       ...     2413
UseSFitting                                  ... on
Initializing property integral containers    ... done (  0.0 sec)

SHARK setup successfully completed in   4.3 seconds

Maximum memory used throughout the entire STARTUP-calculation: 96.1 MB


           ************************************************************
           *        Program running with 4 parallel MPI-processes     *
           *              working on a common directory               *
           ************************************************************
-------------------------------------------------------------------------------
                                 ORCA GUESS
                   Start orbitals & Density for SCF / CASSCF
-------------------------------------------------------------------------------

------------
SCF SETTINGS
------------
Hamiltonian:
 Density Functional     Method          .... DFT(GTOs)
 Exchange Functional    Exchange        .... WB97X-V
 Correlation Functional Correlation     .... WB97X-V
 Gradients option       PostSCFGGA      .... off
 Hybrid DFT is turned on
   Fraction HF Exchange ScalHFX         ....  0.167000
   Scaling of DF-GGA-X  ScalDFX         ....  0.000000
   Scaling of DF-GGA-C  ScalDFC         ....  1.000000
   Scaling of DF-LDA-C  ScalLDAC        ....  1.000000
   Perturbative correction              ....  0.000000
 Long-range corrected/Screened/Range-Separated Hybrid DFT is turned on
   Amount of maximum screened exact exchange              ....  0.833000
   Range separation parameter mu (erf(mu*r12)/r12)        ....  0.300000
 RI-approximation to the Coulomb term is turned on
   Number of AuxJ basis functions       .... 1905
   RIJ-COSX (HFX calculated with COS-X)).... on


General Settings:
 Integral files         IntName         .... inpS
 Hartree-Fock type      HFTyp           .... RHF
 Total Charge           Charge          ....    0
 Multiplicity           Mult            ....    1
 Number of Electrons    NEL             ....  220
 Basis Dimension        Dim             ....  626
 Nuclear Repulsion      ENuc            ....   2802.0645554723 Eh

Convergence Acceleration:
 AO-DIIS                CNVDIIS         .... on
   Start iteration      DIISMaxIt       ....    12
   Startup error        DIISStart       ....  0.200000
   # of expansion vecs  DIISMaxEq       ....     5
   Bias factor          DIISBfac        ....   1.050
   Max. coefficient     DIISMaxC        ....  10.000
 MO-DIIS                CNVKDIIS        .... off
 Trust-Rad. Augm. Hess. CNVTRAH         .... auto
   Auto Start mean grad. ratio tolernc. ....  1.125000
   Auto Start start iteration           ....     1
   Auto Start num. interpolation iter.  ....    10
   Max. Number of Micro iterations      ....    24
   Max. Number of Macro iterations      .... Maxiter - #DIIS iter
   Number of Davidson start vectors     ....     2
   Converg. threshold    (grad. norm)   ....   1.000e-04
   Grad. Scal. Fac. for Micro threshold ....   0.100
   Minimum threshold for Micro iter.    ....   1.000e-02
   NR start threshold (gradient norm)   ....   1.000e-04
   Initial trust radius                 ....   0.400
   Minimum AH scaling param. (alpha)    ....   1.000
   Maximum AH scaling param. (alpha)    .... 1000.000
   Quad. conv. algorithm                .... NR
   White noise on init. David. guess    .... on
   Maximum white noise                  ....   0.010
   Pseudo random numbers                .... off
   Inactive MOs                         .... canonical
   Orbital update algorithm             .... Taylor
   Preconditioner                       .... Diag
   Full preconditioner red. dimension   ....   250
 SOSCF                  CNVSOSCF        .... off
 Level Shifting         CNVShift        .... on
   Level shift para.    LevelShift      ....    0.2500
   Turn off err/grad.   ShiftErr        ....    0.0010
 Zerner damping         CNVZerner       .... off
 Static damping         CNVDamp         .... on
   Fraction old density DampFac         ....    0.7000
   Max. Damping (<1)    DampMax         ....    0.9800
   Min. Damping (>=0)   DampMin         ....    0.0000
   Turn off err/grad.   DampErr         ....    0.1000

SCF Procedure:
 Maximum # iterations   MaxIter         ....   125
 SCF integral mode      SCFMode         .... Direct
   Integral package                     .... SHARK and LIBINT hybrid scheme
 Reset frequency        DirectResetFreq ....    20
 Integral Threshold     Thresh          ....  3.000e-11 Eh
 Primitive CutOff       TCut            ....  1.000e-12 Eh

Convergence Tolerance:
 Convergence Check Mode ConvCheckMode   .... Total+1el-Energy
 Convergence forced     ConvForced      .... 0
 Energy Change          TolE            ....  1.000e-07 Eh
 1-El. energy change                    ....  1.000e-04 Eh
 DIIS Error             TolErr          ....  1.000e-07

---------------------
INITIAL GUESS: MOREAD
---------------------
Guess MOs are being read from file: inpS.ges
Input Geometry matches current geometry (good)
Input basis set matches current basis set (good)
Occupation numbers will be reassigned to an Aufbau configuration
MOs were renormalized
MOs were reorthogonalized (Cholesky)
                      ------------------
                      INITIAL GUESS DONE (   0.2 sec)
                      ------------------
             **** ENERGY FILE WAS UPDATED (inpS.en.tmp) ****
Finished Guess after   0.3 sec
Maximum memory used throughout the entire GUESS-calculation: 52.8 MB


           ************************************************************
           *        Program running with 4 parallel MPI-processes     *
           *              working on a common directory               *
           ************************************************************

-------------------------------------------------------------------------------------------
                                      ORCA LEAN-SCF
                              memory conserving SCF solver
-------------------------------------------------------------------------------------------

--------------------
CPCM SOLVATION MODEL
--------------------
CPCM parameters:
  Epsilon                                         ...       4.8030
  Refrac                                          ...       1.4459
  Rsolv                                           ...       1.3000
  Surface type                                    ... GAUSSIAN VDW
  Discretization scheme                           ... Constant charge density
    Threshold for H atoms                         ...       5.0000 (charges/Ang^2)
    Threshold for non-H atoms                     ...       5.0000 (charges/Ang^2)
  Epsilon function type                           ...         CPCM
Solvent:                                          ... CHLOROFORM
Radii:
  Scheme                                          ... Element-dependent radii
  Radius for C  used is    3.8550 Bohr (=   2.0400 Ang.)
  Radius for H  used is    2.4944 Bohr (=   1.3200 Ang.)
  Radius for O  used is    3.4469 Bohr (=   1.8240 Ang.)
Calculating surface                               ...        done! (  0.0s)
Cavity surface points                             ...         5379
Cavity Volume                                     ...    3599.0006
Cavity Surface-area                               ...    1786.3901
Calculating surface distance matrix               ...        done! (  0.2s)
Performing Cholesky decomposition & store         ...        done! (  1.4s)
Overall time for CPCM initialization              ...                 1.7s

----------------------------------------D-I-I-S--------------------------------------------
Iteration    Energy (Eh)           Delta-E    RMSDP     MaxDP     DIISErr   Damp  Time(sec)
-------------------------------------------------------------------------------------------
               ***  Starting incremental Fock matrix formation  ***
    1    -1168.3615672583196101     0.00e+00  3.12e-08  2.01e-06  4.49e-06  0.700  23.5

  HOMO= 109 E= -7.965 eV LUMO=  8.073 eV gap=  16.038 eV
    2    -1168.3615672433093096     1.50e-08  2.67e-08  1.28e-06  2.41e-06  0.700   5.0
                 **** Energy Check signals convergence ****

  HOMO= 109 E= -7.965 eV LUMO=  8.073 eV gap=  16.038 eV

               *****************************************************
               *                     SUCCESS                       *
               *           SCF CONVERGED AFTER   2 CYCLES          *
               *****************************************************

Recomputing exchange energy using gridx3       ... done (   41.109 sec)
Old exchange energy                            :    -56.782328383 Eh
New exchange energy                            :    -56.782280681 Eh
Exchange energy change after final integration :      0.000047703 Eh
Total energy after final integration           :  -1168.361519541 Eh
             **** ENERGY FILE WAS UPDATED (inpS.en.tmp) ****

----------------
TOTAL SCF ENERGY
----------------

Total Energy       :      -1168.36151954074194 Eh          -31792.73326 eV

Components:
Nuclear Repulsion  :       2802.06455547228279 Eh           76248.05293 eV
Electronic Energy  :      -3970.41698966647300 Eh         -108040.53896 eV
One Electron Energy:      -7149.14738960346676 Eh         -194538.19060 eV
Two Electron Energy:       3178.73039993699376 Eh           86497.65164 eV
CPCM Dielectric    :         -0.00913304911899 Eh              -0.24852 eV

Virial components:
Potential Energy   :      -2321.66238472329997 Eh          -63175.64528 eV
Kinetic Energy     :       1153.30086518255803 Eh           31382.91202 eV
Virial Ratio       :          2.01305873845486

DFT components:
N(Alpha)           :      110.000235241855 electrons
N(Beta)            :      110.000235241855 electrons
N(Total)           :      220.000470483710 electrons
E(X)               :     -111.767881386438 Eh       
E(C)               :       -8.952182236228 Eh       
E(XC)              :     -120.720063622666 Eh       

CPCM Solvation Model Properties:
Surface-charge          :         -0.04192064849170
Corrected charge        :          0.00000000000000
Outlying charge corr.   :          0.00006189439994 Eh               0.00168 eV
Free-energy (cav+disp)  :  This term is not implemented in the current solvation scheme

---------------
SCF CONVERGENCE
---------------

  Last Energy change         ...   -1.5010e-08  Tolerance :   1.0000e-07
  Last MAX-Density change    ...    1.2833e-06  Tolerance :   1.0000e-05
  Last RMS-Density change    ...    2.6656e-08  Tolerance :   1.0000e-06
  Last DIIS Error            ...    2.4089e-06  Tolerance :   1.0000e-07


----------------
ORBITAL ENERGIES
----------------

  NO   OCC          E(Eh)            E(eV) 
   0   2.0000     -19.212349      -522.7946 
   1   2.0000     -10.330352      -281.1032 
   2   2.0000     -10.294255      -280.1209 
   3   2.0000     -10.292149      -280.0636 
   4   2.0000     -10.287518      -279.9376 
   5   2.0000     -10.286712      -279.9157 
   6   2.0000     -10.285494      -279.8825 
   7   2.0000     -10.284125      -279.8453 
   8   2.0000     -10.283304      -279.8229 
   9   2.0000     -10.283041      -279.8158 
  10   2.0000     -10.281145      -279.7642 
  11   2.0000     -10.280691      -279.7518 
  12   2.0000     -10.279371      -279.7159 
  13   2.0000     -10.278078      -279.6807 
  14   2.0000     -10.277471      -279.6642 
  15   2.0000     -10.277314      -279.6599 
  16   2.0000     -10.276980      -279.6508 
  17   2.0000     -10.276973      -279.6507 
  18   2.0000     -10.274053      -279.5712 
  19   2.0000     -10.272956      -279.5414 
  20   2.0000     -10.272244      -279.5220 
  21   2.0000     -10.271982      -279.5148 
  22   2.0000     -10.270913      -279.4858 
  23   2.0000     -10.270532      -279.4754 
  24   2.0000     -10.270345      -279.4703 
  25   2.0000     -10.270074      -279.4629 
  26   2.0000     -10.268262      -279.4136 
  27   2.0000     -10.267118      -279.3825 
  28   2.0000     -10.265991      -279.3518 
  29   2.0000      -1.130808       -30.7709 
  30   2.0000      -0.998725       -27.1767 
  31   2.0000      -0.977349       -26.5950 
  32   2.0000      -0.957742       -26.0615 
  33   2.0000      -0.942714       -25.6526 
  34   2.0000      -0.917653       -24.9706 
  35   2.0000      -0.910989       -24.7893 
  36   2.0000      -0.890062       -24.2198 
  37   2.0000      -0.888046       -24.1649 
  38   2.0000      -0.873411       -23.7667 
  39   2.0000      -0.853706       -23.2305 
  40   2.0000      -0.834317       -22.7029 
  41   2.0000      -0.831304       -22.6209 
  42   2.0000      -0.809438       -22.0259 
  43   2.0000      -0.798189       -21.7198 
  44   2.0000      -0.797484       -21.7006 
  45   2.0000      -0.791562       -21.5395 
  46   2.0000      -0.760434       -20.6925 
  47   2.0000      -0.752374       -20.4731 
  48   2.0000      -0.723426       -19.6854 
  49   2.0000      -0.713070       -19.4036 
  50   2.0000      -0.704472       -19.1697 
  51   2.0000      -0.699279       -19.0284 
  52   2.0000      -0.688997       -18.7486 
  53   2.0000      -0.670156       -18.2359 
  54   2.0000      -0.667247       -18.1567 
  55   2.0000      -0.634468       -17.2648 
  56   2.0000      -0.630282       -17.1508 
  57   2.0000      -0.619797       -16.8655 
  58   2.0000      -0.607468       -16.5300 
  59   2.0000      -0.602447       -16.3934 
  60   2.0000      -0.589801       -16.0493 
  61   2.0000      -0.580760       -15.8033 
  62   2.0000      -0.571907       -15.5624 
  63   2.0000      -0.570242       -15.5171 
  64   2.0000      -0.563560       -15.3352 
  65   2.0000      -0.556266       -15.1368 
  66   2.0000      -0.555538       -15.1170 
  67   2.0000      -0.550297       -14.9743 
  68   2.0000      -0.548828       -14.9344 
  69   2.0000      -0.539396       -14.6777 
  70   2.0000      -0.535435       -14.5699 
  71   2.0000      -0.532807       -14.4984 
  72   2.0000      -0.525711       -14.3053 
  73   2.0000      -0.523683       -14.2501 
  74   2.0000      -0.519747       -14.1430 
  75   2.0000      -0.511717       -13.9245 
  76   2.0000      -0.508438       -13.8353 
  77   2.0000      -0.502616       -13.6769 
  78   2.0000      -0.498589       -13.5673 
  79   2.0000      -0.490181       -13.3385 
  80   2.0000      -0.488977       -13.3057 
  81   2.0000      -0.487016       -13.2524 
  82   2.0000      -0.483447       -13.1553 
  83   2.0000      -0.480012       -13.0618 
  84   2.0000      -0.477337       -12.9890 
  85   2.0000      -0.467517       -12.7218 
  86   2.0000      -0.462371       -12.5817 
  87   2.0000      -0.460591       -12.5333 
  88   2.0000      -0.457124       -12.4390 
  89   2.0000      -0.451502       -12.2860 
  90   2.0000      -0.448055       -12.1922 
  91   2.0000      -0.445076       -12.1111 
  92   2.0000      -0.440092       -11.9755 
  93   2.0000      -0.434827       -11.8322 
  94   2.0000      -0.428194       -11.6518 
  95   2.0000      -0.425167       -11.5694 
  96   2.0000      -0.422527       -11.4975 
  97   2.0000      -0.419199       -11.4070 
  98   2.0000      -0.416455       -11.3323 
  99   2.0000      -0.414898       -11.2899 
 100   2.0000      -0.411048       -11.1852 
 101   2.0000      -0.407415       -11.0863 
 102   2.0000      -0.406091       -11.0503 
 103   2.0000      -0.401207       -10.9174 
 104   2.0000      -0.392163       -10.6713 
 105   2.0000      -0.380854       -10.3636 
 106   2.0000      -0.372665       -10.1407 
 107   2.0000      -0.355355        -9.6697 
 108   2.0000      -0.336882        -9.1670 
 109   2.0000      -0.292711        -7.9651 
 110   0.0000       0.046689         1.2705 
 111   0.0000       0.099418         2.7053 
 112   0.0000       0.108988         2.9657 
 113   0.0000       0.133653         3.6369 
 114   0.0000       0.142387         3.8746 
 115   0.0000       0.143978         3.9179 
 116   0.0000       0.150912         4.1065 
 117   0.0000       0.154857         4.2139 
 118   0.0000       0.161452         4.3933 
 119   0.0000       0.164905         4.4873 
 120   0.0000       0.168385         4.5820 
*Only the first 10 virtual orbitals were printed.

                    ********************************
                    * MULLIKEN POPULATION ANALYSIS *
                    ********************************

-----------------------
MULLIKEN ATOMIC CHARGES
-----------------------
   0 C :   -0.174110
   1 C :    0.142073
   2 C :    0.068162
   3 H :    0.017364
   4 H :    0.030633
   5 C :   -0.171740
   6 C :    0.096768
   7 C :    0.024185
   8 H :    0.013451
   9 H :    0.027299
  10 H :    0.019724
  11 H :    0.022598
  12 O :   -0.359381
  13 H :    0.018130
  14 C :   -0.007827
  15 C :   -0.045770
  16 H :    0.035256
  17 H :    0.029420
  18 C :   -0.063726
  19 H :   -0.002555
  20 C :   -0.113591
  21 H :    0.003790
  22 C :    0.115328
  23 C :   -0.002398
  24 H :    0.014164
  25 H :    0.017399
  26 C :    0.107281
  27 H :    0.013186
  28 H :    0.015489
  29 C :   -0.420479
  30 H :    0.008833
  31 H :   -0.002131
  32 C :   -0.041027
  33 H :    0.010193
  34 C :    0.119536
  35 H :    0.179104
  36 C :    0.051110
  37 H :    0.007008
  38 H :    0.014322
  39 C :   -0.034458
  40 H :    0.017150
  41 H :    0.008559
  42 H :   -0.000660
  43 C :   -0.014667
  44 C :    0.093135
  45 H :    0.020732
  46 H :    0.024784
  47 H :    0.016766
  48 H :    0.008288
  49 C :    0.053066
  50 C :   -0.077196
  51 C :   -0.051174
  52 H :    0.005152
  53 H :    0.015303
  54 C :   -0.068218
  55 C :    0.036444
  56 C :   -0.168586
  57 H :    0.001586
  58 H :    0.008495
  59 C :    0.035067
  60 C :    0.030849
  61 H :    0.015801
  62 H :    0.027207
  63 H :    0.018397
  64 H :    0.021908
  65 H :    0.009615
  66 H :    0.017761
  67 H :    0.023403
  68 H :    0.017666
  69 H :    0.013346
  70 H :    0.030522
  71 H :    0.013438
  72 H :    0.013448
Sum of atomic charges:   -0.0000000

--------------------------------
MULLIKEN REDUCED ORBITAL CHARGES
--------------------------------
  0 C s       :     3.102423  s :     3.102423
      pz      :     1.014630  p :     3.028645
      px      :     1.003069
      py      :     1.010946
      dz2     :     0.005752  d :     0.043042
      dxz     :     0.006649
      dyz     :     0.005781
      dx2y2   :     0.013448
      dxy     :     0.011412

  1 C s       :     2.939800  s :     2.939800
      pz      :     0.990223  p :     2.883734
      px      :     0.929465
      py      :     0.964046
      dz2     :     0.007995  d :     0.034393
      dxz     :     0.006196
      dyz     :     0.004088
      dx2y2   :     0.009593
      dxy     :     0.006520

  2 C s       :     3.085332  s :     3.085332
      pz      :     0.734114  p :     2.775870
      px      :     1.045965
      py      :     0.995790
      dz2     :     0.023279  d :     0.070636
      dxz     :     0.011221
      dyz     :     0.017691
      dx2y2   :     0.010714
      dxy     :     0.007731

  3 H s       :     0.959983  s :     0.959983
      pz      :     0.005549  p :     0.022653
      px      :     0.003642
      py      :     0.013462

  4 H s       :     0.946055  s :     0.946055
      pz      :     0.014451  p :     0.023313
      px      :     0.004547
      py      :     0.004315

  5 C s       :     3.109257  s :     3.109257
      pz      :     0.973212  p :     3.017676
      px      :     0.989109
      py      :     1.055355
      dz2     :     0.009584  d :     0.044807
      dxz     :     0.005513
      dyz     :     0.008906
      dx2y2   :     0.010847
      dxy     :     0.009958

  6 C s       :     2.954440  s :     2.954440
      pz      :     1.002819  p :     2.913342
      px      :     0.944046
      py      :     0.966477
      dz2     :     0.008577  d :     0.035449
      dxz     :     0.005798
      dyz     :     0.004846
      dx2y2   :     0.008545
      dxy     :     0.007684

  7 C s       :     3.002292  s :     3.002292
      pz      :     0.984126  p :     2.938733
      px      :     0.982415
      py      :     0.972192
      dz2     :     0.007696  d :     0.034790
      dxz     :     0.005900
      dyz     :     0.004732
      dx2y2   :     0.008159
      dxy     :     0.008303

  8 H s       :     0.963714  s :     0.963714
      pz      :     0.006318  p :     0.022835
      px      :     0.003711
      py      :     0.012806

  9 H s       :     0.949307  s :     0.949307
      pz      :     0.014401  p :     0.023394
      px      :     0.004493
      py      :     0.004500

 10 H s       :     0.957446  s :     0.957446
      pz      :     0.014199  p :     0.022830
      px      :     0.004630
      py      :     0.004000

 11 H s       :     0.954772  s :     0.954772
      pz      :     0.007348  p :     0.022631
      px      :     0.007594
      py      :     0.007689

 12 O s       :     3.713467  s :     3.713467
      pz      :     1.392011  p :     4.633783
      px      :     1.345661
      py      :     1.896111
      dz2     :     0.005448  d :     0.012131
      dxz     :     0.001409
      dyz     :     0.001539
      dx2y2   :     0.003182
      dxy     :     0.000553

 13 H s       :     0.961520  s :     0.961520
      pz      :     0.001818  p :     0.020350
      px      :     0.013943
      py      :     0.004589

 14 C s       :     3.194891  s :     3.194891
      pz      :     0.992778  p :     2.776583
      px      :     0.874471
      py      :     0.909334
      dz2     :     0.004476  d :     0.036353
      dxz     :     0.007701
      dyz     :     0.003263
      dx2y2   :     0.010793
      dxy     :     0.010121

 15 C s       :     3.123746  s :     3.123746
      pz      :     1.009866  p :     2.895758
      px      :     0.980644
      py      :     0.905248
      dz2     :     0.005441  d :     0.026266
      dxz     :     0.004093
      dyz     :     0.004626
      dx2y2   :     0.006241
      dxy     :     0.005865

 16 H s       :     0.940207  s :     0.940207
      pz      :     0.006241  p :     0.024538
      px      :     0.008748
      py      :     0.009549

 17 H s       :     0.945966  s :     0.945966
      pz      :     0.005236  p :     0.024614
      px      :     0.004330
      py      :     0.015047

 18 C s       :     3.200812  s :     3.200812
      pz      :     1.032069  p :     2.827728
      px      :     0.885265
      py      :     0.910394
      dz2     :     0.003959  d :     0.035186
      dxz     :     0.006822
      dyz     :     0.003090
      dx2y2   :     0.011834
      dxy     :     0.009482

 19 H s       :     0.978246  s :     0.978246
      pz      :     0.005019  p :     0.024309
      px      :     0.004662
      py      :     0.014628

 20 C s       :     3.099133  s :     3.099133
      pz      :     0.959513  p :     2.970346
      px      :     0.981969
      py      :     1.028863
      dz2     :     0.005196  d :     0.044113
      dxz     :     0.007072
      dyz     :     0.006643
      dx2y2   :     0.013619
      dxy     :     0.011584

 21 H s       :     0.971653  s :     0.971653
      pz      :     0.004825  p :     0.024557
      px      :     0.004218
      py      :     0.015513

 22 C s       :     2.924868  s :     2.924868
      pz      :     1.004517  p :     2.924310
      px      :     0.976397
      py      :     0.943396
      dz2     :     0.010172  d :     0.035495
      dxz     :     0.003737
      dyz     :     0.005066
      dx2y2   :     0.009457
      dxy     :     0.007063

 23 C s       :     3.001521  s :     3.001521
      pz      :     1.009732  p :     2.964441
      px      :     0.962838
      py      :     0.991871
      dz2     :     0.010034  d :     0.036435
      dxz     :     0.006664
      dyz     :     0.003325
      dx2y2   :     0.009887
      dxy     :     0.006525

 24 H s       :     0.962638  s :     0.962638
      pz      :     0.005021  p :     0.023199
      px      :     0.013122
      py      :     0.005055

 25 H s       :     0.959323  s :     0.959323
      pz      :     0.014406  p :     0.023278
      px      :     0.004622
      py      :     0.004250

 26 C s       :     2.969375  s :     2.969375
      pz      :     0.971352  p :     2.888025
      px      :     0.976044
      py      :     0.940628
      dz2     :     0.008134  d :     0.035320
      dxz     :     0.005867
      dyz     :     0.004971
      dx2y2   :     0.008122
      dxy     :     0.008226

 27 H s       :     0.963958  s :     0.963958
      pz      :     0.014262  p :     0.022856
      px      :     0.004088
      py      :     0.004506

 28 H s       :     0.961867  s :     0.961867
      pz      :     0.005286  p :     0.022644
      px      :     0.003731
      py      :     0.013627

 29 C s       :     3.259548  s :     3.259548
      pz      :     1.056532  p :     3.109959
      px      :     1.000529
      py      :     1.052897
      dz2     :     0.012262  d :     0.050972
      dxz     :     0.009999
      dyz     :     0.009156
      dx2y2   :     0.010172
      dxy     :     0.009383

 30 H s       :     0.968128  s :     0.968128
      pz      :     0.007787  p :     0.023039
      px      :     0.008434
      py      :     0.006818

 31 H s       :     0.979602  s :     0.979602
      pz      :     0.013889  p :     0.022529
      px      :     0.004656
      py      :     0.003984

 32 C s       :     3.034089  s :     3.034089
      pz      :     0.994939  p :     2.963113
      px      :     0.941958
      py      :     1.026217
      dz2     :     0.009857  d :     0.043825
      dxz     :     0.006619
      dyz     :     0.006709
      dx2y2   :     0.011051
      dxy     :     0.009588

 33 H s       :     0.968534  s :     0.968534
      pz      :     0.013427  p :     0.021273
      px      :     0.003993
      py      :     0.003854

 34 C s       :     2.896603  s :     2.896603
      pz      :     0.990270  p :     2.948852
      px      :     0.983280
      py      :     0.975303
      dz2     :     0.005803  d :     0.035008
      dxz     :     0.006078
      dyz     :     0.007686
      dx2y2   :     0.009207
      dxy     :     0.006235

 35 H s       :     0.752122  s :     0.752122
[...]
 Total          137.833          176.552          189.156  iso=     167.847

 Orientation: 
  X           0.2143013   -0.5440983    0.8111917
  Y           0.0157644   -0.8284511   -0.5598395
  Z           0.9766404    0.1327622   -0.1689607

 --------------
 Nucleus  39C :
 --------------

Diamagnetic contribution to the shielding tensor (ppm) : 
           266.513          3.276        -5.727
             0.626        272.235         4.852
            -5.077          3.559       253.329

Paramagnetic contribution to the shielding tensor (ppm): 
          -102.704         -3.574         9.822
            10.180       -124.033         3.699
            15.511          0.006      -124.646

Total shielding tensor (ppm): 
           163.809         -0.298         4.094
            10.806        148.202         8.551
            10.435          3.565       128.683


 Diagonalized sT*s matrix:
 
 sDSO           254.434          271.746          265.898  iso=     264.026
 sPSO          -128.339         -124.546          -98.499  iso=    -117.128
        ---------------  ---------------  ---------------
 Total          126.095          147.200          167.399  iso=     146.898

 Orientation: 
  X          -0.1480179   -0.3423433   -0.9278425
  Y          -0.2341818    0.9236284   -0.3034296
  Z           0.9608588    0.1723708   -0.2168841

 --------------
 Nucleus  43C :
 --------------

Diamagnetic contribution to the shielding tensor (ppm) : 
           260.164         -0.814        -4.305
            -6.276        258.339         5.863
             0.771          7.174       236.559

Paramagnetic contribution to the shielding tensor (ppm): 
           -90.331         -7.206        -1.926
             2.945        -97.123        -3.443
            -2.723         -8.807       -87.534

Total shielding tensor (ppm): 
           169.833         -8.021        -6.231
            -3.332        161.216         2.420
            -1.952         -1.633       149.025


 Diagonalized sT*s matrix:
 
 sDSO           237.450          254.272          263.339  iso=     251.687
 sPSO           -89.237          -95.671          -90.079  iso=     -91.663
        ---------------  ---------------  ---------------
 Total          148.213          158.601          173.260  iso=     160.025

 Orientation: 
  X           0.2061601   -0.4133380    0.8869328
  Y           0.0486607   -0.9009518   -0.4311821
  Z           0.9773076    0.1320513   -0.1656270

 --------------
 Nucleus  44C :
 --------------

Diamagnetic contribution to the shielding tensor (ppm) : 
           250.266          0.116         0.858
            -1.220        257.934        -0.393
             0.953          4.331       269.024

Paramagnetic contribution to the shielding tensor (ppm): 
           -71.176         -3.939        -1.396
            -1.827        -79.200        -0.975
            -0.709         -5.903       -75.120

Total shielding tensor (ppm): 
           179.089         -3.823        -0.538
            -3.047        178.734        -1.369
             0.244         -1.572       193.904


 Diagonalized sT*s matrix:
 
 sDSO           254.120          254.551          268.552  iso=     259.075
 sPSO           -78.722          -72.270          -74.505  iso=     -75.165
        ---------------  ---------------  ---------------
 Total          175.398          182.282          194.047  iso=     183.909

 Orientation: 
  X           0.6820518    0.7311747    0.0137428
  Y           0.7285999   -0.6777955   -0.0986684
  Z           0.0628291   -0.0773100    0.9950255

 --------------
 Nucleus  49C :
 --------------

Diamagnetic contribution to the shielding tensor (ppm) : 
           244.269         -6.953        -2.475
           -20.394        259.497         0.617
            -2.641          5.313       239.664

Paramagnetic contribution to the shielding tensor (ppm): 
           -74.827          1.275         0.672
            18.839        -72.902         7.672
             3.756          0.281       -69.573

Total shielding tensor (ppm): 
           169.442         -5.678        -1.803
            -1.555        186.595         8.289
             1.115          5.594       170.092


 Diagonalized sT*s matrix:
 
 sDSO           238.833          241.444          263.154  iso=     247.810
 sPSO           -71.741          -72.142          -73.418  iso=     -72.434
        ---------------  ---------------  ---------------
 Total          167.091          169.301          189.736  iso=     175.376

 Orientation: 
  X           0.4536494    0.8758851   -0.1644003
  Y           0.3728689   -0.0189971    0.9276896
  Z          -0.8094263    0.4821456    0.3352084

 --------------
 Nucleus  50C :
 --------------

Diamagnetic contribution to the shielding tensor (ppm) : 
           267.542          9.097         2.559
            13.356        233.972         4.431
             3.088         10.752       265.022

Paramagnetic contribution to the shielding tensor (ppm): 
          -267.671        -66.783        44.624
           -72.557       -107.083         1.001
            38.828          1.400      -202.924

Total shielding tensor (ppm): 
            -0.128        -57.686        47.183
           -59.201        126.889         5.431
            41.916         12.153        62.098


 Diagonalized sT*s matrix:
 
 sDSO           266.493          269.988          230.055  iso=     255.512
 sPSO          -308.511         -189.592          -79.574  iso=    -192.559
        ---------------  ---------------  ---------------
 Total          -42.017           80.396          150.481  iso=      62.953

 Orientation: 
  X          -0.8750341    0.2951851    0.3836418
  Y          -0.3175921    0.2480190   -0.9152168
  Z           0.3653089    0.9226875    0.1232766

 --------------
 Nucleus  51C :
 --------------

Diamagnetic contribution to the shielding tensor (ppm) : 
           269.482         11.888         2.091
             5.249        257.572         1.067
             5.277         -1.510       275.812

Paramagnetic contribution to the shielding tensor (ppm): 
          -268.359        -76.461        46.752
           -77.947       -132.110        -8.252
            32.624         -1.602      -216.453

Total shielding tensor (ppm): 
             1.123        -64.572        48.843
           -72.699        125.462        -7.185
            37.901         -3.112        59.359


 Diagonalized sT*s matrix:
 
 sDSO           272.817          274.686          255.362  iso=     267.622
 sPSO          -312.437         -210.213          -94.272  iso=    -205.641
        ---------------  ---------------  ---------------
 Total          -39.620           64.473          161.091  iso=      61.981

 Orientation: 
  X           0.8911788    0.0548222    0.4503276
  Y           0.4153720    0.3004957   -0.8585851
  Z          -0.1823910    0.9522063    0.2450238

 --------------
 Nucleus  54C :
 --------------

Diamagnetic contribution to the shielding tensor (ppm) : 
           251.153         -0.324         5.117
            -3.509        244.959         1.990
             6.342          1.693       253.208

Paramagnetic contribution to the shielding tensor (ppm): 
           -97.821          7.545        -7.517
            11.187        -87.508         4.264
            -8.075          8.046      -107.831

Total shielding tensor (ppm): 
           153.332          7.221        -2.400
             7.678        157.450         6.255
            -1.733          9.739       145.378


 Diagonalized sT*s matrix:
 
 sDSO           253.594          247.715          248.011  iso=     249.773
 sPSO          -114.325          -95.497          -83.338  iso=     -97.720
        ---------------  ---------------  ---------------
 Total          139.269          152.219          164.673  iso=     152.053

 Orientation: 
  X           0.3792269   -0.7856221   -0.4888608
  Y          -0.4939857    0.2748427   -0.8248877
  Z           0.7824098    0.5543098   -0.2838583

 --------------
 Nucleus  55C :
 --------------

Diamagnetic contribution to the shielding tensor (ppm) : 
           248.673         -3.133         5.763
           -18.634        228.197        -8.629
             6.751         -4.565       248.672

Paramagnetic contribution to the shielding tensor (ppm): 
           -76.732         -1.948         1.784
             9.490        -48.460         1.094
             4.353         -2.371       -69.349

Total shielding tensor (ppm): 
           171.940         -5.080         7.547
            -9.144        179.737        -7.535
            11.104         -6.935       179.323


 Diagonalized sT*s matrix:
 
 sDSO           240.469          228.441          256.631  iso=     241.847
 sPSO           -75.209          -55.854          -63.479  iso=     -64.847
        ---------------  ---------------  ---------------
 Total          165.260          172.587          193.153  iso=     177.000

 Orientation: 
  X           0.8566331    0.1661485    0.4884408
  Y           0.1889154    0.7799607   -0.5966341
  Z          -0.4800944    0.6033705    0.6367522

 --------------
 Nucleus  56C :
 --------------

Diamagnetic contribution to the shielding tensor (ppm) : 
           246.329          1.592         6.249
             9.172        246.635         9.026
             0.397          1.466       243.993

Paramagnetic contribution to the shielding tensor (ppm): 
           -85.325         -2.805        -9.360
            -9.219        -73.054        -4.887
            -4.388          4.017       -83.523

Total shielding tensor (ppm): 
           161.004         -1.214        -3.110
            -0.048        173.581         4.139
            -3.991          5.483       160.470


 Diagonalized sT*s matrix:
 
 sDSO           245.108          243.766          248.084  iso=     245.652
 sPSO           -88.562          -80.625          -72.715  iso=     -80.634
        ---------------  ---------------  ---------------
 Total          156.546          163.141          175.368  iso=     165.018

 Orientation: 
  X           0.5919546   -0.7967014    0.1218875
  Y          -0.1977511   -0.2901778   -0.9363180
  Z           0.7813349    0.5301544   -0.3293207

 --------------
 Nucleus  59C :
 --------------

Diamagnetic contribution to the shielding tensor (ppm) : 
           242.434         -3.468         1.999
            18.265        260.981         2.429
            -4.741        -11.408       249.321

Paramagnetic contribution to the shielding tensor (ppm): 
           -72.642         -0.772         5.285
           -27.774        -81.739       -11.457
            17.245          3.121       -73.820

Total shielding tensor (ppm): 
           169.792         -4.241         7.284
            -9.509        179.242        -9.027
            12.504         -8.287       175.502


 Diagonalized sT*s matrix:
 
 sDSO           246.732          255.216          250.788  iso=     250.912
 sPSO           -84.388          -85.321          -58.492  iso=     -76.067
        ---------------  ---------------  ---------------
 Total          162.344          169.895          192.296  iso=     174.845

 Orientation: 
  X          -0.8019244    0.3649310    0.4730144
  Y          -0.0300258    0.7661349   -0.6419780
  Z           0.5966705    0.5290204    0.6034249

 --------------
 Nucleus  60C :
 --------------

Diamagnetic contribution to the shielding tensor (ppm) : 
           244.039         11.119         6.869
            16.628        221.812        11.985
            12.241          6.232       234.251

Paramagnetic contribution to the shielding tensor (ppm): 
           -58.310         -4.485         4.877
            -6.894        -48.671        -4.441
            -4.752         -2.509       -62.865

Total shielding tensor (ppm): 
           185.729          6.633        11.746
             9.734        173.141         7.544
             7.489          3.723       171.387


 Diagonalized sT*s matrix:
 
 sDSO           225.260          217.373          257.468  iso=     233.367
 sPSO           -59.276          -48.097          -62.472  iso=     -56.615
        ---------------  ---------------  ---------------
 Total          165.984          169.276          194.996  iso=     176.752

 Orientation: 
  X           0.2780705    0.5244213    0.8047727
  Y           0.3870611   -0.8279598    0.4057909
  Z          -0.8791248   -0.1986577    0.4332143



--------------------------------
CHEMICAL SHIELDING SUMMARY (ppm)
--------------------------------


  Nucleus  Element    Isotropic     Anisotropy
  -------  -------  ------------   ------------
      0       C           61.278        151.981 
      1       C          154.523         12.011 
      2       C          132.308         50.829 
      5       C           50.723        177.706 
      6       C          167.937         31.914 
      7       C          164.874         17.295 
     14       C           71.932        133.340 
     15       C           83.834        119.581 
     18       C           79.894        133.545 
     20       C           52.088        175.670 
     22       C          169.356          6.989 
     23       C          174.324         12.834 
     26       C          158.747         24.361 
     29       C          154.467         16.756 
     32       C          143.085         27.312 
     34       C          174.067         23.673 
     36       C          167.847         31.963 
     39       C          146.898         30.752 
     43       C          160.025         19.853 
     44       C          183.909         15.208 
     49       C          175.376         21.539 
     50       C           62.953        131.292 
     51       C           61.981        148.664 
     54       C          152.053         18.930 
     55       C          177.000         24.229 
     56       C          165.018         15.525 
     59       C          174.845         26.176 
     60       C          176.752         27.366 


NMR shielding tensor and spin rotation calculation done in   1.0 sec 

Maximum memory used throughout the entire PROP-calculation: 52.2 MB

--------------------------------
SUGGESTED CITATIONS FOR THIS RUN
--------------------------------

Below you find a list of papers that are relevant to this ORCA run
We neither can nor want to force you to cite these papers, but we appreciate if you do
You receive ORCA, which is the product of decades of hard work by many enthusiastic individuals, for free
The only thing we kindly ask in return is that you cite our papers,
We deeply appreciate it, if you show your appreciation for ORCA by not just citing the generic ORCA reference.

Please note that relegating all ORCA citations to the supporting information does *not* help us.
SI sections are not indexed - citations you put there will not count into any citation statistics
But we need these citations in order to attract the funding resources that allow us to do what we are doing

Therefore, if you are a happy ORCA user, please consider citing a few of the papers listed below in the main body of your paper

In addition to the list printed below, the program has created the file inpS.bibtex that contains the list in bibtex format
You can import this file easily into all common literature databanks and citation aid programs


List of essential papers. We consider these as the minimum necessary citations

  1. Neese,F.
     Software update: the ORCA program system, version 5.0
     WIRES Comput. Molec. Sci., 2022 12(1)e1606
     doi.org/10.1002/wcms.1606

List of papers to cite with high priority. The work reported in these papers was absolutely
necessary for this run to complete.
Our perspective: the developers of density functionals and basis sets usually get cited in chemistry papers
Good! But without the algorithms to do something with them, the functionals or basis sets would not do anything.
Hence, in our opinion, the algorithm design and method developments papers are equally worthy of getting cited

  1. Neese,F.
     An improvement of the resolution of the identity approximation for the formation of the Coulomb matrix
     J. Comp. Chem., 2003 24(14)1740-1747
     doi.org/10.1002/jcc.10318
  2. Neese,F.; Wennmohs,F.; Hansen,A.; Becker,U.
     Efficient, approximate and parallel Hartree-Fock and hybrid DFT calculations. A 'chain-of-spheres' algorithm for the Hartree-Fock exchange
     Chem. Phys., 2009 356(1-3)98-109
     doi.org/10.1016/j.chemphys.2008.10.036
  3. Stoychev,G.L.; Auer,A.A.; Izsak,R.; Neese,F.
     Self-Consistent Field Calculation of Nuclear Magnetic Resonance Chemical Shielding Constants Using Gauge-Including Atomic Orbitals and Approximate Two-Electron Integrals
     J. Chem. Theory Comput., 2018 14(2)619-637
     doi.org/10.1021/acs.jctc.7b01006
  4. Garcia-Rates,M.; Neese,F.
     Effect of the Solute Cavity on the Solvation Energy and its Derivatives within the Framework of the Gaussian Charge Scheme
     J. Comput. Chem., 2020 41 922-939
     doi.org/10.1002/jcc.26139
  5. Helmich-Paris,B.; de Souza,B.; Neese,F.; Izsák,R.
     An improved chain of spheres for exchange algorithm
     J. Chem. Phys., 2021 155 104109
     doi.org/doi: 10.1063/5.0058766.
  6. Neese,F.
     The SHARK Integral Generation and Digestion System
     J. Comp. Chem., 2022  1-16
     doi.org/10.1002/jcc.26942
  7. Caldeweyher,E.; Bannwarth,C.; Grimme,S.
     Extension of the D3 dispersion coefficient model
     J. Chem. Phys., 2017 147 034112-XXXX
     doi.org/10.1063/1.4993215
  8. Caldeweyher,E.; Ehlert,S.; Hansen,A.; Neugebauer,H.; Spicher,S.; Bannwarth,C.; Grimme,S.
     A generally applicable atomic-charge dependent London dispersion correction
     J. Chem. Phys., 2019 150 154122-XXXX
     doi.org/10.1063/1.5090222
  9. Caldeweyher,E.; Mewes,J.; Ehlert,S.; Grimme,S.
     Extension and evaluation of the D4 London-dispersion model for periodic systems
     Phys. Chem. Chem. Phys., 2020 22(16)8499-8512
     doi.org/10.1039/D0CP00502A

List of suggested additional citations. These are papers that are important in the 'surrounding' of 
of this run, or papers that preceded the highly important papers. If you like your results we are grateful for a citation.

  1. Izsak,R.; Neese,F.
     An overlap fitted chain of spheres exchange method
     J. Chem. Phys., 2011 135 144105
     doi.org/10.1063/1.3646921
  2. Izsak,R.; Hansen,A.; Neese,F.
     The resolution of identity and chain of spheres approximations for the LPNO-CCSD singles Fock term
     Molec. Phys., 2012 110 2413-2417
     doi.org/10.1080/00268976.2012.687466
  3. Neese,F.
     The ORCA program system
     WIRES Comput. Molec. Sci., 2012 2(1)73-78
     doi.org/10.1002/wcms.81
  4. Izsak,R.; Neese,F.; Klopper,W.
     Robust fitting techniques in the chain of spheres approximation to the Fock exchange: The role of the complementary space
     J. Chem. Phys., 2013 139 
     doi.org/10.1063/1.4819264
  5. Neese,F.
     Software update: the ORCA program system, version 4.0
     WIRES Comput. Molec. Sci., 2018 8(1)1-6
     doi.org/10.1002/wcms.1327
  6. Neese,F.; Wennmohs,F.; Becker,U.; Riplinger,C.
     The ORCA quantum chemistry program package
     J. Chem. Phys., 2020 152 Art. No. L224108
     doi.org/10.1063/5.0004608

Timings for individual modules:

Sum of individual times          ...      180.092 sec (=   3.002 min)
Startup calculation              ...        4.467 sec (=   0.074 min)   2.5 %
SCF iterations                   ...       72.794 sec (=   1.213 min)  40.4 %
Property integrals               ...       61.294 sec (=   1.022 min)  34.0 %
SCF Response                     ...       40.228 sec (=   0.670 min)  22.3 %
Property calculations            ...        1.309 sec (=   0.022 min)   0.7 %
                             ****ORCA TERMINATED NORMALLY****
TOTAL RUN TIME: 0 days 0 hours 3 minutes 0 seconds 384 msec
