
                                 *****************
                                 * O   R   C   A *
                                 *****************

                                            #,                                       
                                            ###                                      
                                            ####                                     
                                            #####                                    
                                            ######                                   
                                           ########,                                 
                                     ,,################,,,,,                         
                               ,,#################################,,                 
                          ,,##########################################,,             
                       ,#########################################, ''#####,          
                    ,#############################################,,   '####,        
                  ,##################################################,,,,####,       
                ,###########''''           ''''###############################       
              ,#####''   ,,,,##########,,,,          '''####'''          '####       
            ,##' ,,,,###########################,,,                        '##       
           ' ,,###''''                  '''############,,,                           
         ,,##''                                '''############,,,,        ,,,,,,###''
      ,#''                                            '''#######################'''  
     '                                                          ''''####''''         
             ,#######,   #######,   ,#######,      ##                                
            ,#'     '#,  ##    ##  ,#'     '#,    #''#        ,####,   ,####,        
            ##       ##  ##   ,#'  ##            #'  '#       #'       #'  '#        
            ##       ##  #######   ##           ,######,      #####,   #    #        
            '#,     ,#'  ##    ##  '#,     ,#' ,#      #,     #,   #   #,  ,#        
             '#######'   ##     ##  '#######'  #'      '#     '####' # '####'        



                #########################################################
                #                        -***-                          #
                #          Department of theory and spectroscopy        #
                #                                                       #
                #                      Frank Neese                      #
                #                                                       #
                #     Directorship, Architecture, Infrastructure        #
                #                    SHARK, DRIVERS                     #
                #        Core code/Algorithms in most modules           #
                #                                                       #
                #        Max Planck Institute fuer Kohlenforschung      #
                #                Kaiser Wilhelm Platz 1                 #
                #                 D-45470 Muelheim/Ruhr                 #
                #                      Germany                          #
                #                                                       #
                #                  All rights reserved                  #
                #                        -***-                          #
                #########################################################


                         Program Version 6.0.0  -   RELEASE  -


 With contributions from (in alphabetic order):
   Daniel Aravena         : Magnetic Suceptibility
   Michael Atanasov       : Ab Initio Ligand Field Theory (pilot matlab implementation)
   Alexander A. Auer      : GIAO ZORA, VPT2 properties, NMR spectrum
   Ute Becker             : All parallelization in ORCA, NUMFREQ, NUMCALC
   Giovanni Bistoni       : ED, misc. LED, open-shell LED, HFLD
   Martin Brehm           : Molecular dynamics
   Dmytro Bykov           : pre 5.0 version of the SCF Hessian
   Marcos Casanova-Páez   : Triplet and SCS-CIS(D). UHF-(DLPNO)-IP/EA/STEOM-CCSD. UHF-CVS-IP/STEOM-CCSD
   Vijay G. Chilkuri      : MRCI spin determinant printing, contributions to CSF-ICE
   Pauline Colinet        : FMM embedding
   Dipayan Datta          : RHF DLPNO-CCSD density
   Achintya Kumar Dutta   : EOM-CC, STEOM-CC
   Nicolas Foglia         : Exact transition moments, OPA infrastructure, MCD improvements
   Dmitry Ganyushin       : Spin-Orbit,Spin-Spin,Magnetic field MRCI
   Miquel Garcia          : C-PCM and meta-GGA Hessian, CCSD/C-PCM, Gaussian charge scheme
   Tiago L. C. Gouveia    : GS-ROHF, GS-ROCIS
   Yang Guo               : DLPNO-NEVPT2, F12-NEVPT2, CIM, IAO-localization
   Andreas Hansen         : Spin unrestricted coupled pair/coupled cluster methods
   Ingolf Harden          : AUTO-CI MPn and infrastructure 
   Benjamin Helmich-Paris : MC-RPA, TRAH-(SCF,CASSCF), AVAS, COSX integrals, SCF dyn. polar.
   Lee Huntington         : MR-EOM, pCC
   Robert Izsak           : Overlap fitted RIJCOSX, COSX-SCS-MP3, EOM
   Riya Kayal             : Wick's Theorem for AUTO-CI, AUTO-CI UHF-CCSDT
   Emily Kempfer          : AUTO-CI, RHF CISDT and CCSDT
   Christian Kollmar      : KDIIS, OOCD, Brueckner-CCSD(T), CCSD density, CASPT2, CASPT2-K, improved NEVPT2
   Axel Koslowski         : Symmetry handling
   Simone Kossmann        : Meta GGA functionals, TD-DFT gradient, OOMP2, (MP2 Hessian; deprecated post 5.0)
   Lucas Lang             : DCDCAS
   Marvin Lechner         : AUTO-CI (C++ implementation), FIC-MRCC
   Spencer Leger          : CASSCF response
   Dagmar Lenk            : GEPOL surface, SMD, ORCA-2-JSON
   Dimitrios Liakos       : Extrapolation schemes; Compound Job, initial MDCI parallelization
   Dimitrios Manganas     : Further ROCIS development; embedding schemes. LFT, Crystal Embedding
   Dimitrios Pantazis     : SARC Basis sets
   Anastasios Papadopoulos: AUTO-CI, single reference methods and gradients
   Taras Petrenko         : pre 6.0 DFT Hessian and TD-DFT gradient, (ASA, deprecated), ECA, 1-Electron XAS/XES, NRVS
   Peter Pinski           : DLPNO-MP2, DLPNO-MP2 Gradient
   Christoph Reimann      : Effective Core Potentials
   Marius Retegan         : Local ZFS, SOC
   Christoph Riplinger    : Optimizer, TS searches, QM/MM, DLPNO-CCSD(T), (RO)-DLPNO pert. Triples
   Michael Roemelt        : Original ROCIS implementation
   Masaaki Saitow         : Open-shell DLPNO-CCSD energy and density
   Barbara Sandhoefer     : DKH picture change effects
   Kantharuban Sivalingam : CASSCF convergence/infrastructure, NEVPT2 and variants, FIC-MRCI
   Bernardo de Souza      : ESD, SOC TD-DFT
   Georgi Stoychev        : AutoAux, RI-MP2 NMR, DLPNO-MP2 response, X2C
   Van Anh Tran           : RI-MP2 g-tensors
   Willem Van den Heuvel  : Paramagnetic NMR
   Zikuan Wang            : NOTCH, Electric field optimization 
   Frank Wennmohs         : Technical directorship and infrastructure
   Hang Xu                : AUTO-CI-Response properties 


 We gratefully acknowledge several colleagues who have allowed us to
 interface, adapt or use parts of their codes:
   Stefan Grimme, W. Hujo, H. Kruse, P. Pracht,  : VdW corrections, initial TS optimization,
                  C. Bannwarth, S. Ehlert,         DFT functionals, gCP, sTDA/sTD-DF
                  L. Wittmann, M. Mueller
   Ed Valeev, F. Pavosevic, A. Kumar             : LibInt (2-el integral package), F12 methods
   Garnet Chan, S. Sharma, J. Yang, R. Olivares  : DMRG
   Ulf Ekstrom                                   : XCFun DFT Library
   Mihaly Kallay                                 : mrcc  (arbitrary order and MRCC methods)
   Frank Weinhold                                : gennbo (NPA and NBO analysis)
   Simon Mueller                                 : openCOSMO-RS
   Christopher J. Cramer and Donald G. Truhlar   : smd solvation model
   Lars Goerigk                                  : TD-DFT with DH, B97 family of functionals
   V. Asgeirsson, H. Jonsson                     : NEB implementation
   FAccTs GmbH                                   : IRC, NEB, NEB-TS, DLPNO-Multilevel, CI-OPT
                                                   MM, QMMM, 2- and 3-layer-ONIOM, Crystal-QMMM,
                                                   LR-CPCM, SF, NACMEs, symmetry and pop. for TD-DFT,
                                                   nearIR, NL-DFT gradient (VV10), updates on ESD,
                                                   ML-optimized integration grids, MBIS, APM,
                                                   GOAT, DOCKER, SOLVATOR, interface openCOSMO-RS
   S Lehtola, MJT Oliveira, MAL Marques          : LibXC Library
   Liviu Ungur et al                             : ANISO software


 Your calculation uses the libint2 library for the computation of 2-el integrals
 For citations please refer to: http://libint.valeyev.net

 Your ORCA version has been built with support for libXC version: 6.2.2
 For citations please refer to: https://libxc.gitlab.io

 This ORCA versions uses:
   CBLAS   interface :  Fast vector & matrix operations
   LAPACKE interface :  Fast linear algebra routines
   SCALAPACK package :  Parallel linear algebra routines
   Shared memory     :  Shared parallel matrices
   BLAS/LAPACK       :  OpenBLAS 0.3.27  USE64BITINT DYNAMIC_ARCH NO_AFFINITY Zen SINGLE_THREADED
        Core in use  :  Zen
   Copyright (c) 2011-2014, The OpenBLAS Project


NOTE: MaxCore=8000 MB was set to SCF,MP2,MDCI,CIPSI,MRCI and CIS
      => If you want to overwrite this, your respective input block should be placed after the MaxCore statement
Your calculation utilizes the atom-pairwise dispersion correction
based on EEQ partial charges (D4)


================================================================================

----- Orbital basis set information -----
Your calculation utilizes the basis: pcJ-0
   F. Jensen, Theor. Chem. Acc. 126, 371 (2010).

----- AuxJ basis set information -----
Your calculation utilizes the auxiliary basis: def2/J
   F. Weigend, Phys. Chem. Chem. Phys. 8, 1057 (2006).

================================================================================
                                        WARNINGS
                       Please study these warnings very carefully!
================================================================================

WARNING: Old DensityContainer found on disk!
         Will remove this file - 
         If you want to keep old densities, please start your calculation with a different basename. 


================================================================================
                                       INPUT FILE
================================================================================
NAME = inpJ
|  1> ! pbe0
|  2> ! D4
|  3> ! pcJ-0
|  4> ! def2/J RIJCOSX
|  5> ! DEFGRID2
|  6> ! scfconv7
|  7> ! smallprint printgap noloewdin
|  8> ! NOSOSCF
|  9> %MaxCore 8000
| 10> %output
| 11>        print[P_BondOrder_M] 1
| 12>        print[P_Mayer] 1
| 13>        print[P_basis] 2
| 14> end
| 15> %pal
| 16>     nprocs 4
| 17> end
| 18> ! CPCM(chloroform)
| 19> *xyz 0 1
| 20> C   -5.1413635800   0.1267026700  -0.6092433500
| 21> C   -6.5746565300  -0.3278903200  -0.7497738700
| 22> C   -7.5139040700   0.6248034900   0.0013161500
| 23> H   -6.6974478600  -1.3499093900  -0.3736413800
| 24> H   -6.8662010700  -0.3196507400  -1.8105127300
| 25> C   -4.9164140900   1.5314789500  -1.0173173800
| 26> C   -5.8772927400   2.5223610600  -0.3984434200
| 27> C   -7.3352733300   2.0548410500  -0.5110530800
| 28> H   -5.7525717200   3.5086031300  -0.8580368300
| 29> H   -5.6238325300   2.6303234500   0.6672032600
| 30> H   -7.6510961700   2.0861099100  -1.5627150700
| 31> H   -7.9914220700   2.7297481100   0.0507392200
| 32> O   -7.2970030900   0.5366061400   1.4196068200
| 33> H   -8.5534919700   0.3092560600  -0.1509633200
| 34> C   -4.1935924800  -0.6860286200  -0.0844040000
| 35> C   -3.9726627900   1.8970964600  -1.8915754500
| 36> H   -3.3032323800   1.1673191400  -2.3392127000
| 37> H   -3.8559243800   2.9374787900  -2.1860248000
| 38> C   -2.8224727100  -0.3239101300   0.1916324700
| 39> H   -4.5130375100  -1.6937680000   0.1786613400
| 40> C   -1.8455767200  -1.1461968400   0.6301442000
| 41> H   -2.5699512000   0.7226571900   0.0366854800
| 42> C   -1.9872512700  -2.6253754600   0.8850695700
| 43> C   -0.9247032100  -3.4400418400   0.1217509400
| 44> H   -2.9853003600  -2.9954083300   0.6349286400
| 45> H   -1.8407056500  -2.7976450200   1.9633572300
| 46> C    0.4989376100  -2.9123212700   0.3460530400
| 47> H   -1.1618904500  -3.4229982400  -0.9495327500
| 48> H   -0.9817647300  -4.4891184800   0.4369000400
| 49> C    0.6097704900  -1.4150043200   0.0266619300
| 50> H    1.1963399400  -3.5017664400  -0.2582161000
| 51> H    0.7800655900  -3.0636934400   1.3992266500
| 52> C   -0.4508486400  -0.6715851900   0.8989315000
| 53> H   -0.2138247700  -0.9695048300   1.9373445000
| 54> C   -0.0777616500   0.7992868400   0.7535101600
| 55> H   -6.3413378900   0.4982888200   1.5679998600
| 56> C    1.4696577200   0.7739518100   0.7342500200
| 57> H   -0.4811011200   1.4124122000   1.5663595400
| 58> H   -0.4693206300   1.2083517500  -0.1846865600
| 59> C    1.9059582100  -0.7102466800   0.5216658800
| 60> H    1.8798224500   1.1706060400   1.6670177400
| 61> H    1.8683137400   1.4034153100  -0.0703235100
| 62> H    2.1361572400  -1.1569001900   1.5017042800
| 63> C    3.1627219400  -0.8166603300  -0.3533612700
| 64> C    0.3667504600  -1.1496277800  -1.4658601200
| 65> H    0.5725693000  -0.1077663800  -1.7315301200
| 66> H   -0.6714157600  -1.3566395900  -1.7439360000
| 67> H    1.0123275700  -1.7824779600  -2.0840946700
| 68> H    2.9357840900  -0.3286999900  -1.3145572400
| 69> C    3.5965612600  -2.2612604600  -0.6629865500
| 70> C    4.3611857400  -0.0979608300   0.2261145300
| 71> C    4.5772792200   0.2325736700   1.4982548700
| 72> H    5.1569081700   0.1063210600  -0.4959477500
| 73> H    3.8138286000   0.0307750600   2.2534127900
| 74> C    5.8348538500   0.8661124000   2.0255065200
| 75> C    6.5179772000  -0.1086679700   2.9986600600
| 76> C    5.5279499200   2.2334892500   2.6841102900
| 77> H    6.5138721400   1.0492389200   1.1773064500
| 78> H    4.7995710600   2.0489209700   3.4907774800
| 79> C    4.8978694700   3.1973993500   1.6753348200
| 80> C    6.7758476500   2.8704816200   3.3023586500
| 81> H    5.9079421100  -0.2414703900   3.9011319200
| 82> H    7.5061726400   0.2467205000   3.3048597800
| 83> H    6.6430619000  -1.0897008200   2.5289229900
| 84> H    3.9760734800   2.7903261200   1.2486017900
| 85> H    5.5937146800   3.3884020800   0.8478752400
| 86> H    4.6642243800   4.1578531700   2.1477178000
| 87> H    7.1741926900   2.2828817500   4.1342660900
| 88> H    6.5446584200   3.8711341400   3.6839994700
| 89> H    7.5675545800   2.9750701900   2.5489443900
| 90> H    2.8811546800  -2.7766550200  -1.3088537100
| 91> H    3.7038118400  -2.8343736600   0.2655901500
| 92> H    4.5668774800  -2.2654603700  -1.1722113200
| 93> *
| 94> %eprnmr
| 95>  Nuclei = all C { ssfc }
| 96>  SpinSpinRThresh 8.0
| 97> end
| 98> 
| 99>                          ****END OF INPUT****
================================================================================

                       ****************************
                       * Single Point Calculation *
                       ****************************

---------------------------------
CARTESIAN COORDINATES (ANGSTROEM)
---------------------------------
  C     -5.141364    0.126703   -0.609243
  C     -6.574657   -0.327890   -0.749774
  C     -7.513904    0.624803    0.001316
  H     -6.697448   -1.349909   -0.373641
  H     -6.866201   -0.319651   -1.810513
  C     -4.916414    1.531479   -1.017317
  C     -5.877293    2.522361   -0.398443
  C     -7.335273    2.054841   -0.511053
  H     -5.752572    3.508603   -0.858037
  H     -5.623833    2.630323    0.667203
  H     -7.651096    2.086110   -1.562715
  H     -7.991422    2.729748    0.050739
  O     -7.297003    0.536606    1.419607
  H     -8.553492    0.309256   -0.150963
  C     -4.193592   -0.686029   -0.084404
  C     -3.972663    1.897096   -1.891575
  H     -3.303232    1.167319   -2.339213
  H     -3.855924    2.937479   -2.186025
  C     -2.822473   -0.323910    0.191632
  H     -4.513038   -1.693768    0.178661
  C     -1.845577   -1.146197    0.630144
  H     -2.569951    0.722657    0.036685
  C     -1.987251   -2.625375    0.885070
  C     -0.924703   -3.440042    0.121751
  H     -2.985300   -2.995408    0.634929
  H     -1.840706   -2.797645    1.963357
  C      0.498938   -2.912321    0.346053
  H     -1.161890   -3.422998   -0.949533
  H     -0.981765   -4.489118    0.436900
  C      0.609770   -1.415004    0.026662
  H      1.196340   -3.501766   -0.258216
  H      0.780066   -3.063693    1.399227
  C     -0.450849   -0.671585    0.898931
  H     -0.213825   -0.969505    1.937344
  C     -0.077762    0.799287    0.753510
  H     -6.341338    0.498289    1.568000
  C      1.469658    0.773952    0.734250
  H     -0.481101    1.412412    1.566360
  H     -0.469321    1.208352   -0.184687
  C      1.905958   -0.710247    0.521666
  H      1.879822    1.170606    1.667018
  H      1.868314    1.403415   -0.070324
  H      2.136157   -1.156900    1.501704
  C      3.162722   -0.816660   -0.353361
  C      0.366750   -1.149628   -1.465860
  H      0.572569   -0.107766   -1.731530
  H     -0.671416   -1.356640   -1.743936
  H      1.012328   -1.782478   -2.084095
  H      2.935784   -0.328700   -1.314557
  C      3.596561   -2.261260   -0.662987
  C      4.361186   -0.097961    0.226115
  C      4.577279    0.232574    1.498255
  H      5.156908    0.106321   -0.495948
  H      3.813829    0.030775    2.253413
  C      5.834854    0.866112    2.025507
  C      6.517977   -0.108668    2.998660
  C      5.527950    2.233489    2.684110
  H      6.513872    1.049239    1.177306
  H      4.799571    2.048921    3.490777
  C      4.897869    3.197399    1.675335
  C      6.775848    2.870482    3.302359
  H      5.907942   -0.241470    3.901132
  H      7.506173    0.246721    3.304860
  H      6.643062   -1.089701    2.528923
  H      3.976073    2.790326    1.248602
  H      5.593715    3.388402    0.847875
  H      4.664224    4.157853    2.147718
  H      7.174193    2.282882    4.134266
  H      6.544658    3.871134    3.683999
  H      7.567555    2.975070    2.548944
  H      2.881155   -2.776655   -1.308854
  H      3.703812   -2.834374    0.265590
  H      4.566877   -2.265460   -1.172211

----------------------------
CARTESIAN COORDINATES (A.U.)
----------------------------
  NO LB      ZA    FRAG     MASS         X           Y           Z
   0 C     6.0000    0    12.011   -9.715769    0.239433   -1.151303
   1 C     6.0000    0    12.011  -12.424300   -0.619623   -1.416867
   2 C     6.0000    0    12.011  -14.199221    1.180707    0.002487
   3 H     1.0000    0     1.008  -12.656342   -2.550959   -0.706080
   4 H     1.0000    0     1.008  -12.975240   -0.604052   -3.421373
   5 C     6.0000    0    12.011   -9.290676    2.894076   -1.922451
   6 C     6.0000    0    12.011  -11.106474    4.766572   -0.752949
   7 C     6.0000    0    12.011  -13.861658    3.883087   -0.965750
   8 H     1.0000    0     1.008  -10.870785    6.630299   -1.621455
   9 H     1.0000    0     1.008  -10.627503    4.970591    1.260831
  10 H     1.0000    0     1.008  -14.458476    3.942176   -2.953104
  11 H     1.0000    0     1.008  -15.101599    5.158476    0.095883
  12 O     8.0000    0    15.999  -13.789337    1.014039    2.682668
  13 H     1.0000    0     1.008  -16.163757    0.584409   -0.285279
  14 C     6.0000    0    12.011   -7.924741   -1.296406   -0.159500
  15 C     6.0000    0    12.011   -7.507245    3.584993   -3.574560
  16 H     1.0000    0     1.008   -6.242205    2.205913   -4.420471
  17 H     1.0000    0     1.008   -7.286641    5.551030   -4.130988
  18 C     6.0000    0    12.011   -5.333700   -0.612101    0.362133
  19 H     1.0000    0     1.008   -8.528405   -3.200758    0.337621
  20 C     6.0000    0    12.011   -3.487635   -2.165998    1.190800
  21 H     1.0000    0     1.008   -4.856504    1.365624    0.069326
  22 C     6.0000    0    12.011   -3.755361   -4.961241    1.672539
  23 C     6.0000    0    12.011   -1.747436   -6.500737    0.230076
  24 H     1.0000    0     1.008   -5.641400   -5.660501    1.199841
  25 H     1.0000    0     1.008   -3.478430   -5.286783    3.710207
  26 C     6.0000    0    12.011    0.942855   -5.503490    0.653945
  27 H     1.0000    0     1.008   -2.195655   -6.468529   -1.794357
  28 H     1.0000    0     1.008   -1.855266   -8.483205    0.825621
  29 C     6.0000    0    12.011    1.152299   -2.673971    0.050384
  30 H     1.0000    0     1.008    2.260755   -6.617380   -0.487958
  31 H     1.0000    0     1.008    1.474110   -5.789542    2.644155
  32 C     6.0000    0    12.011   -0.851980   -1.269112    1.698734
  33 H     1.0000    0     1.008   -0.404070   -1.832099    3.661051
  34 C     6.0000    0    12.011   -0.146948    1.510433    1.423928
  35 H     1.0000    0     1.008  -11.983392    0.941629    2.963090
  36 C     6.0000    0    12.011    2.777251    1.462557    1.387531
  37 H     1.0000    0     1.008   -0.909149    2.669072    2.959991
  38 H     1.0000    0     1.008   -0.886887    2.283454   -0.349007
  39 C     6.0000    0    12.011    3.601739   -1.342172    0.985806
  40 H     1.0000    0     1.008    3.552350    2.212125    3.150207
  41 H     1.0000    0     1.008    3.530601    2.652071   -0.132892
  42 H     1.0000    0     1.008    4.036752   -2.186225    2.837810
  43 C     6.0000    0    12.011    5.976678   -1.543264   -0.667756
  44 C     6.0000    0    12.011    0.693058   -2.172482   -2.770074
  45 H     1.0000    0     1.008    1.081999   -0.203649   -3.272118
  46 H     1.0000    0     1.008   -1.268792   -2.563677   -3.295561
  47 H     1.0000    0     1.008    1.913022   -3.368395   -3.938368
  48 H     1.0000    0     1.008    5.547828   -0.621153   -2.484153
  49 C     6.0000    0    12.011    6.796516   -4.273163   -1.252863
  50 C     6.0000    0    12.011    8.241447   -0.185119    0.427295
  51 C     6.0000    0    12.011    8.649804    0.439501    2.831291
  52 H     1.0000    0     1.008    9.745144    0.200918   -0.937205
  53 H     1.0000    0     1.008    7.207092    0.058156    4.258333
  54 C     6.0000    0    12.011   11.026276    1.636715    3.827653
  55 C     6.0000    0    12.011   12.317192   -0.205353    5.666646
  56 C     6.0000    0    12.011   10.446311    4.220683    5.072233
  57 H     1.0000    0     1.008   12.309434    1.982774    2.224787
  58 H     1.0000    0     1.008    9.069875    3.871900    6.596613
  59 C     6.0000    0    12.011    9.255632    6.042209    3.165924
  60 C     6.0000    0    12.011   12.804496    5.424424    6.240553
  61 H     1.0000    0     1.008   11.164393   -0.456313    7.372071
  62 H     1.0000    0     1.008   14.184611    0.466234    6.245280
  63 H     1.0000    0     1.008   12.553568   -2.059236    4.778972
  64 H     1.0000    0     1.008    7.513690    5.272952    2.359515
  65 H     1.0000    0     1.008   10.570589    6.403152    1.602252
  66 H     1.0000    0     1.008    8.814107    7.857204    4.058598
  67 H     1.0000    0     1.008   13.557259    4.314021    7.812631
  68 H     1.0000    0     1.008   12.367612    7.315383    6.961750
  69 H     1.0000    0     1.008   14.300606    5.622068    4.816807
  70 H     1.0000    0     1.008    5.444593   -5.247118   -2.473375
  71 H     1.0000    0     1.008    6.999190   -5.356190    0.501893
  72 H     1.0000    0     1.008    8.630148   -4.281100   -2.215158

--------------------------------
INTERNAL COORDINATES (ANGSTROEM)
--------------------------------
 C      0   0   0     0.000000000000     0.00000000     0.00000000
 C      1   0   0     1.510209354404     0.00000000     0.00000000
 C      2   1   0     1.534258014531   110.39785605     0.00000000
 H      2   1   3     1.095936284736   110.80020104   237.85250720
 H      2   1   3     1.100105921535   109.81515268   118.68726524
 C      1   2   3     1.480041581802   113.84706755   305.86518814
 C      6   1   2     1.512659946687   114.35544036    50.11124605
 C      3   2   1     1.529522341169   110.18618611    56.82571579
 H      7   6   1     1.095196263682   110.23449395   188.63122436
 H      7   6   1     1.100681971463   108.30545047    71.92335051
 H      8   3   2     1.098505689144   108.28464791    64.52939946
 H      8   3   2     1.096194005175   109.51488855   181.49512704
 O      3   2   1     1.437488515530   110.64263727   292.76611201
 H      3   2   1     1.097042487504   109.48515668   177.25967270
 C      1   2   3     1.354348016962   121.30425274   122.49435288
 C      6   1   2     1.337411624307   123.15880878   232.12926172
 H     16   6   1     1.086780160937   121.35538817   358.95306170
 H     16   6   1     1.087530996644   120.94798721   178.36378311
 C     15   1   2     1.444747506402   125.99867531   185.08136378
 H     15   1   2     1.089397612584   116.32642468     3.06934917
 C     19  15   1     1.350101383626   126.59091336   184.75579081
 H     19  15   1     1.087694275987   115.73953126     5.50671230
 C     21  19  15     1.507656463606   125.76601069     1.74180092
 C     23  21  19     1.541215436406   111.72015930   126.05158207
 H     23  21  19     1.093433489423   112.27872999     2.31754021
 H     23  21  19     1.101751649761   107.84200685   244.68422924
 C     24  23  21     1.534781292705   112.66648612    50.74762772
 H     24  23  21     1.097359109672   109.04301879   288.64443724
 H     24  23  21     1.096875913168   109.11035135   172.68910898
 C     27  24  23     1.535009008831   111.83679138   306.21947190
 H     27  24  23     1.094968863430   108.96826026   182.66618387
 H     27  24  23     1.100509485552   109.23961530    66.16019154
 C     21  19  15     1.497587809812   122.62575769   180.50635860
 H     33  21  19     1.106000897566   106.42337989   125.72002616
 C     33  21  19     1.524403423268   121.10445827     3.07074197
 H     13   3   2     0.967876379412   107.61892667    42.20279476
 C     35  33  21     1.547746595341   103.30202588   195.00677522
 H     35  33  21     1.095139054961   112.28759895    73.25339722
 H     35  33  21     1.095840143831   110.75683483   313.50824021
 C     30  27  24     1.556218123250   115.82989512   166.59041597
 H     37  35  33     1.093446525161   111.00682797   252.18384942
 H     37  35  33     1.096580815668   111.29696241   133.94827896
 H     40  30  27     1.101347455113   105.87124772   322.27665209
 C     40  30  27     1.535073760829   117.98204249    83.18443620
 C     30  27  24     1.535286785164   111.06663542   294.78839999
 H     45  30  27     1.094722394312   111.75679640   187.54996385
 H     45  30  27     1.094517786455   111.37272031    67.60250709
 H     45  30  27     1.095209164541   110.82911702   307.54136721
 H     44  40  30     1.101591473242   107.33803160    62.56800738
 C     44  40  30     1.539790214669   114.22545134   303.68704406
 C     44  40  30     1.512824065778   113.40952159   180.13432202
 C     51  44  40     1.332024959392   127.75067631    22.15674852
 H     51  44  40     1.093745497081   114.34310042   197.99071203
 H     52  51  44     1.092631233452   120.05832609   356.66995177
 C     52  51  44     1.503615501003   125.10863584   175.63050128
 C     55  52  51     1.537492144197   109.05156199   244.61319402
 C     55  52  51     1.548440634323   110.82107213   120.55844219
 H     55  52  51     1.101836884130   108.39165227     2.66441278
 H     57  55  52     1.102412431488   107.11788317    58.16563380
 C     57  55  52     1.530931743491   110.93496913   300.03787428
 C     57  55  52     1.531417336529   112.17983942   176.77361713
 H     56  55  52     1.097376303681   110.50345012   292.71582946
 H     56  55  52     1.093887316305   111.87452323   172.16638217
 H     56  55  52     1.094862799571   110.32184388    51.99377334
 H     60  57  55     1.094311445913   111.68007844    58.04127427
 H     60  57  55     1.097894328103   110.20051833   298.32831974
 H     60  57  55     1.095539706367   110.83266667   178.94009021
 H     61  57  55     1.093628075190   112.35951047   295.35524528
 H     61  57  55     1.095629335743   110.39997134   175.21755369
 H     61  57  55     1.097894202169   110.49922212    56.17029997
 H     50  44  40     1.092969585831   112.13601531    67.66845980
 H     50  44  40     1.096456161781   110.34351086   306.53946603
 H     50  44  40     1.095828943048   110.27453778   187.61473580

---------------------------
INTERNAL COORDINATES (A.U.)
---------------------------
 C      0   0   0     0.000000000000     0.00000000     0.00000000
 C      1   0   0     2.853882084709     0.00000000     0.00000000
 C      2   1   0     2.899327466237   110.39785605     0.00000000
 H      2   1   3     2.071019438378   110.80020104   237.85250720
 H      2   1   3     2.078898910006   109.81515268   118.68726524
 C      1   2   3     2.796873256421   113.84706755   305.86518814
 C      6   1   2     2.858513032990   114.35544036    50.11124605
 C      3   2   1     2.890378340523   110.18618611    56.82571579
 H      7   6   1     2.069621001253   110.23449395   188.63122436
 H      7   6   1     2.079987486609   108.30545047    71.92335051
 H      8   3   2     2.075874909037   108.28464791    64.52939946
 H      8   3   2     2.071506459426   109.51488855   181.49512704
 O      3   2   1     2.716459615009   110.64263727   292.76611201
 H      3   2   1     2.073109858659   109.48515668   177.25967270
 C      1   2   3     2.559346842077   121.30425274   122.49435288
 C      6   1   2     2.527341698262   123.15880878   232.12926172
 H     16   6   1     2.053716871950   121.35538817   358.95306170
 H     16   6   1     2.055135745807   120.94798721   178.36378311
 C     15   1   2     2.730177119765   125.99867531   185.08136378
 H     15   1   2     2.058663138731   116.32642468     3.06934917
 C     19  15   1     2.551321868081   126.59091336   184.75579081
 H     19  15   1     2.055444299049   115.73953126     5.50671230
 C     21  19  15     2.849057820251   125.76601069     1.74180092
 C     23  21  19     2.912475088180   111.72015930   126.05158207
 H     23  21  19     2.066289840667   112.27872999     2.31754021
 H     23  21  19     2.082008885645   107.84200685   244.68422924
 C     24  23  21     2.900316318677   112.66648612    50.74762772
 H     24  23  21     2.073708187843   109.04301879   288.64443724
 H     24  23  21     2.072795078783   109.11035135   172.68910898
 C     27  24  23     2.900746639793   111.83679138   306.21947190
 H     27  24  23     2.069191277055   108.96826026   182.66618387
 H     27  24  23     2.079661535476   109.23961530    66.16019154
 C     21  19  15     2.830030822044   122.62575769   180.50635860
 H     33  21  19     2.090038800271   106.42337989   125.72002616
 C     33  21  19     2.880704987588   121.10445827     3.07074197
 H     13   3   2     1.829021288580   107.61892667    42.20279476
 C     35  33  21     2.924817189903   103.30202588   195.00677522
 H     35  33  21     2.069512892438   112.28759895    73.25339722
 H     35  33  21     2.070837758397   110.75683483   313.50824021
 C     30  27  24     2.940826057588   115.82989512   166.59041597
 H     37  35  33     2.066314474642   111.00682797   252.18384942
 H     37  35  33     2.072237425325   111.29696241   133.94827896
 H     40  30  27     2.081245068454   105.87124772   322.27665209
 C     40  30  27     2.900869003336   117.98204249    83.18443620
 C     30  27  24     2.901271560989   111.06663542   294.78839999
 H     45  30  27     2.068725517921   111.75679640   187.54996385
 H     45  30  27     2.068338865106   111.37272031    67.60250709
 H     45  30  27     2.069645380344   110.82911702   307.54136721
 H     44  40  30     2.081706195890   107.33803160    62.56800738
 C     44  40  30     2.909781809415   114.22545134   303.68704406
 C     44  40  30     2.858823173125   113.40952159   180.13432202
 C     51  44  40     2.517162376799   127.75067631    22.15674852
 H     51  44  40     2.066879449693   114.34310042   197.99071203
 H     52  51  44     2.064773796593   120.05832609   356.66995177
 C     52  51  44     2.841421507615   125.10863584   175.63050128
 C     55  52  51     2.905439085587   109.05156199   244.61319402
 C     55  52  51     2.926128733506   110.82107213   120.55844219
 H     55  52  51     2.082169955259   108.39165227     2.66441278
 H     57  55  52     2.083257582143   107.11788317    58.16563380
 C     57  55  52     2.893041724924   110.93496913   300.03787428
 C     57  55  52     2.893959362778   112.17983942   176.77361713
 H     56  55  52     2.073740679812   110.50345012   292.71582946
 H     56  55  52     2.067147449187   111.87452323   172.16638217
 H     56  55  52     2.068990845408   110.32184388    51.99377334
 H     60  57  55     2.067948937991   111.68007844    58.04127427
 H     60  57  55     2.074719604101   110.20051833   298.32831974
 H     60  57  55     2.070270013871   110.83266667   178.94009021
 H     61  57  55     2.066657554477   112.35951047   295.35524528
 H     61  57  55     2.070439388844   110.39997134   175.21755369
 H     61  57  55     2.074719366119   110.49922212    56.17029997
 H     50  44  40     2.065413189926   112.13601531    67.66845980
 H     50  44  40     2.072001863616   110.34351086   306.53946603
 H     50  44  40     2.070816591984   110.27453778   187.61473580

---------------------
BASIS SET INFORMATION
---------------------
There are 3 groups of distinct atoms

 Group   1 Type C   : 7s4p contracted to 4s3p pattern {4111/211}
 Group   2 Type H   : 5s contracted to 3s pattern {311}
 Group   3 Type O   : 7s4p contracted to 4s3p pattern {4111/211}

Atom   0C    basis set group =>   1
Atom   1C    basis set group =>   1
Atom   2C    basis set group =>   1
Atom   3H    basis set group =>   2
Atom   4H    basis set group =>   2
Atom   5C    basis set group =>   1
Atom   6C    basis set group =>   1
Atom   7C    basis set group =>   1
Atom   8H    basis set group =>   2
Atom   9H    basis set group =>   2
Atom  10H    basis set group =>   2
Atom  11H    basis set group =>   2
Atom  12O    basis set group =>   3
Atom  13H    basis set group =>   2
Atom  14C    basis set group =>   1
Atom  15C    basis set group =>   1
Atom  16H    basis set group =>   2
Atom  17H    basis set group =>   2
Atom  18C    basis set group =>   1
Atom  19H    basis set group =>   2
Atom  20C    basis set group =>   1
Atom  21H    basis set group =>   2
Atom  22C    basis set group =>   1
Atom  23C    basis set group =>   1
Atom  24H    basis set group =>   2
Atom  25H    basis set group =>   2
Atom  26C    basis set group =>   1
Atom  27H    basis set group =>   2
Atom  28H    basis set group =>   2
Atom  29C    basis set group =>   1
Atom  30H    basis set group =>   2
Atom  31H    basis set group =>   2
Atom  32C    basis set group =>   1
Atom  33H    basis set group =>   2
Atom  34C    basis set group =>   1
Atom  35H    basis set group =>   2
Atom  36C    basis set group =>   1
Atom  37H    basis set group =>   2
Atom  38H    basis set group =>   2
Atom  39C    basis set group =>   1
Atom  40H    basis set group =>   2
Atom  41H    basis set group =>   2
Atom  42H    basis set group =>   2
Atom  43C    basis set group =>   1
Atom  44C    basis set group =>   1
Atom  45H    basis set group =>   2
Atom  46H    basis set group =>   2
Atom  47H    basis set group =>   2
Atom  48H    basis set group =>   2
Atom  49C    basis set group =>   1
Atom  50C    basis set group =>   1
Atom  51C    basis set group =>   1
Atom  52H    basis set group =>   2
Atom  53H    basis set group =>   2
Atom  54C    basis set group =>   1
Atom  55C    basis set group =>   1
Atom  56C    basis set group =>   1
Atom  57H    basis set group =>   2
Atom  58H    basis set group =>   2
Atom  59C    basis set group =>   1
Atom  60C    basis set group =>   1
Atom  61H    basis set group =>   2
Atom  62H    basis set group =>   2
Atom  63H    basis set group =>   2
Atom  64H    basis set group =>   2
Atom  65H    basis set group =>   2
Atom  66H    basis set group =>   2
Atom  67H    basis set group =>   2
Atom  68H    basis set group =>   2
Atom  69H    basis set group =>   2
Atom  70H    basis set group =>   2
Atom  71H    basis set group =>   2
Atom  72H    basis set group =>   2

-------------------------
BASIS SET IN INPUT FORMAT
-------------------------

 # Basis set for element : H 
 NewGTO H 
 S 3 
   1    1357.7500000000      0.0012928364
   2      54.3100000000      0.0588280685
   3       4.3448000000      0.9761499708
 S 1 
   1       0.6604910000      1.0000000000
 S 1 
   1       0.1366870000      1.0000000000
  end;

 # Basis set for element : C 
 NewGTO C 
 S 4 
   1  139534.0000000000      0.0001655246
   2    5581.3600000000      0.0074486101
   3     446.5090000000      0.1285821065
   4      67.4620000000      0.9218029311
 S 1 
   1      15.0674000000      1.0000000000
 S 1 
   1       3.9387600000      1.0000000000
 S 1 
   1       0.2999150000      1.0000000000
 P 2 
   1      28.3900000000      0.0816325586
   2       4.3676900000      0.9660360576
 P 1 
   1       0.8698170000      1.0000000000
 P 1 
   1       0.1889340000      1.0000000000
  end;

 # Basis set for element : O 
 NewGTO O 
 S 4 
   1  253789.0000000000      0.0001641076
   2   10151.6000000000      0.0074010921
   3     812.1250000000      0.1277711901
   4     122.6930000000      0.9223372164
 S 1 
   1      27.5608000000      1.0000000000
 S 1 
   1       7.3172600000      1.0000000000
 S 1 
   1       0.5792400000      1.0000000000
 P 2 
   1      53.4157000000      0.0793786106
   2       8.2177900000      0.9670506337
 P 1 
   1       1.6754400000      1.0000000000
 P 1 
   1       0.3506720000      1.0000000000
  end;

---------------------------------
AUXILIARY/J BASIS SET INFORMATION
---------------------------------
There are 3 groups of distinct atoms

 Group   1 Type C   : 12s5p4d2f1g contracted to 6s4p3d1f1g pattern {711111/2111/211/2/1}
 Group   2 Type H   : 5s2p1d contracted to 3s1p1d pattern {311/2/1}
 Group   3 Type O   : 12s5p4d2f1g contracted to 6s4p3d1f1g pattern {711111/2111/211/2/1}

Atom   0C    basis set group =>   1
Atom   1C    basis set group =>   1
Atom   2C    basis set group =>   1
Atom   3H    basis set group =>   2
Atom   4H    basis set group =>   2
Atom   5C    basis set group =>   1
Atom   6C    basis set group =>   1
Atom   7C    basis set group =>   1
Atom   8H    basis set group =>   2
Atom   9H    basis set group =>   2
Atom  10H    basis set group =>   2
Atom  11H    basis set group =>   2
Atom  12O    basis set group =>   3
Atom  13H    basis set group =>   2
Atom  14C    basis set group =>   1
Atom  15C    basis set group =>   1
Atom  16H    basis set group =>   2
Atom  17H    basis set group =>   2
Atom  18C    basis set group =>   1
Atom  19H    basis set group =>   2
Atom  20C    basis set group =>   1
Atom  21H    basis set group =>   2
Atom  22C    basis set group =>   1
Atom  23C    basis set group =>   1
Atom  24H    basis set group =>   2
Atom  25H    basis set group =>   2
Atom  26C    basis set group =>   1
Atom  27H    basis set group =>   2
Atom  28H    basis set group =>   2
Atom  29C    basis set group =>   1
Atom  30H    basis set group =>   2
Atom  31H    basis set group =>   2
Atom  32C    basis set group =>   1
Atom  33H    basis set group =>   2
Atom  34C    basis set group =>   1
Atom  35H    basis set group =>   2
Atom  36C    basis set group =>   1
Atom  37H    basis set group =>   2
Atom  38H    basis set group =>   2
Atom  39C    basis set group =>   1
Atom  40H    basis set group =>   2
Atom  41H    basis set group =>   2
Atom  42H    basis set group =>   2
Atom  43C    basis set group =>   1
Atom  44C    basis set group =>   1
Atom  45H    basis set group =>   2
Atom  46H    basis set group =>   2
Atom  47H    basis set group =>   2
Atom  48H    basis set group =>   2
Atom  49C    basis set group =>   1
Atom  50C    basis set group =>   1
Atom  51C    basis set group =>   1
Atom  52H    basis set group =>   2
Atom  53H    basis set group =>   2
Atom  54C    basis set group =>   1
Atom  55C    basis set group =>   1
Atom  56C    basis set group =>   1
Atom  57H    basis set group =>   2
Atom  58H    basis set group =>   2
Atom  59C    basis set group =>   1
Atom  60C    basis set group =>   1
Atom  61H    basis set group =>   2
Atom  62H    basis set group =>   2
Atom  63H    basis set group =>   2
Atom  64H    basis set group =>   2
Atom  65H    basis set group =>   2
Atom  66H    basis set group =>   2
Atom  67H    basis set group =>   2
Atom  68H    basis set group =>   2
Atom  69H    basis set group =>   2
Atom  70H    basis set group =>   2
Atom  71H    basis set group =>   2
Atom  72H    basis set group =>   2

-------------------------------------
AUXILIARY/J BASIS SET IN INPUT FORMAT
-------------------------------------

 # Auxiliary/J basis set for element : H 
 NewAuxJGTO H 
 S 3 
   1      15.6752927000      0.1007184237
   2       3.6063578000      0.3404257499
   3       1.2080016000      0.6491996172
 S 1 
   1       0.4726794000      1.0000000000
 S 1 
   1       0.2018100000      1.0000000000
 P 2 
   1       2.0281365000      0.5596620919
   2       0.5358730000      0.5596620919
 D 1 
   1       2.2165124000      1.0000000000
  end;

 # Auxiliary/J basis set for element : C 
 NewAuxJGTO C 
 S 7 
   1    1861.0916331000      0.0134602335
   2     642.9939764000      0.0299160374
   3     235.1105725000      0.1008649584
   4      90.7028894000      0.2370970548
   5      36.7794552000      0.3924037254
   6      15.6046273000      0.3195862154
   7       6.8907294000      0.0530104441
 S 1 
   1       3.1478850000     -1.0000000000
 S 1 
   1       1.4777287000      1.0000000000
 S 1 
   1       0.7076466000      1.0000000000
 S 1 
   1       0.3430122000      1.0000000000
 S 1 
   1       0.1669453000      1.0000000000
 P 2 
   1      13.5472892000     -0.6769313712
   2       5.4669419000     -0.3779500978
 P 1 
   1       2.1751721000      1.0000000000
 P 1 
   1       0.8582194000      1.0000000000
 P 1 
   1       0.3376720000      1.0000000000
 D 2 
   1       5.9287253000     -0.3533329857
   2       1.9809209000     -0.7456525731
 D 1 
   1       0.8055417000     -1.0000000000
 D 1 
   1       0.3531244000     -1.0000000000
 F 2 
   1       1.6755626000      0.6311076882
   2       0.5997536000      0.4968166032
 G 1 
   1       1.0024600000     -1.0000000000
  end;

 # Auxiliary/J basis set for element : O 
 NewAuxJGTO O 
 S 7 
   1    2876.8216605000      0.0168151159
   2    1004.7443032000      0.0340137548
   3     369.7579954000      0.1194951309
   4     142.9442404000      0.2664627624
   5      57.8366425000      0.4202764046
   6      24.3864983000      0.2765077335
   7      10.6622662000      0.0057008815
 S 1 
   1       4.8070437000     -1.0000000000
 S 1 
   1       2.2210770000      1.0000000000
 S 1 
   1       1.0447795000      1.0000000000
 S 1 
   1       0.4968425000      1.0000000000
 S 1 
   1       0.2371384000      1.0000000000
 P 2 
   1      64.2613382000     -0.2731534179
   2      16.3006076000     -0.8168011598
 P 1 
   1       4.3550542000      1.0000000000
 P 1 
   1       1.2019554000      1.0000000000
 P 1 
   1       0.3354196000      1.0000000000
 D 2 
   1       9.2146611000     -0.4661230638
   2       2.8435251000     -0.6600908911
 D 1 
   1       0.9955759000     -1.0000000000
 D 1 
   1       0.3649441000     -1.0000000000
 F 2 
   1       2.6420115000      0.5931563945
   2       0.7345613000      0.5931563945
 G 1 
   1       1.3931000000     -1.0000000000
  end;


Checking for AutoStart:
The File: inpJ.gbw exists
Trying to determine its content:
     ... Fine, the file contains calculation information
     ... Fine, the calculation information was read
     ... Fine, the file contains a basis set
     ... Fine, the basis set was read
     ... Fine, the file contains a geometry
     ... Fine, the geometry was read
     ... Fine, the file contains a set of orbitals
     ... Fine, the orbitals can be read
     => possible old guess file was deleted
     => GBW file was renamed to GES file
     => GES file is set as startup file
     => Guess is set to MORead
     ... now leaving AutoStart



           ************************************************************
           *        Program running with 4 parallel MPI-processes     *
           *              working on a common directory               *
           ************************************************************
------------------------------------------------------------------------------
                             ORCA STARTUP CALCULATIONS
                           -- RI-GTO INTEGRALS CHOSEN --
------------------------------------------------------------------------------
------------------------------------------------------------------------------
                   ___                                                        
                  /   \      - P O W E R E D   B Y -                         
                 /     \                                                     
                 |  |  |   _    _      __       _____    __    __             
                 |  |  |  | |  | |    /  \     |  _  \  |  |  /  |          
                  \  \/   | |  | |   /    \    | | | |  |  | /  /          
                 / \  \   | |__| |  /  /\  \   | |_| |  |  |/  /          
                |  |  |   |  __  | /  /__\  \  |    /   |      \           
                |  |  |   | |  | | |   __   |  |    \   |  |\   \          
                \     /   | |  | | |  |  |  |  | |\  \  |  | \   \       
                 \___/    |_|  |_| |__|  |__|  |_| \__\ |__|  \__/        
                                                                              
                      - O R C A' S   B I G   F R I E N D -                    
                                      &                                       
                       - I N T E G R A L  F E E D E R -                       
                                                                              
 v1 FN, 2020, v2 2021, v3 2022-2024                                           
------------------------------------------------------------------------------


----------------------
SHARK INTEGRAL PACKAGE
----------------------

Number of atoms                             ...     73
Number of basis functions                   ...    509
Number of shells                            ...    335
Maximum angular momentum                    ...      1
Integral batch strategy                     ... SHARK/LIBINT Hybrid
RI-J (if used) integral strategy            ... SPLIT-RIJ (Revised 2003 algorithm where possible)
Printlevel                                  ...      1
Contraction scheme used                     ... SEGMENTED contraction
Prescreening option                         ... SCHWARTZ
   Thresh                                   ... 3.000e-11
   Tcut                                     ... 1.000e-12
   Tpresel                                  ... 1.000e-12 
Coulomb Range Separation                    ... NOT USED
Exchange Range Separation                   ... NOT USED
Multipole approximations                    ... NOT USED
Finite Nucleus Model                        ... NOT USED
CABS basis                                  ... NOT available
Auxiliary Coulomb fitting basis             ... AVAILABLE
   # of basis functions in Aux-J            ...   1905
   # of shells in Aux-J                     ...    655
   Maximum angular momentum in Aux-J        ...      4
Auxiliary J/K fitting basis                 ... NOT available
Auxiliary Correlation fitting basis         ... NOT available
Auxiliary 'external' fitting basis          ... NOT available

Checking pre-screening integrals            ... done (  0.0 sec) Dimension = 335
Check shell pair data                       ... done (  0.0 sec)
Shell pair information
Shell pair cut-off parameter TPreSel        ...   1.0e-12
Total number of shell pairs                 ...     56280
Shell pairs after pre-screening             ...     22092
Total number of primitive shell pairs       ...    145865
Primitive shell pairs kept                  ...     37953
          la=0 lb=0:  11113 shell pairs
          la=1 lb=0:   9087 shell pairs
          la=1 lb=1:   1892 shell pairs

Calculating one electron integrals          ... done (  0.0 sec)
Calculating RI/J V-Matrix + Cholesky decomp.... done (  0.2 sec)
Calculating Nuclear repulsion               ... done (  0.0 sec) ENN=   2802.064555472283 Eh

Diagonalization of the overlap matrix:
Smallest eigenvalue                        ... 7.564e-03
Time for diagonalization                   ...    0.031 sec
Threshold for overlap eigenvalues          ... 1.000e-07
Number of eigenvalues below threshold      ... 0
Time for construction of square roots      ...    0.017 sec
Total time needed                          ...    0.050 sec

-------------------
DFT GRID GENERATION
-------------------

General Integration Accuracy     IntAcc      ... 4.388
Radial Grid Type                 RadialGrid  ... OptM3 with GC (2021)
Angular Grid (max. ang.)         AngularGrid ... 4 (Lebedev-302)
Angular grid pruning method      GridPruning ... 4 (adaptive)
Weight generation scheme         WeightScheme... mBecke (2022)
Basis function cutoff            BFCut       ... 1.0000e-11
Integration weight cutoff        WCut        ... 1.0000e-14
Partially contracted basis set               ... off
Rotationally invariant grid construction     ... off
Angular grids for H and He will be reduced by one unit

Total number of grid points                  ...   309804
Total number of batches                      ...     4877
Average number of points per batch           ...       63
Average number of grid points per atom       ...     4244

--------------------
COSX GRID GENERATION
--------------------

GRIDX 1
-------
General Integration Accuracy     IntAcc      ... 3.816
Radial Grid Type                 RadialGrid  ... OptM3 with GC (2021)
Angular Grid (max. ang.)         AngularGrid ... 1 (Lebedev-50)
Angular grid pruning method      GridPruning ... 4 (adaptive)
Weight generation scheme         WeightScheme... mBecke (2022)
Basis function cutoff            BFCut       ... 1.0000e-11
Integration weight cutoff        WCut        ... 1.0000e-14
Partially contracted basis set               ... on
Rotationally invariant grid construction     ... off
Angular grids for H and He will be reduced by one unit

Total number of grid points                  ...    39390
Total number of batches                      ...      351
Average number of points per batch           ...      112
Average number of grid points per atom       ...      540
UseSFitting                                  ... on

GRIDX 2
-------
General Integration Accuracy     IntAcc      ... 4.020
Radial Grid Type                 RadialGrid  ... OptM3 with GC (2021)
Angular Grid (max. ang.)         AngularGrid ... 2 (Lebedev-110)
Angular grid pruning method      GridPruning ... 4 (adaptive)
Weight generation scheme         WeightScheme... mBecke (2022)
Basis function cutoff            BFCut       ... 1.0000e-11
Integration weight cutoff        WCut        ... 1.0000e-14
Partially contracted basis set               ... on
Rotationally invariant grid construction     ... off
Angular grids for H and He will be reduced by one unit

Total number of grid points                  ...    81385
Total number of batches                      ...      672
Average number of points per batch           ...      121
Average number of grid points per atom       ...     1115
UseSFitting                                  ... on

GRIDX 3
-------
General Integration Accuracy     IntAcc      ... 4.338
Radial Grid Type                 RadialGrid  ... OptM3 with GC (2021)
Angular Grid (max. ang.)         AngularGrid ... 3 (Lebedev-194)
Angular grid pruning method      GridPruning ... 4 (adaptive)
Weight generation scheme         WeightScheme... mBecke (2022)
Basis function cutoff            BFCut       ... 1.0000e-11
Integration weight cutoff        WCut        ... 1.0000e-14
Partially contracted basis set               ... on
Rotationally invariant grid construction     ... off
Angular grids for H and He will be reduced by one unit

Total number of grid points                  ...   176166
Total number of batches                      ...     1421
Average number of points per batch           ...      123
Average number of grid points per atom       ...     2413
UseSFitting                                  ... on
Initializing property integral containers    ... done (  0.0 sec)

SHARK setup successfully completed in   3.5 seconds

Maximum memory used throughout the entire STARTUP-calculation: 85.9 MB


           ************************************************************
           *        Program running with 4 parallel MPI-processes     *
           *              working on a common directory               *
           ************************************************************
-------------------------------------------------------------------------------
                                 ORCA GUESS
                   Start orbitals & Density for SCF / CASSCF
-------------------------------------------------------------------------------

------------
SCF SETTINGS
------------
Hamiltonian:
 Density Functional     Method          .... DFT(GTOs)
 Exchange Functional    Exchange        .... PBE
   PBE kappa parameter   XKappa         ....  0.804000
   PBE mue parameter    XMuePBE         ....  0.219520
 Correlation Functional Correlation     .... PBE
   PBE beta parameter  CBetaPBE         ....  0.066725
 LDA part of GGA corr.  LDAOpt          .... PW91-LDA
 Gradients option       PostSCFGGA      .... off
 Hybrid DFT is turned on
   Fraction HF Exchange ScalHFX         ....  0.250000
   Scaling of DF-GGA-X  ScalDFX         ....  0.750000
   Scaling of DF-GGA-C  ScalDFC         ....  1.000000
   Scaling of DF-LDA-C  ScalLDAC        ....  1.000000
   Perturbative correction              ....  0.000000
   NL short-range parameter             ....  6.900000
 RI-approximation to the Coulomb term is turned on
   Number of AuxJ basis functions       .... 1905
   RIJ-COSX (HFX calculated with COS-X)).... on


General Settings:
 Integral files         IntName         .... inpJ
 Hartree-Fock type      HFTyp           .... RHF
 Total Charge           Charge          ....    0
 Multiplicity           Mult            ....    1
 Number of Electrons    NEL             ....  220
 Basis Dimension        Dim             ....  509
 Nuclear Repulsion      ENuc            ....   2802.0645554723 Eh

Convergence Acceleration:
 AO-DIIS                CNVDIIS         .... on
   Start iteration      DIISMaxIt       ....    12
   Startup error        DIISStart       ....  0.200000
   # of expansion vecs  DIISMaxEq       ....     5
   Bias factor          DIISBfac        ....   1.050
   Max. coefficient     DIISMaxC        ....  10.000
 MO-DIIS                CNVKDIIS        .... off
 Trust-Rad. Augm. Hess. CNVTRAH         .... auto
   Auto Start mean grad. ratio tolernc. ....  1.125000
   Auto Start start iteration           ....     1
   Auto Start num. interpolation iter.  ....    10
   Max. Number of Micro iterations      ....    24
   Max. Number of Macro iterations      .... Maxiter - #DIIS iter
   Number of Davidson start vectors     ....     2
   Converg. threshold    (grad. norm)   ....   1.000e-04
   Grad. Scal. Fac. for Micro threshold ....   0.100
   Minimum threshold for Micro iter.    ....   1.000e-02
   NR start threshold (gradient norm)   ....   1.000e-04
   Initial trust radius                 ....   0.400
   Minimum AH scaling param. (alpha)    ....   1.000
   Maximum AH scaling param. (alpha)    .... 1000.000
   Quad. conv. algorithm                .... NR
   White noise on init. David. guess    .... on
   Maximum white noise                  ....   0.010
   Pseudo random numbers                .... off
   Inactive MOs                         .... canonical
   Orbital update algorithm             .... Taylor
   Preconditioner                       .... Diag
   Full preconditioner red. dimension   ....   250
 SOSCF                  CNVSOSCF        .... off
 Level Shifting         CNVShift        .... on
   Level shift para.    LevelShift      ....    0.2500
   Turn off err/grad.   ShiftErr        ....    0.0010
 Zerner damping         CNVZerner       .... off
 Static damping         CNVDamp         .... on
   Fraction old density DampFac         ....    0.7000
   Max. Damping (<1)    DampMax         ....    0.9800
   Min. Damping (>=0)   DampMin         ....    0.0000
   Turn off err/grad.   DampErr         ....    0.1000

SCF Procedure:
 Maximum # iterations   MaxIter         ....   125
 SCF integral mode      SCFMode         .... Direct
   Integral package                     .... SHARK and LIBINT hybrid scheme
 Reset frequency        DirectResetFreq ....    20
 Integral Threshold     Thresh          ....  3.000e-11 Eh
 Primitive CutOff       TCut            ....  1.000e-12 Eh

Convergence Tolerance:
 Convergence Check Mode ConvCheckMode   .... Total+1el-Energy
 Convergence forced     ConvForced      .... 0
 Energy Change          TolE            ....  1.000e-07 Eh
 1-El. energy change                    ....  1.000e-04 Eh
 DIIS Error             TolErr          ....  1.000e-07

---------------------
INITIAL GUESS: MOREAD
---------------------
Guess MOs are being read from file: inpJ.ges
Input Geometry matches current geometry (good)
Input basis set matches current basis set (good)
Occupation numbers will be reassigned to an Aufbau configuration
MOs were renormalized
MOs were reorthogonalized (Cholesky)
                      ------------------
                      INITIAL GUESS DONE (   0.1 sec)
                      ------------------
             **** ENERGY FILE WAS UPDATED (inpJ.en.tmp) ****
Finished Guess after   0.2 sec
Maximum memory used throughout the entire GUESS-calculation: 36.9 MB


           ************************************************************
           *        Program running with 4 parallel MPI-processes     *
           *              working on a common directory               *
           ************************************************************

-------------------------------------------------------------------------------------------
                                      ORCA LEAN-SCF
                              memory conserving SCF solver
-------------------------------------------------------------------------------------------

--------------------
CPCM SOLVATION MODEL
--------------------
CPCM parameters:
  Epsilon                                         ...       4.8030
  Refrac                                          ...       1.4459
  Rsolv                                           ...       1.3000
  Surface type                                    ... GAUSSIAN VDW
  Discretization scheme                           ... Constant charge density
    Threshold for H atoms                         ...       5.0000 (charges/Ang^2)
    Threshold for non-H atoms                     ...       5.0000 (charges/Ang^2)
  Epsilon function type                           ...         CPCM
Solvent:                                          ... CHLOROFORM
Radii:
  Scheme                                          ... Element-dependent radii
  Radius for C  used is    3.8550 Bohr (=   2.0400 Ang.)
  Radius for H  used is    2.4944 Bohr (=   1.3200 Ang.)
  Radius for O  used is    3.4469 Bohr (=   1.8240 Ang.)
Calculating surface                               ...        done! (  0.0s)
Cavity surface points                             ...         5379
Cavity Volume                                     ...    3599.0006
Cavity Surface-area                               ...    1786.3901
Calculating surface distance matrix               ...        done! (  0.2s)
Performing Cholesky decomposition & store         ...        done! (  0.9s)
Overall time for CPCM initialization              ...                 1.2s

----------------------------------------D-I-I-S--------------------------------------------
Iteration    Energy (Eh)           Delta-E    RMSDP     MaxDP     DIISErr   Damp  Time(sec)
-------------------------------------------------------------------------------------------
               ***  Starting incremental Fock matrix formation  ***
    1    -1165.5109089177922215     0.00e+00  4.39e-08  5.24e-06  5.96e-06  0.700   6.3

  HOMO= 109 E= -6.018 eV LUMO=  5.939 eV gap=  11.957 eV
    2    -1165.5109089391180532    -2.13e-08  2.95e-08  3.13e-06  3.00e-06  0.700   2.0
                 **** Energy Check signals convergence ****

  HOMO= 109 E= -6.018 eV LUMO=  5.939 eV gap=  11.957 eV

               *****************************************************
               *                     SUCCESS                       *
               *           SCF CONVERGED AFTER   2 CYCLES          *
               *****************************************************

Recomputing exchange energy using gridx3       ... done (    8.332 sec)
Old exchange energy                            :    -42.067182931 Eh
New exchange energy                            :    -42.067227623 Eh
Exchange energy change after final integration :     -0.000044692 Eh
Total energy after final integration           :  -1165.510953631 Eh
             **** ENERGY FILE WAS UPDATED (inpJ.en.tmp) ****

----------------
TOTAL SCF ENERGY
----------------

Total Energy       :      -1165.51095363093600 Eh          -31715.16542 eV

Components:
Nuclear Repulsion  :       2802.06455547228279 Eh           76248.05293 eV
Electronic Energy  :      -3967.56199046331994 Eh         -107962.85049 eV
One Electron Energy:      -7145.87297676144772 Eh         -194449.08930 eV
Two Electron Energy:       3178.31098629812777 Eh           86486.23881 eV
CPCM Dielectric    :         -0.01347394808089 Eh              -0.36664 eV

Virial components:
Potential Energy   :      -2322.40484879557971 Eh          -63195.84875 eV
Kinetic Energy     :       1156.89389516464394 Eh           31480.68333 eV
Virial Ratio       :          2.00744844319977

DFT components:
N(Alpha)           :      110.000261403582 electrons
N(Beta)            :      110.000261403582 electrons
N(Total)           :      220.000522807163 electrons
E(X)               :     -125.744145000043 Eh       
E(C)               :       -7.328482465581 Eh       
E(XC)              :     -133.072627465623 Eh       

CPCM Solvation Model Properties:
Surface-charge          :         -0.03335722313268
Corrected charge        :          0.00000000000000
Outlying charge corr.   :          0.00003918998996 Eh               0.00107 eV
Free-energy (cav+disp)  :  This term is not implemented in the current solvation scheme

---------------
SCF CONVERGENCE
---------------

  Last Energy change         ...    2.1326e-08  Tolerance :   1.0000e-07
  Last MAX-Density change    ...    3.1309e-06  Tolerance :   1.0000e-05
  Last RMS-Density change    ...    2.9459e-08  Tolerance :   1.0000e-06
  Last DIIS Error            ...    3.0046e-06  Tolerance :   1.0000e-07


----------------
ORBITAL ENERGIES
----------------

  NO   OCC          E(Eh)            E(eV) 
   0   2.0000     -19.212454      -522.7975 
   1   2.0000     -10.300568      -280.2927 
   2   2.0000     -10.270578      -279.4766 
   3   2.0000     -10.268524      -279.4207 
   4   2.0000     -10.263888      -279.2946 
   5   2.0000     -10.257666      -279.1253 
   6   2.0000     -10.257250      -279.1140 
   7   2.0000     -10.252166      -278.9756 
   8   2.0000     -10.249899      -278.9139 
   9   2.0000     -10.248608      -278.8788 
  10   2.0000     -10.248228      -278.8685 
  11   2.0000     -10.247780      -278.8563 
  12   2.0000     -10.246196      -278.8132 
  13   2.0000     -10.244962      -278.7796 
  14   2.0000     -10.244840      -278.7763 
  15   2.0000     -10.244659      -278.7713 
  16   2.0000     -10.243147      -278.7302 
  17   2.0000     -10.242688      -278.7177 
  18   2.0000     -10.241861      -278.6952 
  19   2.0000     -10.241570      -278.6873 
  20   2.0000     -10.240232      -278.6509 
  21   2.0000     -10.234317      -278.4899 
  22   2.0000     -10.234159      -278.4856 
  23   2.0000     -10.233159      -278.4584 
  24   2.0000     -10.227334      -278.2999 
  25   2.0000     -10.226671      -278.2819 
  26   2.0000     -10.224577      -278.2249 
  27   2.0000     -10.221809      -278.1496 
  28   2.0000     -10.220900      -278.1248 
  29   2.0000      -1.043172       -28.3861 
  30   2.0000      -0.901760       -24.5381 
  31   2.0000      -0.882377       -24.0107 
  32   2.0000      -0.860556       -23.4169 
  33   2.0000      -0.846115       -23.0240 
  34   2.0000      -0.822642       -22.3852 
  35   2.0000      -0.814518       -22.1642 
  36   2.0000      -0.796049       -21.6616 
  37   2.0000      -0.795163       -21.6375 
  38   2.0000      -0.777428       -21.1549 
  39   2.0000      -0.758548       -20.6411 
  40   2.0000      -0.740884       -20.1605 
  41   2.0000      -0.736342       -20.0369 
  42   2.0000      -0.715414       -19.4674 
  43   2.0000      -0.703124       -19.1330 
  44   2.0000      -0.700826       -19.0704 
  45   2.0000      -0.696179       -18.9440 
  46   2.0000      -0.670720       -18.2512 
  47   2.0000      -0.657952       -17.9038 
  48   2.0000      -0.631028       -17.1711 
  49   2.0000      -0.622399       -16.9363 
  50   2.0000      -0.612667       -16.6715 
  51   2.0000      -0.607284       -16.5250 
  52   2.0000      -0.596863       -16.2415 
  53   2.0000      -0.578069       -15.7300 
  54   2.0000      -0.574547       -15.6342 
  55   2.0000      -0.543562       -14.7911 
  56   2.0000      -0.540542       -14.7089 
  57   2.0000      -0.529510       -14.4087 
  58   2.0000      -0.515434       -14.0257 
  59   2.0000      -0.510610       -13.8944 
  60   2.0000      -0.499832       -13.6011 
  61   2.0000      -0.488542       -13.2939 
  62   2.0000      -0.483472       -13.1559 
  63   2.0000      -0.480979       -13.0881 
  64   2.0000      -0.474566       -12.9136 
  65   2.0000      -0.465425       -12.6649 
  66   2.0000      -0.464821       -12.6484 
  67   2.0000      -0.459421       -12.5015 
  68   2.0000      -0.459096       -12.4926 
  69   2.0000      -0.451237       -12.2788 
  70   2.0000      -0.446298       -12.1444 
  71   2.0000      -0.443597       -12.0709 
  72   2.0000      -0.436358       -11.8739 
  73   2.0000      -0.433567       -11.7980 
  74   2.0000      -0.432864       -11.7788 
  75   2.0000      -0.422327       -11.4921 
  76   2.0000      -0.421725       -11.4757 
  77   2.0000      -0.415172       -11.2974 
  78   2.0000      -0.410181       -11.1616 
  79   2.0000      -0.402828       -10.9615 
  80   2.0000      -0.400605       -10.9010 
  81   2.0000      -0.396767       -10.7966 
  82   2.0000      -0.393986       -10.7209 
  83   2.0000      -0.391407       -10.6507 
  84   2.0000      -0.389503       -10.5989 
  85   2.0000      -0.381485       -10.3807 
  86   2.0000      -0.375457       -10.2167 
  87   2.0000      -0.373762       -10.1706 
  88   2.0000      -0.369713       -10.0604 
  89   2.0000      -0.362820        -9.8728 
  90   2.0000      -0.360944        -9.8218 
  91   2.0000      -0.357548        -9.7294 
  92   2.0000      -0.353145        -9.6096 
  93   2.0000      -0.345465        -9.4006 
  94   2.0000      -0.341227        -9.2853 
  95   2.0000      -0.339871        -9.2483 
  96   2.0000      -0.338901        -9.2220 
  97   2.0000      -0.333124        -9.0648 
  98   2.0000      -0.330994        -9.0068 
  99   2.0000      -0.328948        -8.9511 
 100   2.0000      -0.328446        -8.9375 
 101   2.0000      -0.323878        -8.8132 
 102   2.0000      -0.319405        -8.6915 
 103   2.0000      -0.316639        -8.6162 
 104   2.0000      -0.310686        -8.4542 
 105   2.0000      -0.300926        -8.1886 
 106   2.0000      -0.276597        -7.5266 
 107   2.0000      -0.275082        -7.4854 
 108   2.0000      -0.256651        -6.9838 
 109   2.0000      -0.221165        -6.0182 
 110   0.0000      -0.031756        -0.8641 
 111   0.0000       0.019199         0.5224 
 112   0.0000       0.027942         0.7604 
 113   0.0000       0.079625         2.1667 
 114   0.0000       0.087385         2.3779 
 115   0.0000       0.100650         2.7388 
 116   0.0000       0.103243         2.8094 
 117   0.0000       0.106894         2.9087 
 118   0.0000       0.109843         2.9890 
 119   0.0000       0.117058         3.1853 
 120   0.0000       0.118144         3.2149 
*Only the first 10 virtual orbitals were printed.

                    ********************************
                    * MULLIKEN POPULATION ANALYSIS *
                    ********************************

-----------------------
MULLIKEN ATOMIC CHARGES
-----------------------
   0 C :    0.077683
   1 C :   -0.500800
   2 C :   -0.073999
   3 H :    0.223048
   4 H :    0.219984
   5 C :    0.138420
   6 C :   -0.479491
   7 C :   -0.439878
   8 H :    0.225287
   9 H :    0.207521
  10 H :    0.208811
  11 H :    0.227901
  12 O :   -0.488229
  13 H :    0.247231
  14 C :   -0.280125
  15 C :   -0.513828
  16 H :    0.201103
  17 H :    0.196974
  18 C :   -0.258870
  19 H :    0.219866
  20 C :    0.152518
  21 H :    0.220771
  22 C :   -0.479892
  23 C :   -0.427953
  24 H :    0.211658
  25 H :    0.207087
  26 C :   -0.396784
  27 H :    0.208637
  28 H :    0.217522
  29 C :    0.003575
  30 H :    0.223050
  31 H :    0.194563
  32 C :   -0.229889
  33 H :    0.227815
  34 C :   -0.433995
  35 H :    0.341062
  36 C :   -0.419982
  37 H :    0.208135
  38 H :    0.198187
  39 C :   -0.198882
  40 H :    0.211599
  41 H :    0.205994
  42 H :    0.210168
  43 C :   -0.242512
  44 C :   -0.630328
  45 H :    0.205125
  46 H :    0.209813
  47 H :    0.202332
  48 H :    0.220199
  49 C :   -0.620286
  50 C :   -0.177043
  51 C :   -0.175728
  52 H :    0.210736
  53 H :    0.211540
  54 C :   -0.240167
  55 C :   -0.614644
  56 C :   -0.202718
  57 H :    0.212904
  58 H :    0.209155
  59 C :   -0.609416
  60 C :   -0.610566
  61 H :    0.193482
  62 H :    0.210220
  63 H :    0.206090
  64 H :    0.212725
  65 H :    0.189838
  66 H :    0.200454
  67 H :    0.208896
  68 H :    0.205533
  69 H :    0.191903
  70 H :    0.208679
  71 H :    0.195768
  72 H :    0.204446
Sum of atomic charges:   -0.0000000

--------------------------------
MULLIKEN REDUCED ORBITAL CHARGES
--------------------------------
  0 C s       :     3.354316  s :     3.354316
      pz      :     0.984905  p :     2.568001
      px      :     0.809440
      py      :     0.773656

  1 C s       :     3.377964  s :     3.377964
      pz      :     1.152196  p :     3.122837
      px      :     0.870954
      py      :     1.099686

  2 C s       :     3.312638  s :     3.312638
      pz      :     0.702890  p :     2.761360
      px      :     1.138958
      py      :     0.919512

  3 H s       :     0.776952  s :     0.776952

  4 H s       :     0.780016  s :     0.780016

  5 C s       :     3.341251  s :     3.341251
      pz      :     0.882171  p :     2.520329
      px      :     0.863916
      py      :     0.774242

  6 C s       :     3.367209  s :     3.367209
      pz      :     1.151071  p :     3.112282
      px      :     0.885141
      py      :     1.076070

  7 C s       :     3.338577  s :     3.338577
      pz      :     1.167729  p :     3.101301
      px      :     0.970552
      py      :     0.963020

  8 H s       :     0.774713  s :     0.774713

  9 H s       :     0.792479  s :     0.792479

 10 H s       :     0.791189  s :     0.791189

 11 H s       :     0.772099  s :     0.772099

 12 O s       :     3.685045  s :     3.685045
      pz      :     1.425573  p :     4.803184
      px      :     1.462614
      py      :     1.914997

 13 H s       :     0.752769  s :     0.752769

 14 C s       :     3.394301  s :     3.394301
      pz      :     0.977485  p :     2.885824
      px      :     0.824312
      py      :     1.084027

 15 C s       :     3.385009  s :     3.385009
      pz      :     0.984955  p :     3.128818
      px      :     0.994044
      py      :     1.149820

 16 H s       :     0.798897  s :     0.798897

 17 H s       :     0.803026  s :     0.803026

 18 C s       :     3.396572  s :     3.396572
      pz      :     1.009064  p :     2.862298
      px      :     0.763881
      py      :     1.089353

 19 H s       :     0.780134  s :     0.780134

 20 C s       :     3.351733  s :     3.351733
      pz      :     0.933227  p :     2.495749
      px      :     0.761208
      py      :     0.801314

 21 H s       :     0.779229  s :     0.779229

 22 C s       :     3.372941  s :     3.372941
      pz      :     1.123005  p :     3.106951
      px      :     1.101525
      py      :     0.882421

 23 C s       :     3.327601  s :     3.327601
      pz      :     1.119439  p :     3.100353
      px      :     0.885589
      py      :     1.095325

 24 H s       :     0.788342  s :     0.788342

 25 H s       :     0.792913  s :     0.792913

 26 C s       :     3.349568  s :     3.349568
      pz      :     1.162918  p :     3.047216
      px      :     0.971502
      py      :     0.912795

 27 H s       :     0.791363  s :     0.791363

 28 H s       :     0.782478  s :     0.782478

 29 C s       :     3.317724  s :     3.317724
      pz      :     0.873608  p :     2.678701
      px      :     0.904106
      py      :     0.900987

 30 H s       :     0.776950  s :     0.776950

 31 H s       :     0.805437  s :     0.805437

 32 C s       :     3.362386  s :     3.362386
      pz      :     1.100095  p :     2.867503
      px      :     0.862402
      py      :     0.905005

 33 H s       :     0.772185  s :     0.772185

 34 C s       :     3.343836  s :     3.343836
      pz      :     1.187250  p :     3.090159
      px      :     0.938904
      py      :     0.964005

 35 H s       :     0.658938  s :     0.658938

 36 C s       :     3.339048  s :     3.339048
      pz      :     1.178744  p :     3.080934
      px      :     0.926517
      py      :     0.975674

 37 H s       :     0.791865  s :     0.791865

 38 H s       :     0.801813  s :     0.801813

 39 C s       :     3.342505  s :     3.342505
      pz      :     1.085213  p :     2.856377
      px      :     0.860677
      py      :     0.910487

 40 H s       :     0.788401  s :     0.788401

 41 H s       :     0.794006  s :     0.794006

 42 H s       :     0.789832  s :     0.789832

 43 C s       :     3.348358  s :     3.348358
      pz      :     1.071403  p :     2.894153
      px      :     0.882330
      py      :     0.940420

 44 C s       :     3.366333  s :     3.366333
      pz      :     0.944661  p :     3.263994
      px      :     1.164611
      py      :     1.154722

 45 H s       :     0.794875  s :     0.794875

 46 H s       :     0.790187  s :     0.790187

 47 H s       :     0.797668  s :     0.797668

 48 H s       :     0.779801  s :     0.779801

 49 C s       :     3.348430  s :     3.348430
      pz      :     1.158850  p :     3.271856
      px      :     1.150163
      py      :     0.962844

 50 C s       :     3.342245  s :     3.342245
      pz      :     0.886134  p :     2.834799
      px      :     0.981407
      py      :     0.967258

 51 C s       :     3.343162  s :     3.343162
      pz      :     0.887344  p :     2.832566
      px      :     0.968471
      py      :     0.976751

 52 H s       :     0.789264  s :     0.789264

 53 H s       :     0.788460  s :     0.788460

 54 C s       :     3.337196  s :     3.337196
      pz      :     1.036239  p :     2.902971
      px      :     0.978106
      py      :     0.888626

 55 C s       :     3.343631  s :     3.343631
      pz      :     1.073434  p :     3.271013
      px      :     1.118460
      py      :     1.079119

 56 C s       :     3.310257  s :     3.310257
      pz      :     1.015961  p :     2.892461
      px      :     0.994669
      py      :     0.881831

 57 H s       :     0.787096  s :     0.787096

 58 H s       :     0.790845  s :     0.790845

 59 C s       :     3.341254  s :     3.341254
      pz      :     1.061856  p :     3.268162
      px      :     1.132236
      py      :     1.074070

 60 C s       :     3.341655  s :     3.341655
      pz      :     1.127202  p :     3.268911
      px      :     1.013218
      py      :     1.128491

 61 H s       :     0.806518  s :     0.806518

 62 H s       :     0.789780  s :     0.789780

 63 H s       :     0.793910  s :     0.793910

 64 H s       :     0.787275  s :     0.787275

 65 H s       :     0.810162  s :     0.810162

 66 H s       :     0.799546  s :     0.799546

 67 H s       :     0.791104  s :     0.791104

 68 H s       :     0.794467  s :     0.794467

 69 H s       :     0.808097  s :     0.808097

 70 H s       :     0.791321  s :     0.791321

 71 H s       :     0.804232  s :     0.804232

 72 H s       :     0.795554  s :     0.795554


------------------------
MULLIKEN OVERLAP CHARGES
------------------------
B(  0-C ,  1-C ) :   0.5248 B(  0-C ,  2-C ) :  -0.1804 B(  0-C ,  3-H ) :  -0.0794 
B(  0-C ,  4-H ) :  -0.0862 B(  0-C ,  5-C ) :   0.4158 B(  0-C ,  6-C ) :  -0.1419 
B(  0-C , 14-C ) :   0.9503 B(  0-C , 15-C ) :  -0.2022 B(  0-C , 18-C ) :  -0.1866 
B(  0-C , 19-H ) :  -0.0750 B(  1-C ,  2-C ) :   0.5266 B(  1-C ,  3-H ) :   0.8091 
B(  1-C ,  4-H ) :   0.7736 B(  1-C ,  5-C ) :  -0.1413 B(  1-C ,  7-C ) :  -0.1578 
B(  1-C , 12-O ) :  -0.1099 B(  1-C , 13-H ) :  -0.0571 B(  1-C , 14-C ) :  -0.1136 
B(  2-C ,  3-H ) :  -0.0590 B(  2-C ,  4-H ) :  -0.0537 B(  2-C ,  6-C ) :  -0.1580 
B(  2-C ,  7-C ) :   0.5149 B(  2-C , 10-H ) :  -0.0625 B(  2-C , 11-H ) :  -0.0697 
B(  2-C , 12-O ) :   0.6965 B(  2-C , 13-H ) :   0.8216 B(  2-C , 35-H ) :  -0.1152 
B(  5-C ,  6-C ) :   0.5305 B(  5-C ,  7-C ) :  -0.1577 B(  5-C ,  8-H ) :  -0.0729 
B(  5-C ,  9-H ) :  -0.0937 B(  5-C , 14-C ) :  -0.1988 B(  5-C , 15-C ) :   1.0625 
B(  5-C , 16-H ) :  -0.0995 B(  5-C , 17-H ) :  -0.0951 B(  6-C ,  7-C ) :   0.5526 
B(  6-C ,  8-H ) :   0.8228 B(  6-C ,  9-H ) :   0.7937 B(  6-C , 10-H ) :  -0.0741 
B(  6-C , 11-H ) :  -0.0561 B(  6-C , 15-C ) :  -0.1298 B(  7-C ,  9-H ) :  -0.0778 
B(  7-C , 10-H ) :   0.7763 B(  7-C , 11-H ) :   0.8044 B(  7-C , 12-O ) :  -0.1078 
B(  7-C , 13-H ) :  -0.0828 B( 12-O , 35-H ) :   0.6663 B( 14-C , 18-C ) :   0.6115 
B( 14-C , 19-H ) :   0.8214 B( 14-C , 20-C ) :  -0.1941 B( 14-C , 21-H ) :  -0.0743 
B( 15-C , 16-H ) :   0.8136 B( 15-C , 17-H ) :   0.8065 B( 18-C , 19-H ) :  -0.0600 
B( 18-C , 20-C ) :   0.9196 B( 18-C , 21-H ) :   0.8329 B( 18-C , 22-C ) :  -0.1507 
B( 18-C , 32-C ) :  -0.1496 B( 20-C , 21-H ) :  -0.0833 B( 20-C , 22-C ) :   0.5329 
B( 20-C , 23-C ) :  -0.1710 B( 20-C , 24-H ) :  -0.0675 B( 20-C , 25-H ) :  -0.0922 
B( 20-C , 29-C ) :  -0.1247 B( 20-C , 32-C ) :   0.5184 B( 20-C , 33-H ) :  -0.0919 
[...]
        0.0000         1.3616        0.0000
        0.0000         0.0000        1.3616

 Diagonalized JT*J matrix:
 
 J[55,60](FC)             1.362            1.362            1.362  iso=      1.362
                ---------------  ---------------  ---------------  ---------------
 J[55,60](Total)          1.362            1.362            1.362  iso=      1.362



-----------------------------------------------------------
 NUCLEUS A = C   56 NUCLEUS B = C   59 
 ( 13C  gnA =  1.405  13C  gnB =  1.405) r(AB) =     1.5309
-----------------------------------------------------------

Fermi-contact contribution to J (Hz):
       27.4792         0.0000        0.0000
        0.0000        27.4792        0.0000
        0.0000         0.0000       27.4792

Total spin-spin coupling tensor J (Hz):
       27.4792         0.0000        0.0000
        0.0000        27.4792        0.0000
        0.0000         0.0000       27.4792

 Diagonalized JT*J matrix:
 
 J[56,59](FC)            27.479           27.479           27.479  iso=     27.479
                ---------------  ---------------  ---------------  ---------------
 J[56,59](Total)         27.479           27.479           27.479  iso=     27.479



-----------------------------------------------------------
 NUCLEUS A = C   56 NUCLEUS B = C   60 
 ( 13C  gnA =  1.405  13C  gnB =  1.405) r(AB) =     1.5314
-----------------------------------------------------------

Fermi-contact contribution to J (Hz):
       26.7586         0.0000        0.0000
        0.0000        26.7586        0.0000
        0.0000         0.0000       26.7586

Total spin-spin coupling tensor J (Hz):
       26.7586         0.0000        0.0000
        0.0000        26.7586        0.0000
        0.0000         0.0000       26.7586

 Diagonalized JT*J matrix:
 
 J[56,60](FC)            26.759           26.759           26.759  iso=     26.759
                ---------------  ---------------  ---------------  ---------------
 J[56,60](Total)         26.759           26.759           26.759  iso=     26.759



-----------------------------------------------------------
 NUCLEUS A = C   59 NUCLEUS B = C   60 
 ( 13C  gnA =  1.405  13C  gnB =  1.405) r(AB) =     2.5062
-----------------------------------------------------------

Fermi-contact contribution to J (Hz):
       -0.9533         0.0000        0.0000
        0.0000        -0.9533        0.0000
        0.0000         0.0000       -0.9533

Total spin-spin coupling tensor J (Hz):
       -0.9533         0.0000        0.0000
        0.0000        -0.9533        0.0000
        0.0000         0.0000       -0.9533

 Diagonalized JT*J matrix:
 
 J[59,60](FC)            -0.953           -0.953           -0.953  iso=     -0.953
                ---------------  ---------------  ---------------  ---------------
 J[59,60](Total)         -0.953           -0.953           -0.953  iso=     -0.953



-----------------------------------------------------------------------------
                SUMMARY OF ISOTROPIC COUPLING CONSTANTS J (Hz)                
-----------------------------------------------------------------------------
                  0 C        1 C        2 C        5 C        6 C        7 C  
      0 C        0.000     33.170     -3.788     41.269     -0.910      2.275
      1 C       33.170      0.000     23.404     -1.224      1.447     -0.682
      2 C       -3.788     23.404      0.000      2.294     -2.790     25.924
      5 C       41.269     -1.224      2.294      0.000     30.440     -2.790
      6 C       -0.910      1.447     -2.790     30.440      0.000     24.812
      7 C        2.275     -0.682     25.924     -2.790     24.812      0.000
     14 C       69.337     -0.403      2.837     -3.003      2.175     -0.621
     15 C       -3.415      2.418     -0.873     64.610     -1.109      2.598
     18 C       -2.384      4.168     -1.113      3.204     -0.819      0.193
     20 C        6.823     -1.104      1.100     -1.378      0.608     -0.103
     22 C       -0.930      0.328     -0.334      0.422     -0.183      0.038
     23 C        0.807     -0.281      0.278     -0.334      0.151      0.000
     26 C       -0.090      0.038      0.000      0.047      0.000      0.000
     29 C        1.142     -0.359      0.000     -0.438      0.204      0.000
     32 C       -1.127      0.547     -0.380      0.471     -0.216      0.045
     34 C        0.020     -0.014      0.012     -0.014      0.006     -0.001
     36 C       -0.014      0.000      0.000      0.016     -0.008      0.000
     39 C       -0.071      0.000      0.000      0.030      0.000      0.000
     43 C        0.000      0.000      0.000      0.000      0.000      0.000
     44 C        0.013     -0.004      0.000     -0.004     -0.003      0.000
     49 C        0.000      0.000      0.000      0.000      0.000      0.000
     50 C        0.000      0.000      0.000      0.000      0.000      0.000
     51 C        0.000      0.000      0.000      0.000      0.000      0.000
     54 C        0.000      0.000      0.000      0.000      0.000      0.000
     55 C        0.000      0.000      0.000      0.000      0.000      0.000
     56 C        0.000      0.000      0.000      0.000      0.000      0.000
     59 C        0.000      0.000      0.000      0.000      0.000      0.000
     60 C        0.000      0.000      0.000      0.000      0.000      0.000
                 14 C       15 C       18 C       20 C       22 C       23 C  
      0 C       69.337     -3.415     -2.384      6.823     -0.930      0.807
      1 C       -0.403      2.418      4.168     -1.104      0.328     -0.281
      2 C        2.837     -0.873     -1.113      1.100     -0.334      0.278
      5 C       -3.003     64.610      3.204     -1.378      0.422     -0.334
      6 C        2.175     -1.109     -0.819      0.608     -0.183      0.151
      7 C       -0.621      2.598      0.193     -0.103      0.038      0.000
     14 C        0.000      3.108     54.071     -2.664      3.755     -0.898
     15 C        3.108      0.000     -1.139      1.011     -0.271      0.248
     18 C       54.071     -1.139      0.000     69.970     -2.163      2.361
     20 C       -2.664      1.011     69.970      0.000     32.110     -2.925
     22 C        3.755     -0.271     -2.163     32.110      0.000     24.373
     23 C       -0.898      0.248      2.361     -2.925     24.373      0.000
     26 C        0.131     -0.033     -0.352      1.042     -1.940     25.434
     29 C       -1.102      0.320      2.280     -2.400      1.079     -2.201
     32 C        4.389     -0.316     -1.270     36.915     -0.259      1.528
     34 C        0.077      0.003      2.480     -1.329      1.584     -0.263
     36 C        0.016     -0.014     -0.147      3.560      0.055      0.168
     39 C        0.258     -0.023     -0.039      2.927     -0.336      2.559
     43 C        0.007      0.017      0.281      0.175      0.003     -0.110
     44 C        0.002      0.027     -0.045      0.693     -0.138      0.612
     49 C       -0.001      0.000     -0.009     -0.034      0.138      0.037
     50 C        0.000      0.000      0.030      0.145     -0.009      0.139
     51 C        0.000      0.000     -0.006      0.044     -0.002     -0.007
     54 C        0.000      0.000      0.000      0.000      0.000      0.000
     55 C        0.000      0.000      0.000      0.000      0.000      0.000
     56 C        0.000      0.000      0.000      0.000      0.000      0.000
     59 C        0.000      0.000      0.000      0.000      0.000      0.000
     60 C        0.000      0.000      0.000      0.000      0.000      0.000
                 26 C       29 C       32 C       34 C       36 C       39 C  
      0 C       -0.090      1.142     -1.127      0.020     -0.014     -0.071
      1 C        0.038     -0.359      0.547     -0.014      0.000      0.000
      2 C        0.000      0.000     -0.380      0.012      0.000      0.000
      5 C        0.047     -0.438      0.471     -0.014      0.016      0.030
      6 C        0.000      0.204     -0.216      0.006     -0.008      0.000
      7 C        0.000      0.000      0.045     -0.001      0.000      0.000
     14 C        0.131     -1.102      4.389      0.077      0.016      0.258
     15 C       -0.033      0.320     -0.316      0.003     -0.014     -0.023
     18 C       -0.352      2.280     -1.270      2.480     -0.147     -0.039
     20 C        1.042     -2.400     36.915     -1.329      3.560      2.927
     22 C       -1.940      1.079     -0.259      1.584      0.055     -0.336
     23 C       25.434     -2.201      1.528     -0.263      0.168      2.559
     26 C        0.000     27.827     -0.943      2.300      3.032     -0.575
     29 C       27.827      0.000     23.222      0.996      0.537     28.939
     32 C       -0.943     23.222      0.000     27.895      1.361      3.498
     34 C        2.300      0.996     27.895      0.000     25.828      0.029
     36 C        3.032      0.537      1.361     25.828      0.000     26.293
     39 C       -0.575     28.939      3.498      0.029     26.293      0.000
     43 C       -0.008     -0.698      2.696      1.608      0.214     30.417
     44 C       -0.560     27.329     -0.933      0.859      0.229     -1.242
     49 C        0.361      0.221      0.001     -0.003      3.215     -1.043
     50 C       -0.091      3.370      0.009     -0.059      0.528     -1.626
     51 C        0.017     -0.102      0.042      0.011      0.093      2.046
     54 C        0.004      0.023     -0.003      0.000      0.038     -0.174
     55 C        0.002     -0.031      0.004      0.004     -0.044      0.065
     56 C       -0.000     -0.000      0.001      0.004     -0.013      0.050
     59 C        0.001      0.020      0.008      0.009      0.019      0.030
     60 C        0.000      0.000      0.000      0.003      0.013      0.003
                 43 C       44 C       49 C       50 C       51 C       54 C  
      0 C        0.000      0.013      0.000      0.000      0.000      0.000
      1 C        0.000     -0.004      0.000      0.000      0.000      0.000
      2 C        0.000      0.000      0.000      0.000      0.000      0.000
      5 C        0.000     -0.004      0.000      0.000      0.000      0.000
      6 C        0.000     -0.003      0.000      0.000      0.000      0.000
      7 C        0.000      0.000      0.000      0.000      0.000      0.000
     14 C        0.007      0.002     -0.001      0.000      0.000      0.000
     15 C        0.017      0.027      0.000      0.000      0.000      0.000
     18 C        0.281     -0.045     -0.009      0.030     -0.006      0.000
     20 C        0.175      0.693     -0.034      0.145      0.044      0.000
     22 C        0.003     -0.138      0.138     -0.009     -0.002      0.000
     23 C       -0.110      0.612      0.037      0.139     -0.007      0.000
     26 C       -0.008     -0.560      0.361     -0.091      0.017      0.004
     29 C       -0.698     27.329      0.221      3.370     -0.102      0.023
     32 C        2.696     -0.933      0.001      0.009      0.042     -0.003
     34 C        1.608      0.859     -0.003     -0.059      0.011      0.000
     36 C        0.214      0.229      3.215      0.528      0.093      0.038
     39 C       30.417     -1.242     -1.043     -1.626      2.046     -0.174
     43 C        0.000      1.524     25.007     35.356     -1.729      3.739
     44 C        1.524      0.000     -0.070     -0.152      0.127      0.023
     49 C       25.007     -0.070      0.000     -3.439      3.489     -1.016
     50 C       35.356     -0.152     -3.439      0.000     68.800     -0.651
     51 C       -1.729      0.127      3.489     68.800      0.000     36.740
     54 C        3.739      0.023     -1.016     -0.651     36.740      0.000
     55 C       -0.701      0.021      1.499      3.660     -2.735     26.584
     56 C       -0.518      0.018      1.039      3.213     -1.673     26.264
     59 C       -0.030     -0.001      0.050     -0.006      0.696     -0.469
     60 C        0.091      0.000      0.006      0.121      3.456     -0.563
                 55 C       56 C       59 C       60 C  
      0 C        0.000      0.000      0.000      0.000
      1 C        0.000      0.000      0.000      0.000
      2 C        0.000      0.000      0.000      0.000
      5 C        0.000      0.000      0.000      0.000
      6 C        0.000      0.000      0.000      0.000
      7 C        0.000      0.000      0.000      0.000
     14 C        0.000      0.000      0.000      0.000
     15 C        0.000      0.000      0.000      0.000
     18 C        0.000      0.000      0.000      0.000
     20 C        0.000      0.000      0.000      0.000
     22 C        0.000      0.000      0.000      0.000
     23 C        0.000      0.000      0.000      0.000
     26 C        0.002     -0.000      0.001      0.000
     29 C       -0.031     -0.000      0.020      0.000
     32 C        0.004      0.001      0.008      0.000
     34 C        0.004      0.004      0.009      0.003
     36 C       -0.044     -0.013      0.019      0.013
     39 C        0.065      0.050      0.030      0.003
     43 C       -0.701     -0.518     -0.030      0.091
     44 C        0.021      0.018     -0.001      0.000
     49 C        1.499      1.039      0.050      0.006
     50 C        3.660      3.213     -0.006      0.121
     51 C       -2.735     -1.673      0.696      3.456
     54 C       26.584     26.264     -0.469     -0.563
     55 C        0.000     -1.125      2.689      1.362
     56 C       -1.125      0.000     27.479     26.759
     59 C        2.689     27.479      0.000     -0.953
     60 C        1.362     26.759     -0.953      0.000

NMR spin-spin coupling calculation done in   0.3 sec 

Maximum memory used throughout the entire PROP-calculation: 34.4 MB

--------------------------------
SUGGESTED CITATIONS FOR THIS RUN
--------------------------------

Below you find a list of papers that are relevant to this ORCA run
We neither can nor want to force you to cite these papers, but we appreciate if you do
You receive ORCA, which is the product of decades of hard work by many enthusiastic individuals, for free
The only thing we kindly ask in return is that you cite our papers,
We deeply appreciate it, if you show your appreciation for ORCA by not just citing the generic ORCA reference.

Please note that relegating all ORCA citations to the supporting information does *not* help us.
SI sections are not indexed - citations you put there will not count into any citation statistics
But we need these citations in order to attract the funding resources that allow us to do what we are doing

Therefore, if you are a happy ORCA user, please consider citing a few of the papers listed below in the main body of your paper

In addition to the list printed below, the program has created the file inpJ.bibtex that contains the list in bibtex format
You can import this file easily into all common literature databanks and citation aid programs


List of essential papers. We consider these as the minimum necessary citations

  1. Neese,F.
     Software update: the ORCA program system, version 5.0
     WIRES Comput. Molec. Sci., 2022 12(1)e1606
     doi.org/10.1002/wcms.1606

List of papers to cite with high priority. The work reported in these papers was absolutely
necessary for this run to complete.
Our perspective: the developers of density functionals and basis sets usually get cited in chemistry papers
Good! But without the algorithms to do something with them, the functionals or basis sets would not do anything.
Hence, in our opinion, the algorithm design and method developments papers are equally worthy of getting cited

  1. Neese,F.
     An improvement of the resolution of the identity approximation for the formation of the Coulomb matrix
     J. Comp. Chem., 2003 24(14)1740-1747
     doi.org/10.1002/jcc.10318
  2. Neese,F.; Wennmohs,F.; Hansen,A.; Becker,U.
     Efficient, approximate and parallel Hartree-Fock and hybrid DFT calculations. A 'chain-of-spheres' algorithm for the Hartree-Fock exchange
     Chem. Phys., 2009 356(1-3)98-109
     doi.org/10.1016/j.chemphys.2008.10.036
  3. Stoychev,G.L.; Auer,A.A.; Izsak,R.; Neese,F.
     Self-Consistent Field Calculation of Nuclear Magnetic Resonance Chemical Shielding Constants Using Gauge-Including Atomic Orbitals and Approximate Two-Electron Integrals
     J. Chem. Theory Comput., 2018 14(2)619-637
     doi.org/10.1021/acs.jctc.7b01006
  4. Garcia-Rates,M.; Neese,F.
     Effect of the Solute Cavity on the Solvation Energy and its Derivatives within the Framework of the Gaussian Charge Scheme
     J. Comput. Chem., 2020 41 922-939
     doi.org/10.1002/jcc.26139
  5. Helmich-Paris,B.; de Souza,B.; Neese,F.; Izsák,R.
     An improved chain of spheres for exchange algorithm
     J. Chem. Phys., 2021 155 104109
     doi.org/doi: 10.1063/5.0058766.
  6. Neese,F.
     The SHARK Integral Generation and Digestion System
     J. Comp. Chem., 2022  1-16
     doi.org/10.1002/jcc.26942
  7. Grimme,S.; Bannwarth,C.; Dohm,S.; Hansen,A.; Pisarek,J.; Pracht,P.; Seibert,J.; Neese,F.
     Fully Automated Quantum-Chemistry-Based Computation of Spin-Spin-Coupled Nuclear Magnetic Resonance Spectra
     Angew. Chem., Int. Ed., 2017 56 14763-14769
     doi.org/10.1002/anie.201708266
  8. Caldeweyher,E.; Bannwarth,C.; Grimme,S.
     Extension of the D3 dispersion coefficient model
     J. Chem. Phys., 2017 147 034112-XXXX
     doi.org/10.1063/1.4993215
  9. Caldeweyher,E.; Ehlert,S.; Hansen,A.; Neugebauer,H.; Spicher,S.; Bannwarth,C.; Grimme,S.
     A generally applicable atomic-charge dependent London dispersion correction
     J. Chem. Phys., 2019 150 154122-XXXX
     doi.org/10.1063/1.5090222
 10. Caldeweyher,E.; Mewes,J.; Ehlert,S.; Grimme,S.
     Extension and evaluation of the D4 London-dispersion model for periodic systems
     Phys. Chem. Chem. Phys., 2020 22(16)8499-8512
     doi.org/10.1039/D0CP00502A

List of suggested additional citations. These are papers that are important in the 'surrounding' of 
of this run, or papers that preceded the highly important papers. If you like your results we are grateful for a citation.

  1. Izsak,R.; Neese,F.
     An overlap fitted chain of spheres exchange method
     J. Chem. Phys., 2011 135 144105
     doi.org/10.1063/1.3646921
  2. Izsak,R.; Hansen,A.; Neese,F.
     The resolution of identity and chain of spheres approximations for the LPNO-CCSD singles Fock term
     Molec. Phys., 2012 110 2413-2417
     doi.org/10.1080/00268976.2012.687466
  3. Neese,F.
     The ORCA program system
     WIRES Comput. Molec. Sci., 2012 2(1)73-78
     doi.org/10.1002/wcms.81
  4. Izsak,R.; Neese,F.; Klopper,W.
     Robust fitting techniques in the chain of spheres approximation to the Fock exchange: The role of the complementary space
     J. Chem. Phys., 2013 139 
     doi.org/10.1063/1.4819264
  5. Neese,F.
     Software update: the ORCA program system, version 4.0
     WIRES Comput. Molec. Sci., 2018 8(1)1-6
     doi.org/10.1002/wcms.1327
  6. Neese,F.; Wennmohs,F.; Becker,U.; Riplinger,C.
     The ORCA quantum chemistry program package
     J. Chem. Phys., 2020 152 Art. No. L224108
     doi.org/10.1063/5.0004608

Timings for individual modules:

Sum of individual times          ...      136.605 sec (=   2.277 min)
Startup calculation              ...        3.690 sec (=   0.062 min)   2.7 %
SCF iterations                   ...       18.979 sec (=   0.316 min)  13.9 %
Property integrals               ...        0.632 sec (=   0.011 min)   0.5 %
SCF Response                     ...      112.781 sec (=   1.880 min)  82.6 %
Property calculations            ...        0.524 sec (=   0.009 min)   0.4 %
                             ****ORCA TERMINATED NORMALLY****
TOTAL RUN TIME: 0 days 0 hours 2 minutes 16 seconds 892 msec
