
                                 *****************
                                 * O   R   C   A *
                                 *****************

                                            #,                                       
                                            ###                                      
                                            ####                                     
                                            #####                                    
                                            ######                                   
                                           ########,                                 
                                     ,,################,,,,,                         
                               ,,#################################,,                 
                          ,,##########################################,,             
                       ,#########################################, ''#####,          
                    ,#############################################,,   '####,        
                  ,##################################################,,,,####,       
                ,###########''''           ''''###############################       
              ,#####''   ,,,,##########,,,,          '''####'''          '####       
            ,##' ,,,,###########################,,,                        '##       
           ' ,,###''''                  '''############,,,                           
         ,,##''                                '''############,,,,        ,,,,,,###''
      ,#''                                            '''#######################'''  
     '                                                          ''''####''''         
             ,#######,   #######,   ,#######,      ##                                
            ,#'     '#,  ##    ##  ,#'     '#,    #''#        ,####,   ,####,        
            ##       ##  ##   ,#'  ##            #'  '#       #'       #'  '#        
            ##       ##  #######   ##           ,######,      #####,   #    #        
            '#,     ,#'  ##    ##  '#,     ,#' ,#      #,     #,   #   #,  ,#        
             '#######'   ##     ##  '#######'  #'      '#     '####' # '####'        



                #########################################################
                #                        -***-                          #
                #          Department of theory and spectroscopy        #
                #                                                       #
                #                      Frank Neese                      #
                #                                                       #
                #     Directorship, Architecture, Infrastructure        #
                #                    SHARK, DRIVERS                     #
                #        Core code/Algorithms in most modules           #
                #                                                       #
                #        Max Planck Institute fuer Kohlenforschung      #
                #                Kaiser Wilhelm Platz 1                 #
                #                 D-45470 Muelheim/Ruhr                 #
                #                      Germany                          #
                #                                                       #
                #                  All rights reserved                  #
                #                        -***-                          #
                #########################################################


                         Program Version 6.0.0  -   RELEASE  -


 With contributions from (in alphabetic order):
   Daniel Aravena         : Magnetic Suceptibility
   Michael Atanasov       : Ab Initio Ligand Field Theory (pilot matlab implementation)
   Alexander A. Auer      : GIAO ZORA, VPT2 properties, NMR spectrum
   Ute Becker             : All parallelization in ORCA, NUMFREQ, NUMCALC
   Giovanni Bistoni       : ED, misc. LED, open-shell LED, HFLD
   Martin Brehm           : Molecular dynamics
   Dmytro Bykov           : pre 5.0 version of the SCF Hessian
   Marcos Casanova-Páez   : Triplet and SCS-CIS(D). UHF-(DLPNO)-IP/EA/STEOM-CCSD. UHF-CVS-IP/STEOM-CCSD
   Vijay G. Chilkuri      : MRCI spin determinant printing, contributions to CSF-ICE
   Pauline Colinet        : FMM embedding
   Dipayan Datta          : RHF DLPNO-CCSD density
   Achintya Kumar Dutta   : EOM-CC, STEOM-CC
   Nicolas Foglia         : Exact transition moments, OPA infrastructure, MCD improvements
   Dmitry Ganyushin       : Spin-Orbit,Spin-Spin,Magnetic field MRCI
   Miquel Garcia          : C-PCM and meta-GGA Hessian, CCSD/C-PCM, Gaussian charge scheme
   Tiago L. C. Gouveia    : GS-ROHF, GS-ROCIS
   Yang Guo               : DLPNO-NEVPT2, F12-NEVPT2, CIM, IAO-localization
   Andreas Hansen         : Spin unrestricted coupled pair/coupled cluster methods
   Ingolf Harden          : AUTO-CI MPn and infrastructure 
   Benjamin Helmich-Paris : MC-RPA, TRAH-(SCF,CASSCF), AVAS, COSX integrals, SCF dyn. polar.
   Lee Huntington         : MR-EOM, pCC
   Robert Izsak           : Overlap fitted RIJCOSX, COSX-SCS-MP3, EOM
   Riya Kayal             : Wick's Theorem for AUTO-CI, AUTO-CI UHF-CCSDT
   Emily Kempfer          : AUTO-CI, RHF CISDT and CCSDT
   Christian Kollmar      : KDIIS, OOCD, Brueckner-CCSD(T), CCSD density, CASPT2, CASPT2-K, improved NEVPT2
   Axel Koslowski         : Symmetry handling
   Simone Kossmann        : Meta GGA functionals, TD-DFT gradient, OOMP2, (MP2 Hessian; deprecated post 5.0)
   Lucas Lang             : DCDCAS
   Marvin Lechner         : AUTO-CI (C++ implementation), FIC-MRCC
   Spencer Leger          : CASSCF response
   Dagmar Lenk            : GEPOL surface, SMD, ORCA-2-JSON
   Dimitrios Liakos       : Extrapolation schemes; Compound Job, initial MDCI parallelization
   Dimitrios Manganas     : Further ROCIS development; embedding schemes. LFT, Crystal Embedding
   Dimitrios Pantazis     : SARC Basis sets
   Anastasios Papadopoulos: AUTO-CI, single reference methods and gradients
   Taras Petrenko         : pre 6.0 DFT Hessian and TD-DFT gradient, (ASA, deprecated), ECA, 1-Electron XAS/XES, NRVS
   Peter Pinski           : DLPNO-MP2, DLPNO-MP2 Gradient
   Christoph Reimann      : Effective Core Potentials
   Marius Retegan         : Local ZFS, SOC
   Christoph Riplinger    : Optimizer, TS searches, QM/MM, DLPNO-CCSD(T), (RO)-DLPNO pert. Triples
   Michael Roemelt        : Original ROCIS implementation
   Masaaki Saitow         : Open-shell DLPNO-CCSD energy and density
   Barbara Sandhoefer     : DKH picture change effects
   Kantharuban Sivalingam : CASSCF convergence/infrastructure, NEVPT2 and variants, FIC-MRCI
   Bernardo de Souza      : ESD, SOC TD-DFT
   Georgi Stoychev        : AutoAux, RI-MP2 NMR, DLPNO-MP2 response, X2C
   Van Anh Tran           : RI-MP2 g-tensors
   Willem Van den Heuvel  : Paramagnetic NMR
   Zikuan Wang            : NOTCH, Electric field optimization 
   Frank Wennmohs         : Technical directorship and infrastructure
   Hang Xu                : AUTO-CI-Response properties 


 We gratefully acknowledge several colleagues who have allowed us to
 interface, adapt or use parts of their codes:
   Stefan Grimme, W. Hujo, H. Kruse, P. Pracht,  : VdW corrections, initial TS optimization,
                  C. Bannwarth, S. Ehlert,         DFT functionals, gCP, sTDA/sTD-DF
                  L. Wittmann, M. Mueller
   Ed Valeev, F. Pavosevic, A. Kumar             : LibInt (2-el integral package), F12 methods
   Garnet Chan, S. Sharma, J. Yang, R. Olivares  : DMRG
   Ulf Ekstrom                                   : XCFun DFT Library
   Mihaly Kallay                                 : mrcc  (arbitrary order and MRCC methods)
   Frank Weinhold                                : gennbo (NPA and NBO analysis)
   Simon Mueller                                 : openCOSMO-RS
   Christopher J. Cramer and Donald G. Truhlar   : smd solvation model
   Lars Goerigk                                  : TD-DFT with DH, B97 family of functionals
   V. Asgeirsson, H. Jonsson                     : NEB implementation
   FAccTs GmbH                                   : IRC, NEB, NEB-TS, DLPNO-Multilevel, CI-OPT
                                                   MM, QMMM, 2- and 3-layer-ONIOM, Crystal-QMMM,
                                                   LR-CPCM, SF, NACMEs, symmetry and pop. for TD-DFT,
                                                   nearIR, NL-DFT gradient (VV10), updates on ESD,
                                                   ML-optimized integration grids, MBIS, APM,
                                                   GOAT, DOCKER, SOLVATOR, interface openCOSMO-RS
   S Lehtola, MJT Oliveira, MAL Marques          : LibXC Library
   Liviu Ungur et al                             : ANISO software


 Your calculation uses the libint2 library for the computation of 2-el integrals
 For citations please refer to: http://libint.valeyev.net

 Your ORCA version has been built with support for libXC version: 6.2.2
 For citations please refer to: https://libxc.gitlab.io

 This ORCA versions uses:
   CBLAS   interface :  Fast vector & matrix operations
   LAPACKE interface :  Fast linear algebra routines
   SCALAPACK package :  Parallel linear algebra routines
   Shared memory     :  Shared parallel matrices
   BLAS/LAPACK       :  OpenBLAS 0.3.27  USE64BITINT DYNAMIC_ARCH NO_AFFINITY Zen SINGLE_THREADED
        Core in use  :  Zen
   Copyright (c) 2011-2014, The OpenBLAS Project


NOTE: MaxCore=8000 MB was set to SCF,MP2,MDCI,CIPSI,MRCI and CIS
      => If you want to overwrite this, your respective input block should be placed after the MaxCore statement
Your calculation utilizes the atom-pairwise dispersion correction
based on EEQ partial charges (D4)


================================================================================

----- Orbital basis set information -----
Your calculation utilizes the basis: pcJ-0
   F. Jensen, Theor. Chem. Acc. 126, 371 (2010).

----- AuxJ basis set information -----
Your calculation utilizes the auxiliary basis: def2/J
   F. Weigend, Phys. Chem. Chem. Phys. 8, 1057 (2006).

================================================================================
                                        WARNINGS
                       Please study these warnings very carefully!
================================================================================

WARNING: Old DensityContainer found on disk!
         Will remove this file - 
         If you want to keep old densities, please start your calculation with a different basename. 


================================================================================
                                       INPUT FILE
================================================================================
NAME = inpJ
|  1> ! pbe0
|  2> ! D4
|  3> ! pcJ-0
|  4> ! def2/J RIJCOSX
|  5> ! DEFGRID2
|  6> ! scfconv7
|  7> ! smallprint printgap noloewdin
|  8> ! NOSOSCF
|  9> %MaxCore 8000
| 10> %output
| 11>        print[P_BondOrder_M] 1
| 12>        print[P_Mayer] 1
| 13>        print[P_basis] 2
| 14> end
| 15> %pal
| 16>     nprocs 4
| 17> end
| 18> ! CPCM(chloroform)
| 19> *xyz 0 1
| 20> C   -5.0429603200   0.2942386700   0.3052534600
| 21> C   -6.4478552300  -0.1258585000  -0.0573056400
| 22> C   -6.9773517800   0.6488087600  -1.2703459000
| 23> H   -7.1235832500   0.0896026400   0.7878189300
| 24> H   -6.4913661800  -1.2027530200  -0.2538933200
| 25> C   -4.8629889900   1.7557863800   0.4370393000
| 26> C   -5.4366425100   2.5613805300  -0.7067490900
| 27> C   -6.8810505300   2.1501745900  -1.0230105800
| 28> H   -4.8209579800   2.3814041600  -1.6011295800
| 29> H   -5.3804519100   3.6315746700  -0.4814042800
| 30> H   -7.2466541300   2.6935943300  -1.9022673800
| 31> H   -7.5330635600   2.4098739300  -0.1753537400
| 32> O   -8.3137575200   0.2473266600  -1.5993381300
| 33> H   -6.3780711800   0.3851795100  -2.1530506100
| 34> C   -4.0558413600  -0.6228304900   0.4402252900
| 35> C   -4.2842738100   2.3341262300   1.4956082400
| 36> H   -3.9006550600   1.7443455900   2.3234540500
| 37> H   -4.1918087600   3.4156696800   1.5606462900
| 38> C   -2.6594891800  -0.3498957900   0.6895722500
| 39> H   -4.3459214100  -1.6640668600   0.3062094700
| 40> C   -1.6868938400  -1.2646974700   0.8913936400
| 41> H   -2.3749718400   0.6997226000   0.7020408700
| 42> C   -1.8808150400  -2.7586600200   0.9514142700
| 43> C   -0.9308709600  -3.4970068700  -0.0106283200
| 44> H   -2.9150374900  -3.0521052100   0.7517151600
| 45> H   -1.6508714400  -3.0858957200   1.9780912300
| 46> C    0.5326053900  -3.0648742400   0.1552914000
| 47> H   -1.2559603700  -3.3163062300  -1.0430229200
| 48> H   -1.0161536400  -4.5774966200   0.1582217400
| 49> C    0.6948167700  -1.5430893300   0.0379186700
| 50> H    1.1445187600  -3.5897822000  -0.5856266200
| 51> H    0.8916942300  -3.3772316900   1.1475951000
| 52> C   -0.2507757500  -0.8896978500   1.0951825600
| 53> H    0.0549767600  -1.3431949100   2.0563056500
| 54> C    0.1841600800   0.5721404200   1.1318437200
| 55> H   -8.8781331200   0.4689023400  -0.8465525900
| 56> C    1.7180377700   0.4976930600   0.9354758400
| 57> H   -0.1029387600   1.0647207700   2.0668597600
| 58> H   -0.2798723600   1.1354197800   0.3144878900
| 59> C    2.0572346200  -0.9624826000   0.5096147300
| 60> H    2.2591770100   0.7669660700   1.8480573400
| 61> H    2.0491331000   1.2009171200   0.1622064200
| 62> H    2.3426118000  -1.5318841000   1.4094517800
| 63> C    3.2595265400  -1.0053631100  -0.4553432100
| 64> C    0.3544418600  -1.0587124400  -1.3780294600
| 65> H   -0.7076187500  -1.1953922100  -1.6037671100
| 66> H    0.9324798800  -1.6130027000  -2.1256984800
| 67> H    0.5808765300   0.0046082300  -1.5055153900
| 68> H    3.0061589300  -0.4165666200  -1.3495003500
| 69> C    3.6377253700  -2.4280951300  -0.8944894600
| 70> C    4.4530864100  -0.3602071300   0.2002158600
| 71> C    5.0912878500   0.7125484600  -0.2667012700
| 72> H    4.7997393700  -0.8484366000   1.1138180900
| 73> H    4.7117579300   1.1761564000  -1.1820144500
| 74> C    6.2955394600   1.3938166800   0.3286308900
| 75> C    6.8453855300   0.6913598200   1.5693284400
| 76> C    5.9926277100   2.9028189300   0.5515537000
| 77> H    7.0828977700   1.3667051000  -0.4441801300
| 78> H    5.5687076800   3.2681009600  -0.3966256000
| 79> C    7.2625707500   3.7109278500   0.8286989600
| 80> C    4.9516790800   3.1372333100   1.6478542000
| 81> H    7.1316334900  -0.3390037100   1.3336161700
| 82> H    6.1051026500   0.6537331900   2.3756082100
| 83> H    7.7335651000   1.2043319100   1.9492160900
| 84> H    7.0384071200   4.7833808100   0.8424654000
| 85> H    8.0249829700   3.5332611100   0.0613974200
| 86> H    7.6939166900   3.4545845500   1.8028640500
| 87> H    5.3495038600   2.8696404500   2.6336823300
| 88> H    4.0483072700   2.5430366500   1.4736427500
| 89> H    4.6641897600   4.1938588400   1.6846501900
| 90> H    4.5686527800  -2.4112359700  -1.4712054200
| 91> H    2.8630928900  -2.8778403200  -1.5206891900
| 92> H    3.7902939300  -3.0758858600  -0.0225012000
| 93> *
| 94> %eprnmr
| 95>  Nuclei = all C { ssfc }
| 96>  SpinSpinRThresh 8.0
| 97> end
| 98> 
| 99>                          ****END OF INPUT****
================================================================================

                       ****************************
                       * Single Point Calculation *
                       ****************************

---------------------------------
CARTESIAN COORDINATES (ANGSTROEM)
---------------------------------
  C     -5.042960    0.294239    0.305253
  C     -6.447855   -0.125859   -0.057306
  C     -6.977352    0.648809   -1.270346
  H     -7.123583    0.089603    0.787819
  H     -6.491366   -1.202753   -0.253893
  C     -4.862989    1.755786    0.437039
  C     -5.436643    2.561381   -0.706749
  C     -6.881051    2.150175   -1.023011
  H     -4.820958    2.381404   -1.601130
  H     -5.380452    3.631575   -0.481404
  H     -7.246654    2.693594   -1.902267
  H     -7.533064    2.409874   -0.175354
  O     -8.313758    0.247327   -1.599338
  H     -6.378071    0.385180   -2.153051
  C     -4.055841   -0.622830    0.440225
  C     -4.284274    2.334126    1.495608
  H     -3.900655    1.744346    2.323454
  H     -4.191809    3.415670    1.560646
  C     -2.659489   -0.349896    0.689572
  H     -4.345921   -1.664067    0.306209
  C     -1.686894   -1.264697    0.891394
  H     -2.374972    0.699723    0.702041
  C     -1.880815   -2.758660    0.951414
  C     -0.930871   -3.497007   -0.010628
  H     -2.915037   -3.052105    0.751715
  H     -1.650871   -3.085896    1.978091
  C      0.532605   -3.064874    0.155291
  H     -1.255960   -3.316306   -1.043023
  H     -1.016154   -4.577497    0.158222
  C      0.694817   -1.543089    0.037919
  H      1.144519   -3.589782   -0.585627
  H      0.891694   -3.377232    1.147595
  C     -0.250776   -0.889698    1.095183
  H      0.054977   -1.343195    2.056306
  C      0.184160    0.572140    1.131844
  H     -8.878133    0.468902   -0.846553
  C      1.718038    0.497693    0.935476
  H     -0.102939    1.064721    2.066860
  H     -0.279872    1.135420    0.314488
  C      2.057235   -0.962483    0.509615
  H      2.259177    0.766966    1.848057
  H      2.049133    1.200917    0.162206
  H      2.342612   -1.531884    1.409452
  C      3.259527   -1.005363   -0.455343
  C      0.354442   -1.058712   -1.378029
  H     -0.707619   -1.195392   -1.603767
  H      0.932480   -1.613003   -2.125698
  H      0.580877    0.004608   -1.505515
  H      3.006159   -0.416567   -1.349500
  C      3.637725   -2.428095   -0.894489
  C      4.453086   -0.360207    0.200216
  C      5.091288    0.712548   -0.266701
  H      4.799739   -0.848437    1.113818
  H      4.711758    1.176156   -1.182014
  C      6.295539    1.393817    0.328631
  C      6.845386    0.691360    1.569328
  C      5.992628    2.902819    0.551554
  H      7.082898    1.366705   -0.444180
  H      5.568708    3.268101   -0.396626
  C      7.262571    3.710928    0.828699
  C      4.951679    3.137233    1.647854
  H      7.131633   -0.339004    1.333616
  H      6.105103    0.653733    2.375608
  H      7.733565    1.204332    1.949216
  H      7.038407    4.783381    0.842465
  H      8.024983    3.533261    0.061397
  H      7.693917    3.454585    1.802864
  H      5.349504    2.869640    2.633682
  H      4.048307    2.543037    1.473643
  H      4.664190    4.193859    1.684650
  H      4.568653   -2.411236   -1.471205
  H      2.863093   -2.877840   -1.520689
  H      3.790294   -3.075886   -0.022501

----------------------------
CARTESIAN COORDINATES (A.U.)
----------------------------
  NO LB      ZA    FRAG     MASS         X           Y           Z
   0 C     6.0000    0    12.011   -9.529814    0.556031    0.576845
   1 C     6.0000    0    12.011  -12.184681   -0.237838   -0.108292
   2 C     6.0000    0    12.011  -13.185284    1.226071   -2.400606
   3 H     1.0000    0     1.008  -13.461621    0.169324    1.488762
   4 H     1.0000    0     1.008  -12.266904   -2.272874   -0.479789
   5 C     6.0000    0    12.011   -9.189717    3.317955    0.825885
   6 C     6.0000    0    12.011  -10.273765    4.840308   -1.335562
   7 C     6.0000    0    12.011  -13.003301    4.063241   -1.933210
   8 H     1.0000    0     1.008   -9.110290    4.500202   -3.025696
   9 H     1.0000    0     1.008  -10.167581    6.862682   -0.909722
  10 H     1.0000    0     1.008  -13.694192    5.090156   -3.594764
  11 H     1.0000    0     1.008  -14.235427    4.554002   -0.331371
  12 O     8.0000    0    15.999  -15.710725    0.467380   -3.022311
  13 H     1.0000    0     1.008  -12.052808    0.727884   -4.068676
  14 C     6.0000    0    12.011   -7.664429   -1.176979    0.831905
  15 C     6.0000    0    12.011   -8.096104    4.410859    2.826290
  16 H     1.0000    0     1.008   -7.371170    3.296335    4.390692
  17 H     1.0000    0     1.008   -7.921371    6.454680    2.949194
  18 C     6.0000    0    12.011   -5.025706   -0.661207    1.303103
  19 H     1.0000    0     1.008   -8.212601   -3.144631    0.578652
  20 C     6.0000    0    12.011   -3.187767   -2.389932    1.684490
  21 H     1.0000    0     1.008   -4.488046    1.322284    1.326665
  22 C     6.0000    0    12.011   -3.554225   -5.213112    1.797912
  23 C     6.0000    0    12.011   -1.759091   -6.608385   -0.020085
  24 H     1.0000    0     1.008   -5.508623   -5.767643    1.420536
  25 H     1.0000    0     1.008   -3.119695   -5.831498    3.738051
  26 C     6.0000    0    12.011    1.006478   -5.791773    0.293458
  27 H     1.0000    0     1.008   -2.373421   -6.266911   -1.971028
  28 H     1.0000    0     1.008   -1.920252   -8.650215    0.298996
  29 C     6.0000    0    12.011    1.313013   -2.916016    0.071656
  30 H     1.0000    0     1.008    2.162827   -6.783705   -1.106674
  31 H     1.0000    0     1.008    1.685058   -6.382043    2.168640
  32 C     6.0000    0    12.011   -0.473897   -1.681285    2.069595
  33 H     1.0000    0     1.008    0.103891   -2.538271    3.885855
  34 C     6.0000    0    12.011    0.348012    1.081189    2.138875
  35 H     1.0000    0     1.008  -16.777240    0.886097   -1.599753
  36 C     6.0000    0    12.011    3.246621    0.940504    1.767793
  37 H     1.0000    0     1.008   -0.194526    2.012031    3.905799
  38 H     1.0000    0     1.008   -0.528882    2.145632    0.594296
  39 C     6.0000    0    12.011    3.887610   -1.818829    0.963032
  40 H     1.0000    0     1.008    4.269226    1.449356    3.492322
  41 H     1.0000    0     1.008    3.872300    2.269404    0.306526
  42 H     1.0000    0     1.008    4.426895   -2.894841    2.663478
  43 C     6.0000    0    12.011    6.159612   -1.899861   -0.860474
  44 C     6.0000    0    12.011    0.669798   -2.000677   -2.604098
  45 H     1.0000    0     1.008   -1.337206   -2.258964   -3.030681
  46 H     1.0000    0     1.008    1.762132   -3.048133   -4.016988
  47 H     1.0000    0     1.008    1.097698    0.008708   -2.845012
  48 H     1.0000    0     1.008    5.680817   -0.787197   -2.550186
  49 C     6.0000    0    12.011    6.874305   -4.588435   -1.690340
  50 C     6.0000    0    12.011    8.415114   -0.680693    0.378353
  51 C     6.0000    0    12.011    9.621140    1.346521   -0.503992
  52 H     1.0000    0     1.008    9.070193   -1.603313    2.104811
  53 H     1.0000    0     1.008    8.903932    2.222613   -2.233684
  54 C     6.0000    0    12.011   11.896845    2.633932    0.621022
  55 C     6.0000    0    12.011   12.935904    1.306481    2.965601
  56 C     6.0000    0    12.011   11.324425    5.485533    1.042285
  57 H     1.0000    0     1.008   13.384737    2.582698   -0.839379
  58 H     1.0000    0     1.008   10.523332    6.175816   -0.749514
  59 C     6.0000    0    12.011   13.724270    7.012637    1.566014
  60 C     6.0000    0    12.011    9.357317    5.928512    3.113993
  61 H     1.0000    0     1.008   13.476834   -0.640624    2.520169
  62 H     1.0000    0     1.008   11.536972    1.235377    4.489249
  63 H     1.0000    0     1.008   14.614320    2.275857    3.683485
  64 H     1.0000    0     1.008   13.300662    9.039280    1.592029
  65 H     1.0000    0     1.008   15.165020    6.676896    0.116024
  66 H     1.0000    0     1.008   14.539395    6.528219    3.406919
  67 H     1.0000    0     1.008   10.109097    5.422835    4.976938
  68 H     1.0000    0     1.008    7.650192    4.805643    2.784781
  69 H     1.0000    0     1.008    8.814041    7.925245    3.183527
  70 H     1.0000    0     1.008    8.633503   -4.556576   -2.780175
  71 H     1.0000    0     1.008    5.410461   -5.438330   -2.873686
  72 H     1.0000    0     1.008    7.162617   -5.812582   -0.042521

--------------------------------
INTERNAL COORDINATES (ANGSTROEM)
--------------------------------
 C      0   0   0     0.000000000000     0.00000000     0.00000000
 C      1   0   0     1.510516614069     0.00000000     0.00000000
 C      2   1   0     1.533604457661   111.74576579     0.00000000
 H      2   1   3     1.103298417782   109.35777185   241.46759607
 H      2   1   3     1.095555441730   110.69458889   122.88720942
 C      1   2   3     1.478471810977   114.17608951    50.53933740
 C      6   1   2     1.512055612939   114.39802935   311.95281650
 C      3   2   1     1.524646859690   110.32177368   305.04992572
 H      7   6   1     1.100625002048   108.38183844   290.04707270
 H      7   6   1     1.095104179616   110.21461929   172.83097839
 H      8   3   2     1.096386577125   109.68919687   179.07936728
 H      8   3   2     1.100493914970   108.65762126   296.51111230
 O      3   2   1     1.433668045932   111.21653122   180.35884691
 H      3   2   1     1.099001921767   109.01764240    65.19585240
 C      1   2   3     1.354118562131   120.90224235   232.75536670
 C      6   1   2     1.337892537685   123.40197346   129.74872662
 H     16   6   1     1.086431421584   121.39731524     0.65906316
 H     16   6   1     1.087435500458   120.93310419   181.33153354
 C     15   1   2     1.444460683963   126.43677992   175.36751651
 H     15   1   2     1.089164750453   116.16949521   358.00028858
 C     19  15   1     1.350383531661   126.44451572   176.39978163
 H     19  15   1     1.087568088844   115.92754171   355.64995762
 C     21  19  15     1.507690952628   125.77346118   357.34812906
 C     23  21  19     1.540479071914   111.76226077   127.50477148
 H     23  21  19     1.093437648041   112.35294480     3.40318259
 H     23  21  19     1.101827047558   107.73057913   246.12890719
 C     24  23  21     1.534936803391   112.67493365    50.91979896
 H     24  23  21     1.097348830546   109.02210785   288.82809394
 H     24  23  21     1.096923688378   109.14997756   172.87021360
 C     27  24  23     1.534900062497   111.81565865   306.16759104
 H     27  24  23     1.094954725647   108.94881111   182.62690784
 H     27  24  23     1.100535598977   109.18714611    66.13690470
 C     21  19  15     1.498195517060   122.76259905   177.75209700
 H     33  21  19     1.105848893353   106.29637295   124.31268505
 C     33  21  19     1.525609499350   121.09001474     2.10110318
 H     13   3   2     0.966592814517   107.53925882    62.69981644
 C     35  33  21     1.548187172659   103.49321202   196.13249079
 H     35  33  21     1.095132932658   112.13357930    74.11378264
 H     35  33  21     1.095755582057   110.72680789   314.51038318
 C     30  27  24     1.554279172459   116.09056778   166.36580677
 H     37  35  33     1.094597928522   111.85307757   249.92153705
 H     37  35  33     1.096400379432   110.96552061   131.37942116
 H     40  30  27     1.102435902726   106.36040939   321.14031110
 C     40  30  27     1.542234879973   118.88639913    81.97458317
 C     30  27  24     1.534726411376   111.10186081   294.27833638
 H     45  30  27     1.094354414926   111.47710671    66.76919182
 H     45  30  27     1.095616086211   110.66604863   306.62148697
 H     45  30  27     1.094612337485   111.60238773   186.78858745
 H     44  40  30     1.100178823395   108.30684975    61.21000440
 C     44  40  30     1.536245483195   113.36120096   300.54143861
 C     44  40  30     1.506840766658   109.47440347   178.58615294
 C     51  44  40     1.332710486258   124.85691728   240.61450968
 H     51  44  40     1.092339381655   115.07934908    61.70236096
 H     52  51  44     1.093971434585   117.91244751     1.38372982
 C     52  51  44     1.506243243470   127.47839349   180.80932507
 C     55  52  51     1.528105608730   113.61998846     3.20137300
 C     55  52  51     1.555164910230   109.86468079   234.74630919
 H     55  52  51     1.103587340780   106.41077908   121.28519868
 H     57  55  52     1.100991888356   105.87117296   310.79793210
 C     57  55  52     1.530557037999   112.12662441   193.88985481
 C     57  55  52     1.529836245534   112.57763273    68.24071113
 H     56  55  52     1.095055785240   110.59899617    58.92928653
 H     56  55  52     1.095226722290   111.73399217   299.05544945
 H     56  55  52     1.093763201203   111.01380339   178.40375112
 H     60  57  55     1.095716295077   110.44462644   172.11598204
 H     60  57  55     1.096170386844   111.39338069    52.04658867
 H     60  57  55     1.095795980091   111.35059556   291.29668452
 H     61  57  55     1.096233367584   111.10680177    68.41535981
 H     61  57  55     1.095216840251   111.35355962   307.90893726
 H     61  57  55     1.095655769228   110.51024844   187.63948185
 H     50  44  40     1.095222065375   110.21370477   187.21173683
 H     50  44  40     1.092910022303   111.74034594    67.27006029
 H     50  44  40     1.096938248468   110.72688240   306.67843182

---------------------------
INTERNAL COORDINATES (A.U.)
---------------------------
 C      0   0   0     0.000000000000     0.00000000     0.00000000
 C      1   0   0     2.854462721329     0.00000000     0.00000000
 C      2   1   0     2.898092422741   111.74576579     0.00000000
 H      2   1   3     2.084931853597   109.35777185   241.46759607
 H      2   1   3     2.070299749396   110.69458889   122.88720942
 C      1   2   3     2.793906819469   114.17608951    50.53933740
 C      6   1   2     2.857371007714   114.39802935   311.95281650
 C      3   2   1     2.881165015757   110.32177368   305.04992572
 H      7   6   1     2.079879830017   108.38183844   290.04707270
 H      7   6   1     2.069446987587   110.21461929   172.83097839
 H      8   3   2     2.071870367674   109.68919687   179.07936728
 H      8   3   2     2.079632111339   108.65762126   296.51111230
 O      3   2   1     2.709239973765   111.21653122   180.35884691
 H      3   2   1     2.076812652793   109.01764240    65.19585240
 C      1   2   3     2.558913235287   120.90224235   232.75536670
 C      6   1   2     2.528250492842   123.40197346   129.74872662
 H     16   6   1     2.053057850080   121.39731524     0.65906316
 H     16   6   1     2.054955284170   120.93310419   181.33153354
 C     15   1   2     2.729635103907   126.43677992   175.36751651
 H     15   1   2     2.058223093077   116.16949521   358.00028858
 C     19  15   1     2.551855050597   126.44451572   176.39978163
 H     19  15   1     2.055205839907   115.92754171   355.64995762
 C     21  19  15     2.849122995059   125.77346118   357.34812906
 C     23  21  19     2.911083560955   111.76226077   127.50477148
 H     23  21  19     2.066297699316   112.35294480     3.40318259
 H     23  21  19     2.082151366832   107.73057913   246.12890719
 C     24  23  21     2.900610191286   112.67493365    50.91979896
 H     24  23  21     2.073688763110   109.02210785   288.82809394
 H     24  23  21     2.072885360845   109.14997756   172.87021360
 C     27  24  23     2.900540761058   111.81565865   306.16759104
 H     27  24  23     2.069164560516   108.94881111   182.62690784
 H     27  24  23     2.079710882698   109.18714611    66.13690470
 C     21  19  15     2.831179222313   122.76259905   177.75209700
 H     33  21  19     2.089751553938   106.29637295   124.31268505
 C     33  21  19     2.882984141080   121.09001474     2.10110318
 H     13   3   2     1.826595702453   107.53925882    62.69981644
 C     35  33  21     2.925649760376   103.49321202   196.13249079
 H     35  33  21     2.069501322962   112.13357930    74.11378264
 H     35  33  21     2.070677959803   110.72680789   314.51038318
 C     30  27  24     2.937161971605   116.09056778   166.36580677
 H     37  35  33     2.068490311664   111.85307757   249.92153705
 H     37  35  33     2.071896450253   110.96552061   131.37942116
 H     40  30  27     2.083301936355   106.36040939   321.14031110
 C     40  30  27     2.914401557329   118.88639913    81.97458317
 C     30  27  24     2.900212607996   111.10186081   294.27833638
 H     45  30  27     2.068030137658   111.47710671    66.76919182
 H     45  30  27     2.070414350857   110.66604863   306.62148697
 H     45  30  27     2.068517540659   111.60238773   186.78858745
 H     44  40  30     2.079036674556   108.30684975    61.21000440
 C     44  40  30     2.903083237711   113.36120096   300.54143861
 C     44  40  30     2.847516376412   109.47440347   178.58615294
 C     51  44  40     2.518457834832   124.85691728   240.61450968
 H     51  44  40     2.064222276625   115.07934908    61.70236096
 H     52  51  44     2.067306409699   117.91244751     1.38372982
 C     52  51  44     2.846387221228   127.47839349   180.80932507
 C     55  52  51     2.887701104208   113.61998846     3.20137300
 C     55  52  51     2.938835773419   109.86468079   234.74630919
 H     55  52  51     2.085477838936   106.41077908   121.28519868
 H     57  55  52     2.080573144661   105.87117296   310.79793210
 C     57  55  52     2.892333634164   112.12662441   193.88985481
 C     57  55  52     2.890971533806   112.57763273    68.24071113
 H     56  55  52     2.069355535469   110.59899617    58.92928653
 H     56  55  52     2.069678559680   111.73399217   299.05544945
 H     56  55  52     2.066912905636   111.01380339   178.40375112
 H     60  57  55     2.070603718171   110.44462644   172.11598204
 H     60  57  55     2.071461827250   111.39338069    52.04658867
 H     60  57  55     2.070754301024   111.35059556   291.29668452
 H     61  57  55     2.071580843600   111.10680177    68.41535981
 H     61  57  55     2.069659885333   111.35355962   307.90893726
 H     61  57  55     2.070489340891   110.51024844   187.63948185
 H     50  44  40     2.069669759386   110.21370477   187.21173683
 H     50  44  40     2.065300631171   111.74034594    67.27006029
 H     50  44  40     2.072912875428   110.72688240   306.67843182

---------------------
BASIS SET INFORMATION
---------------------
There are 3 groups of distinct atoms

 Group   1 Type C   : 7s4p contracted to 4s3p pattern {4111/211}
 Group   2 Type H   : 5s contracted to 3s pattern {311}
 Group   3 Type O   : 7s4p contracted to 4s3p pattern {4111/211}

Atom   0C    basis set group =>   1
Atom   1C    basis set group =>   1
Atom   2C    basis set group =>   1
Atom   3H    basis set group =>   2
Atom   4H    basis set group =>   2
Atom   5C    basis set group =>   1
Atom   6C    basis set group =>   1
Atom   7C    basis set group =>   1
Atom   8H    basis set group =>   2
Atom   9H    basis set group =>   2
Atom  10H    basis set group =>   2
Atom  11H    basis set group =>   2
Atom  12O    basis set group =>   3
Atom  13H    basis set group =>   2
Atom  14C    basis set group =>   1
Atom  15C    basis set group =>   1
Atom  16H    basis set group =>   2
Atom  17H    basis set group =>   2
Atom  18C    basis set group =>   1
Atom  19H    basis set group =>   2
Atom  20C    basis set group =>   1
Atom  21H    basis set group =>   2
Atom  22C    basis set group =>   1
Atom  23C    basis set group =>   1
Atom  24H    basis set group =>   2
Atom  25H    basis set group =>   2
Atom  26C    basis set group =>   1
Atom  27H    basis set group =>   2
Atom  28H    basis set group =>   2
Atom  29C    basis set group =>   1
Atom  30H    basis set group =>   2
Atom  31H    basis set group =>   2
Atom  32C    basis set group =>   1
Atom  33H    basis set group =>   2
Atom  34C    basis set group =>   1
Atom  35H    basis set group =>   2
Atom  36C    basis set group =>   1
Atom  37H    basis set group =>   2
Atom  38H    basis set group =>   2
Atom  39C    basis set group =>   1
Atom  40H    basis set group =>   2
Atom  41H    basis set group =>   2
Atom  42H    basis set group =>   2
Atom  43C    basis set group =>   1
Atom  44C    basis set group =>   1
Atom  45H    basis set group =>   2
Atom  46H    basis set group =>   2
Atom  47H    basis set group =>   2
Atom  48H    basis set group =>   2
Atom  49C    basis set group =>   1
Atom  50C    basis set group =>   1
Atom  51C    basis set group =>   1
Atom  52H    basis set group =>   2
Atom  53H    basis set group =>   2
Atom  54C    basis set group =>   1
Atom  55C    basis set group =>   1
Atom  56C    basis set group =>   1
Atom  57H    basis set group =>   2
Atom  58H    basis set group =>   2
Atom  59C    basis set group =>   1
Atom  60C    basis set group =>   1
Atom  61H    basis set group =>   2
Atom  62H    basis set group =>   2
Atom  63H    basis set group =>   2
Atom  64H    basis set group =>   2
Atom  65H    basis set group =>   2
Atom  66H    basis set group =>   2
Atom  67H    basis set group =>   2
Atom  68H    basis set group =>   2
Atom  69H    basis set group =>   2
Atom  70H    basis set group =>   2
Atom  71H    basis set group =>   2
Atom  72H    basis set group =>   2

-------------------------
BASIS SET IN INPUT FORMAT
-------------------------

 # Basis set for element : H 
 NewGTO H 
 S 3 
   1    1357.7500000000      0.0012928364
   2      54.3100000000      0.0588280685
   3       4.3448000000      0.9761499708
 S 1 
   1       0.6604910000      1.0000000000
 S 1 
   1       0.1366870000      1.0000000000
  end;

 # Basis set for element : C 
 NewGTO C 
 S 4 
   1  139534.0000000000      0.0001655246
   2    5581.3600000000      0.0074486101
   3     446.5090000000      0.1285821065
   4      67.4620000000      0.9218029311
 S 1 
   1      15.0674000000      1.0000000000
 S 1 
   1       3.9387600000      1.0000000000
 S 1 
   1       0.2999150000      1.0000000000
 P 2 
   1      28.3900000000      0.0816325586
   2       4.3676900000      0.9660360576
 P 1 
   1       0.8698170000      1.0000000000
 P 1 
   1       0.1889340000      1.0000000000
  end;

 # Basis set for element : O 
 NewGTO O 
 S 4 
   1  253789.0000000000      0.0001641076
   2   10151.6000000000      0.0074010921
   3     812.1250000000      0.1277711901
   4     122.6930000000      0.9223372164
 S 1 
   1      27.5608000000      1.0000000000
 S 1 
   1       7.3172600000      1.0000000000
 S 1 
   1       0.5792400000      1.0000000000
 P 2 
   1      53.4157000000      0.0793786106
   2       8.2177900000      0.9670506337
 P 1 
   1       1.6754400000      1.0000000000
 P 1 
   1       0.3506720000      1.0000000000
  end;

---------------------------------
AUXILIARY/J BASIS SET INFORMATION
---------------------------------
There are 3 groups of distinct atoms

 Group   1 Type C   : 12s5p4d2f1g contracted to 6s4p3d1f1g pattern {711111/2111/211/2/1}
 Group   2 Type H   : 5s2p1d contracted to 3s1p1d pattern {311/2/1}
 Group   3 Type O   : 12s5p4d2f1g contracted to 6s4p3d1f1g pattern {711111/2111/211/2/1}

Atom   0C    basis set group =>   1
Atom   1C    basis set group =>   1
Atom   2C    basis set group =>   1
Atom   3H    basis set group =>   2
Atom   4H    basis set group =>   2
Atom   5C    basis set group =>   1
Atom   6C    basis set group =>   1
Atom   7C    basis set group =>   1
Atom   8H    basis set group =>   2
Atom   9H    basis set group =>   2
Atom  10H    basis set group =>   2
Atom  11H    basis set group =>   2
Atom  12O    basis set group =>   3
Atom  13H    basis set group =>   2
Atom  14C    basis set group =>   1
Atom  15C    basis set group =>   1
Atom  16H    basis set group =>   2
Atom  17H    basis set group =>   2
Atom  18C    basis set group =>   1
Atom  19H    basis set group =>   2
Atom  20C    basis set group =>   1
Atom  21H    basis set group =>   2
Atom  22C    basis set group =>   1
Atom  23C    basis set group =>   1
Atom  24H    basis set group =>   2
Atom  25H    basis set group =>   2
Atom  26C    basis set group =>   1
Atom  27H    basis set group =>   2
Atom  28H    basis set group =>   2
Atom  29C    basis set group =>   1
Atom  30H    basis set group =>   2
Atom  31H    basis set group =>   2
Atom  32C    basis set group =>   1
Atom  33H    basis set group =>   2
Atom  34C    basis set group =>   1
Atom  35H    basis set group =>   2
Atom  36C    basis set group =>   1
Atom  37H    basis set group =>   2
Atom  38H    basis set group =>   2
Atom  39C    basis set group =>   1
Atom  40H    basis set group =>   2
Atom  41H    basis set group =>   2
Atom  42H    basis set group =>   2
Atom  43C    basis set group =>   1
Atom  44C    basis set group =>   1
Atom  45H    basis set group =>   2
Atom  46H    basis set group =>   2
Atom  47H    basis set group =>   2
Atom  48H    basis set group =>   2
Atom  49C    basis set group =>   1
Atom  50C    basis set group =>   1
Atom  51C    basis set group =>   1
Atom  52H    basis set group =>   2
Atom  53H    basis set group =>   2
Atom  54C    basis set group =>   1
Atom  55C    basis set group =>   1
Atom  56C    basis set group =>   1
Atom  57H    basis set group =>   2
Atom  58H    basis set group =>   2
Atom  59C    basis set group =>   1
Atom  60C    basis set group =>   1
Atom  61H    basis set group =>   2
Atom  62H    basis set group =>   2
Atom  63H    basis set group =>   2
Atom  64H    basis set group =>   2
Atom  65H    basis set group =>   2
Atom  66H    basis set group =>   2
Atom  67H    basis set group =>   2
Atom  68H    basis set group =>   2
Atom  69H    basis set group =>   2
Atom  70H    basis set group =>   2
Atom  71H    basis set group =>   2
Atom  72H    basis set group =>   2

-------------------------------------
AUXILIARY/J BASIS SET IN INPUT FORMAT
-------------------------------------

 # Auxiliary/J basis set for element : H 
 NewAuxJGTO H 
 S 3 
   1      15.6752927000      0.1007184237
   2       3.6063578000      0.3404257499
   3       1.2080016000      0.6491996172
 S 1 
   1       0.4726794000      1.0000000000
 S 1 
   1       0.2018100000      1.0000000000
 P 2 
   1       2.0281365000      0.5596620919
   2       0.5358730000      0.5596620919
 D 1 
   1       2.2165124000      1.0000000000
  end;

 # Auxiliary/J basis set for element : C 
 NewAuxJGTO C 
 S 7 
   1    1861.0916331000      0.0134602335
   2     642.9939764000      0.0299160374
   3     235.1105725000      0.1008649584
   4      90.7028894000      0.2370970548
   5      36.7794552000      0.3924037254
   6      15.6046273000      0.3195862154
   7       6.8907294000      0.0530104441
 S 1 
   1       3.1478850000     -1.0000000000
 S 1 
   1       1.4777287000      1.0000000000
 S 1 
   1       0.7076466000      1.0000000000
 S 1 
   1       0.3430122000      1.0000000000
 S 1 
   1       0.1669453000      1.0000000000
 P 2 
   1      13.5472892000     -0.6769313712
   2       5.4669419000     -0.3779500978
 P 1 
   1       2.1751721000      1.0000000000
 P 1 
   1       0.8582194000      1.0000000000
 P 1 
   1       0.3376720000      1.0000000000
 D 2 
   1       5.9287253000     -0.3533329857
   2       1.9809209000     -0.7456525731
 D 1 
   1       0.8055417000     -1.0000000000
 D 1 
   1       0.3531244000     -1.0000000000
 F 2 
   1       1.6755626000      0.6311076882
   2       0.5997536000      0.4968166032
 G 1 
   1       1.0024600000     -1.0000000000
  end;

 # Auxiliary/J basis set for element : O 
 NewAuxJGTO O 
 S 7 
   1    2876.8216605000      0.0168151159
   2    1004.7443032000      0.0340137548
   3     369.7579954000      0.1194951309
   4     142.9442404000      0.2664627624
   5      57.8366425000      0.4202764046
   6      24.3864983000      0.2765077335
   7      10.6622662000      0.0057008815
 S 1 
   1       4.8070437000     -1.0000000000
 S 1 
   1       2.2210770000      1.0000000000
 S 1 
   1       1.0447795000      1.0000000000
 S 1 
   1       0.4968425000      1.0000000000
 S 1 
   1       0.2371384000      1.0000000000
 P 2 
   1      64.2613382000     -0.2731534179
   2      16.3006076000     -0.8168011598
 P 1 
   1       4.3550542000      1.0000000000
 P 1 
   1       1.2019554000      1.0000000000
 P 1 
   1       0.3354196000      1.0000000000
 D 2 
   1       9.2146611000     -0.4661230638
   2       2.8435251000     -0.6600908911
 D 1 
   1       0.9955759000     -1.0000000000
 D 1 
   1       0.3649441000     -1.0000000000
 F 2 
   1       2.6420115000      0.5931563945
   2       0.7345613000      0.5931563945
 G 1 
   1       1.3931000000     -1.0000000000
  end;


Checking for AutoStart:
The File: inpJ.gbw exists
Trying to determine its content:
     ... Fine, the file contains calculation information
     ... Fine, the calculation information was read
     ... Fine, the file contains a basis set
     ... Fine, the basis set was read
     ... Fine, the file contains a geometry
     ... Fine, the geometry was read
     ... Fine, the file contains a set of orbitals
     ... Fine, the orbitals can be read
     => possible old guess file was deleted
     => GBW file was renamed to GES file
     => GES file is set as startup file
     => Guess is set to MORead
     ... now leaving AutoStart



           ************************************************************
           *        Program running with 4 parallel MPI-processes     *
           *              working on a common directory               *
           ************************************************************
------------------------------------------------------------------------------
                             ORCA STARTUP CALCULATIONS
                           -- RI-GTO INTEGRALS CHOSEN --
------------------------------------------------------------------------------
------------------------------------------------------------------------------
                   ___                                                        
                  /   \      - P O W E R E D   B Y -                         
                 /     \                                                     
                 |  |  |   _    _      __       _____    __    __             
                 |  |  |  | |  | |    /  \     |  _  \  |  |  /  |          
                  \  \/   | |  | |   /    \    | | | |  |  | /  /          
                 / \  \   | |__| |  /  /\  \   | |_| |  |  |/  /          
                |  |  |   |  __  | /  /__\  \  |    /   |      \           
                |  |  |   | |  | | |   __   |  |    \   |  |\   \          
                \     /   | |  | | |  |  |  |  | |\  \  |  | \   \       
                 \___/    |_|  |_| |__|  |__|  |_| \__\ |__|  \__/        
                                                                              
                      - O R C A' S   B I G   F R I E N D -                    
                                      &                                       
                       - I N T E G R A L  F E E D E R -                       
                                                                              
 v1 FN, 2020, v2 2021, v3 2022-2024                                           
------------------------------------------------------------------------------


----------------------
SHARK INTEGRAL PACKAGE
----------------------

Number of atoms                             ...     73
Number of basis functions                   ...    509
Number of shells                            ...    335
Maximum angular momentum                    ...      1
Integral batch strategy                     ... SHARK/LIBINT Hybrid
RI-J (if used) integral strategy            ... SPLIT-RIJ (Revised 2003 algorithm where possible)
Printlevel                                  ...      1
Contraction scheme used                     ... SEGMENTED contraction
Prescreening option                         ... SCHWARTZ
   Thresh                                   ... 3.000e-11
   Tcut                                     ... 1.000e-12
   Tpresel                                  ... 1.000e-12 
Coulomb Range Separation                    ... NOT USED
Exchange Range Separation                   ... NOT USED
Multipole approximations                    ... NOT USED
Finite Nucleus Model                        ... NOT USED
CABS basis                                  ... NOT available
Auxiliary Coulomb fitting basis             ... AVAILABLE
   # of basis functions in Aux-J            ...   1905
   # of shells in Aux-J                     ...    655
   Maximum angular momentum in Aux-J        ...      4
Auxiliary J/K fitting basis                 ... NOT available
Auxiliary Correlation fitting basis         ... NOT available
Auxiliary 'external' fitting basis          ... NOT available

Checking pre-screening integrals            ... done (  0.0 sec) Dimension = 335
Check shell pair data                       ... done (  0.0 sec)
Shell pair information
Shell pair cut-off parameter TPreSel        ...   1.0e-12
Total number of shell pairs                 ...     56280
Shell pairs after pre-screening             ...     21812
Total number of primitive shell pairs       ...    145865
Primitive shell pairs kept                  ...     37412
          la=0 lb=0:  10975 shell pairs
          la=1 lb=0:   8968 shell pairs
          la=1 lb=1:   1869 shell pairs

Calculating one electron integrals          ... done (  0.0 sec)
Calculating RI/J V-Matrix + Cholesky decomp.... done (  0.2 sec)
Calculating Nuclear repulsion               ... done (  0.0 sec) ENN=   2775.241035757998 Eh

Diagonalization of the overlap matrix:
Smallest eigenvalue                        ... 7.545e-03
Time for diagonalization                   ...    0.028 sec
Threshold for overlap eigenvalues          ... 1.000e-07
Number of eigenvalues below threshold      ... 0
Time for construction of square roots      ...    0.021 sec
Total time needed                          ...    0.051 sec

-------------------
DFT GRID GENERATION
-------------------

General Integration Accuracy     IntAcc      ... 4.388
Radial Grid Type                 RadialGrid  ... OptM3 with GC (2021)
Angular Grid (max. ang.)         AngularGrid ... 4 (Lebedev-302)
Angular grid pruning method      GridPruning ... 4 (adaptive)
Weight generation scheme         WeightScheme... mBecke (2022)
Basis function cutoff            BFCut       ... 1.0000e-11
Integration weight cutoff        WCut        ... 1.0000e-14
Partially contracted basis set               ... off
Rotationally invariant grid construction     ... off
Angular grids for H and He will be reduced by one unit

Total number of grid points                  ...   309920
Total number of batches                      ...     4877
Average number of points per batch           ...       63
Average number of grid points per atom       ...     4245

--------------------
COSX GRID GENERATION
--------------------

GRIDX 1
-------
General Integration Accuracy     IntAcc      ... 3.816
Radial Grid Type                 RadialGrid  ... OptM3 with GC (2021)
Angular Grid (max. ang.)         AngularGrid ... 1 (Lebedev-50)
Angular grid pruning method      GridPruning ... 4 (adaptive)
Weight generation scheme         WeightScheme... mBecke (2022)
Basis function cutoff            BFCut       ... 1.0000e-11
Integration weight cutoff        WCut        ... 1.0000e-14
Partially contracted basis set               ... on
Rotationally invariant grid construction     ... off
Angular grids for H and He will be reduced by one unit

Total number of grid points                  ...    39402
Total number of batches                      ...      352
Average number of points per batch           ...      111
Average number of grid points per atom       ...      540
UseSFitting                                  ... on

GRIDX 2
-------
General Integration Accuracy     IntAcc      ... 4.020
Radial Grid Type                 RadialGrid  ... OptM3 with GC (2021)
Angular Grid (max. ang.)         AngularGrid ... 2 (Lebedev-110)
Angular grid pruning method      GridPruning ... 4 (adaptive)
Weight generation scheme         WeightScheme... mBecke (2022)
Basis function cutoff            BFCut       ... 1.0000e-11
Integration weight cutoff        WCut        ... 1.0000e-14
Partially contracted basis set               ... on
Rotationally invariant grid construction     ... off
Angular grids for H and He will be reduced by one unit

Total number of grid points                  ...    81391
Total number of batches                      ...      678
Average number of points per batch           ...      120
Average number of grid points per atom       ...     1115
UseSFitting                                  ... on

GRIDX 3
-------
General Integration Accuracy     IntAcc      ... 4.338
Radial Grid Type                 RadialGrid  ... OptM3 with GC (2021)
Angular Grid (max. ang.)         AngularGrid ... 3 (Lebedev-194)
Angular grid pruning method      GridPruning ... 4 (adaptive)
Weight generation scheme         WeightScheme... mBecke (2022)
Basis function cutoff            BFCut       ... 1.0000e-11
Integration weight cutoff        WCut        ... 1.0000e-14
Partially contracted basis set               ... on
Rotationally invariant grid construction     ... off
Angular grids for H and He will be reduced by one unit

Total number of grid points                  ...   176322
Total number of batches                      ...     1418
Average number of points per batch           ...      124
Average number of grid points per atom       ...     2415
UseSFitting                                  ... on
Initializing property integral containers    ... done (  0.0 sec)

SHARK setup successfully completed in   3.7 seconds

Maximum memory used throughout the entire STARTUP-calculation: 85.3 MB


           ************************************************************
           *        Program running with 4 parallel MPI-processes     *
           *              working on a common directory               *
           ************************************************************
-------------------------------------------------------------------------------
                                 ORCA GUESS
                   Start orbitals & Density for SCF / CASSCF
-------------------------------------------------------------------------------

------------
SCF SETTINGS
------------
Hamiltonian:
 Density Functional     Method          .... DFT(GTOs)
 Exchange Functional    Exchange        .... PBE
   PBE kappa parameter   XKappa         ....  0.804000
   PBE mue parameter    XMuePBE         ....  0.219520
 Correlation Functional Correlation     .... PBE
   PBE beta parameter  CBetaPBE         ....  0.066725
 LDA part of GGA corr.  LDAOpt          .... PW91-LDA
 Gradients option       PostSCFGGA      .... off
 Hybrid DFT is turned on
   Fraction HF Exchange ScalHFX         ....  0.250000
   Scaling of DF-GGA-X  ScalDFX         ....  0.750000
   Scaling of DF-GGA-C  ScalDFC         ....  1.000000
   Scaling of DF-LDA-C  ScalLDAC        ....  1.000000
   Perturbative correction              ....  0.000000
   NL short-range parameter             ....  6.900000
 RI-approximation to the Coulomb term is turned on
   Number of AuxJ basis functions       .... 1905
   RIJ-COSX (HFX calculated with COS-X)).... on


General Settings:
 Integral files         IntName         .... inpJ
 Hartree-Fock type      HFTyp           .... RHF
 Total Charge           Charge          ....    0
 Multiplicity           Mult            ....    1
 Number of Electrons    NEL             ....  220
 Basis Dimension        Dim             ....  509
 Nuclear Repulsion      ENuc            ....   2775.2410357580 Eh

Convergence Acceleration:
 AO-DIIS                CNVDIIS         .... on
   Start iteration      DIISMaxIt       ....    12
   Startup error        DIISStart       ....  0.200000
   # of expansion vecs  DIISMaxEq       ....     5
   Bias factor          DIISBfac        ....   1.050
   Max. coefficient     DIISMaxC        ....  10.000
 MO-DIIS                CNVKDIIS        .... off
 Trust-Rad. Augm. Hess. CNVTRAH         .... auto
   Auto Start mean grad. ratio tolernc. ....  1.125000
   Auto Start start iteration           ....     1
   Auto Start num. interpolation iter.  ....    10
   Max. Number of Micro iterations      ....    24
   Max. Number of Macro iterations      .... Maxiter - #DIIS iter
   Number of Davidson start vectors     ....     2
   Converg. threshold    (grad. norm)   ....   1.000e-04
   Grad. Scal. Fac. for Micro threshold ....   0.100
   Minimum threshold for Micro iter.    ....   1.000e-02
   NR start threshold (gradient norm)   ....   1.000e-04
   Initial trust radius                 ....   0.400
   Minimum AH scaling param. (alpha)    ....   1.000
   Maximum AH scaling param. (alpha)    .... 1000.000
   Quad. conv. algorithm                .... NR
   White noise on init. David. guess    .... on
   Maximum white noise                  ....   0.010
   Pseudo random numbers                .... off
   Inactive MOs                         .... canonical
   Orbital update algorithm             .... Taylor
   Preconditioner                       .... Diag
   Full preconditioner red. dimension   ....   250
 SOSCF                  CNVSOSCF        .... off
 Level Shifting         CNVShift        .... on
   Level shift para.    LevelShift      ....    0.2500
   Turn off err/grad.   ShiftErr        ....    0.0010
 Zerner damping         CNVZerner       .... off
 Static damping         CNVDamp         .... on
   Fraction old density DampFac         ....    0.7000
   Max. Damping (<1)    DampMax         ....    0.9800
   Min. Damping (>=0)   DampMin         ....    0.0000
   Turn off err/grad.   DampErr         ....    0.1000

SCF Procedure:
 Maximum # iterations   MaxIter         ....   125
 SCF integral mode      SCFMode         .... Direct
   Integral package                     .... SHARK and LIBINT hybrid scheme
 Reset frequency        DirectResetFreq ....    20
 Integral Threshold     Thresh          ....  3.000e-11 Eh
 Primitive CutOff       TCut            ....  1.000e-12 Eh

Convergence Tolerance:
 Convergence Check Mode ConvCheckMode   .... Total+1el-Energy
 Convergence forced     ConvForced      .... 0
 Energy Change          TolE            ....  1.000e-07 Eh
 1-El. energy change                    ....  1.000e-04 Eh
 DIIS Error             TolErr          ....  1.000e-07

---------------------
INITIAL GUESS: MOREAD
---------------------
Guess MOs are being read from file: inpJ.ges
Input Geometry matches current geometry (good)
Input basis set matches current basis set (good)
Occupation numbers will be reassigned to an Aufbau configuration
MOs were renormalized
MOs were reorthogonalized (Cholesky)
                      ------------------
                      INITIAL GUESS DONE (   0.1 sec)
                      ------------------
             **** ENERGY FILE WAS UPDATED (inpJ.en.tmp) ****
Finished Guess after   0.2 sec
Maximum memory used throughout the entire GUESS-calculation: 36.6 MB


           ************************************************************
           *        Program running with 4 parallel MPI-processes     *
           *              working on a common directory               *
           ************************************************************

-------------------------------------------------------------------------------------------
                                      ORCA LEAN-SCF
                              memory conserving SCF solver
-------------------------------------------------------------------------------------------

--------------------
CPCM SOLVATION MODEL
--------------------
CPCM parameters:
  Epsilon                                         ...       4.8030
  Refrac                                          ...       1.4459
  Rsolv                                           ...       1.3000
  Surface type                                    ... GAUSSIAN VDW
  Discretization scheme                           ... Constant charge density
    Threshold for H atoms                         ...       5.0000 (charges/Ang^2)
    Threshold for non-H atoms                     ...       5.0000 (charges/Ang^2)
  Epsilon function type                           ...         CPCM
Solvent:                                          ... CHLOROFORM
Radii:
  Scheme                                          ... Element-dependent radii
  Radius for C  used is    3.8550 Bohr (=   2.0400 Ang.)
  Radius for H  used is    2.4944 Bohr (=   1.3200 Ang.)
  Radius for O  used is    3.4469 Bohr (=   1.8240 Ang.)
Calculating surface                               ...        done! (  0.0s)
Cavity surface points                             ...         5426
Cavity Volume                                     ...    3617.9978
Cavity Surface-area                               ...    1800.0521
Calculating surface distance matrix               ...        done! (  0.2s)
Performing Cholesky decomposition & store         ...        done! (  1.4s)
Overall time for CPCM initialization              ...                 1.6s

----------------------------------------D-I-I-S--------------------------------------------
Iteration    Energy (Eh)           Delta-E    RMSDP     MaxDP     DIISErr   Damp  Time(sec)
-------------------------------------------------------------------------------------------
               ***  Starting incremental Fock matrix formation  ***
    1    -1165.5101522364684570     0.00e+00  4.57e-08  5.80e-06  8.14e-06  0.700   6.3

  HOMO= 109 E= -5.921 eV LUMO=  5.983 eV gap=  11.904 eV
    2    -1165.5101522505656249    -1.41e-08  3.06e-08  3.44e-06  3.82e-06  0.700   2.1
                 **** Energy Check signals convergence ****

  HOMO= 109 E= -5.921 eV LUMO=  5.983 eV gap=  11.904 eV

               *****************************************************
               *                     SUCCESS                       *
               *           SCF CONVERGED AFTER   2 CYCLES          *
               *****************************************************

Recomputing exchange energy using gridx3       ... done (    8.250 sec)
Old exchange energy                            :    -42.067773660 Eh
New exchange energy                            :    -42.067799767 Eh
Exchange energy change after final integration :     -0.000026107 Eh
Total energy after final integration           :  -1165.510178357 Eh
             **** ENERGY FILE WAS UPDATED (inpJ.en.tmp) ****

----------------
TOTAL SCF ENERGY
----------------

Total Energy       :      -1165.51017835712855 Eh          -31715.14432 eV

Components:
Nuclear Repulsion  :       2775.24103575799791 Eh           75518.14785 eV
Electronic Energy  :      -3940.73592064797595 Eh         -107232.87601 eV
One Electron Energy:      -7092.56172275526933 Eh         -192998.41633 eV
Two Electron Energy:       3151.82580210729338 Eh           85765.54031 eV
CPCM Dielectric    :         -0.01526736058752 Eh              -0.41545 eV

Virial components:
Potential Energy   :      -2322.41472553828316 Eh          -63196.11751 eV
Kinetic Energy     :       1156.90454718115438 Eh           31480.97319 eV
Virial Ratio       :          2.00743849714909

DFT components:
N(Alpha)           :      110.000104518728 electrons
N(Beta)            :      110.000104518728 electrons
N(Total)           :      220.000209037456 electrons
E(X)               :     -125.746344632274 Eh       
E(C)               :       -7.326557490130 Eh       
E(XC)              :     -133.072902122405 Eh       

CPCM Solvation Model Properties:
Surface-charge          :         -0.03316437247605
Corrected charge        :          0.00000000000000
Outlying charge corr.   :          0.00003850302234 Eh               0.00105 eV
Free-energy (cav+disp)  :  This term is not implemented in the current solvation scheme

---------------
SCF CONVERGENCE
---------------

  Last Energy change         ...    1.4097e-08  Tolerance :   1.0000e-07
  Last MAX-Density change    ...    3.4436e-06  Tolerance :   1.0000e-05
  Last RMS-Density change    ...    3.0647e-08  Tolerance :   1.0000e-06
  Last DIIS Error            ...    3.8243e-06  Tolerance :   1.0000e-07


----------------
ORBITAL ENERGIES
----------------

  NO   OCC          E(Eh)            E(eV) 
   0   2.0000     -19.215137      -522.8705 
   1   2.0000     -10.301404      -280.3154 
   2   2.0000     -10.269519      -279.4478 
   3   2.0000     -10.266807      -279.3740 
   4   2.0000     -10.261802      -279.2378 
   5   2.0000     -10.256211      -279.0857 
   6   2.0000     -10.253485      -279.0115 
   7   2.0000     -10.251123      -278.9472 
   8   2.0000     -10.249779      -278.9107 
   9   2.0000     -10.249263      -278.8966 
  10   2.0000     -10.249257      -278.8965 
  11   2.0000     -10.246121      -278.8111 
  12   2.0000     -10.245262      -278.7878 
  13   2.0000     -10.244711      -278.7728 
  14   2.0000     -10.244239      -278.7599 
  15   2.0000     -10.243921      -278.7513 
  16   2.0000     -10.243081      -278.7284 
  17   2.0000     -10.242464      -278.7116 
  18   2.0000     -10.242008      -278.6992 
  19   2.0000     -10.241099      -278.6745 
  20   2.0000     -10.239232      -278.6237 
  21   2.0000     -10.233829      -278.4766 
  22   2.0000     -10.233690      -278.4729 
  23   2.0000     -10.232506      -278.4406 
  24   2.0000     -10.225670      -278.2546 
  25   2.0000     -10.224968      -278.2355 
  26   2.0000     -10.224474      -278.2221 
  27   2.0000     -10.221701      -278.1466 
  28   2.0000     -10.220265      -278.1075 
  29   2.0000      -1.045880       -28.4598 
  30   2.0000      -0.900638       -24.5076 
  31   2.0000      -0.883691       -24.0464 
  32   2.0000      -0.859914       -23.3994 
  33   2.0000      -0.845743       -23.0138 
  34   2.0000      -0.822312       -22.3763 
  35   2.0000      -0.813863       -22.1463 
  36   2.0000      -0.795074       -21.6351 
  37   2.0000      -0.794774       -21.6269 
  38   2.0000      -0.777089       -21.1457 
  39   2.0000      -0.757442       -20.6110 
  40   2.0000      -0.739045       -20.1104 
  41   2.0000      -0.731524       -19.9058 
  42   2.0000      -0.713568       -19.4172 
  43   2.0000      -0.702192       -19.1076 
  44   2.0000      -0.699091       -19.0232 
  45   2.0000      -0.693432       -18.8692 
  46   2.0000      -0.671653       -18.2766 
  47   2.0000      -0.668748       -18.1976 
  48   2.0000      -0.631419       -17.1818 
  49   2.0000      -0.621679       -16.9168 
  50   2.0000      -0.619414       -16.8551 
  51   2.0000      -0.604884       -16.4597 
  52   2.0000      -0.596610       -16.2346 
  53   2.0000      -0.575581       -15.6623 
  54   2.0000      -0.558891       -15.2082 
  55   2.0000      -0.549440       -14.9510 
  56   2.0000      -0.539563       -14.6823 
  57   2.0000      -0.529806       -14.4168 
  58   2.0000      -0.515084       -14.0161 
  59   2.0000      -0.507356       -13.8059 
  60   2.0000      -0.496444       -13.5089 
  61   2.0000      -0.489543       -13.3211 
  62   2.0000      -0.485327       -13.2064 
  63   2.0000      -0.479919       -13.0593 
  64   2.0000      -0.476091       -12.9551 
  65   2.0000      -0.473669       -12.8892 
  66   2.0000      -0.466215       -12.6863 
  67   2.0000      -0.457443       -12.4477 
  68   2.0000      -0.456910       -12.4331 
  69   2.0000      -0.452729       -12.3194 
  70   2.0000      -0.449046       -12.2192 
  71   2.0000      -0.443804       -12.0765 
  72   2.0000      -0.434728       -11.8295 
  73   2.0000      -0.430600       -11.7172 
  74   2.0000      -0.423199       -11.5158 
  75   2.0000      -0.418950       -11.4002 
  76   2.0000      -0.415720       -11.3123 
  77   2.0000      -0.412721       -11.2307 
  78   2.0000      -0.410328       -11.1656 
  79   2.0000      -0.407207       -11.0807 
  80   2.0000      -0.402126       -10.9424 
  81   2.0000      -0.398817       -10.8524 
  82   2.0000      -0.396841       -10.7986 
  83   2.0000      -0.391041       -10.6408 
  84   2.0000      -0.386269       -10.5109 
  85   2.0000      -0.380593       -10.3565 
  86   2.0000      -0.378160       -10.2903 
  87   2.0000      -0.369525       -10.0553 
  88   2.0000      -0.367310        -9.9950 
  89   2.0000      -0.365590        -9.9482 
  90   2.0000      -0.362737        -9.8706 
  91   2.0000      -0.357909        -9.7392 
  92   2.0000      -0.349470        -9.5096 
  93   2.0000      -0.342400        -9.3172 
  94   2.0000      -0.341922        -9.3042 
  95   2.0000      -0.339737        -9.2447 
  96   2.0000      -0.337525        -9.1845 
  97   2.0000      -0.334022        -9.0892 
  98   2.0000      -0.330010        -8.9800 
  99   2.0000      -0.329246        -8.9592 
 100   2.0000      -0.326243        -8.8775 
 101   2.0000      -0.325795        -8.8653 
 102   2.0000      -0.316724        -8.6185 
 103   2.0000      -0.316252        -8.6057 
 104   2.0000      -0.311426        -8.4743 
 105   2.0000      -0.299881        -8.1602 
 106   2.0000      -0.280013        -7.6196 
 107   2.0000      -0.274787        -7.4773 
 108   2.0000      -0.256618        -6.9829 
 109   2.0000      -0.217602        -5.9212 
 110   0.0000      -0.030127        -0.8198 
 111   0.0000       0.021239         0.5779 
 112   0.0000       0.029158         0.7934 
 113   0.0000       0.080647         2.1945 
 114   0.0000       0.090391         2.4597 
 115   0.0000       0.101706         2.7675 
 116   0.0000       0.104639         2.8474 
 117   0.0000       0.107484         2.9248 
 118   0.0000       0.109885         2.9901 
 119   0.0000       0.115839         3.1521 
 120   0.0000       0.118579         3.2267 
*Only the first 10 virtual orbitals were printed.

                    ********************************
                    * MULLIKEN POPULATION ANALYSIS *
                    ********************************

-----------------------
MULLIKEN ATOMIC CHARGES
-----------------------
   0 C :    0.107411
   1 C :   -0.499817
   2 C :   -0.054901
   3 H :    0.207252
   4 H :    0.222156
   5 C :    0.135515
   6 C :   -0.475633
   7 C :   -0.451642
   8 H :    0.214222
   9 H :    0.224077
  10 H :    0.229094
  11 H :    0.204640
  12 O :   -0.487371
  13 H :    0.233891
  14 C :   -0.283351
  15 C :   -0.516827
  16 H :    0.201289
  17 H :    0.196750
  18 C :   -0.259911
  19 H :    0.217634
  20 C :    0.151116
  21 H :    0.219369
  22 C :   -0.480133
  23 C :   -0.427270
  24 H :    0.211588
  25 H :    0.206454
  26 C :   -0.397161
  27 H :    0.208141
  28 H :    0.216768
  29 C :    0.002803
  30 H :    0.221505
  31 H :    0.194050
  32 C :   -0.228841
  33 H :    0.226749
  34 C :   -0.434239
  35 H :    0.343154
  36 C :   -0.418470
  37 H :    0.207190
  38 H :    0.198149
  39 C :   -0.186745
  40 H :    0.210585
  41 H :    0.207164
  42 H :    0.209630
  43 C :   -0.250700
  44 C :   -0.626994
  45 H :    0.208555
  46 H :    0.200355
  47 H :    0.205270
  48 H :    0.218692
  49 C :   -0.619429
  50 C :   -0.178265
  51 C :   -0.176328
  52 H :    0.213142
  53 H :    0.207886
  54 C :   -0.225038
  55 C :   -0.640227
  56 C :   -0.203049
  57 H :    0.224928
  58 H :    0.220334
  59 C :   -0.610535
  60 C :   -0.621045
  61 H :    0.201532
  62 H :    0.196044
  63 H :    0.211741
  64 H :    0.204251
  65 H :    0.200313
  66 H :    0.197801
  67 H :    0.195236
  68 H :    0.212444
  69 H :    0.200348
  70 H :    0.202523
  71 H :    0.211189
  72 H :    0.192989
Sum of atomic charges:   -0.0000000

--------------------------------
MULLIKEN REDUCED ORBITAL CHARGES
--------------------------------
  0 C s       :     3.355875  s :     3.355875
      pz      :     1.007793  p :     2.536713
      px      :     0.795908
      py      :     0.733012

  1 C s       :     3.383627  s :     3.383627
      pz      :     1.021798  p :     3.116190
      px      :     0.949451
      py      :     1.144940

  2 C s       :     3.306294  s :     3.306294
      pz      :     1.060008  p :     2.748608
      px      :     0.796977
      py      :     0.891623

  3 H s       :     0.792748  s :     0.792748

  4 H s       :     0.777844  s :     0.777844

  5 C s       :     3.345218  s :     3.345218
      pz      :     0.821503  p :     2.519267
      px      :     0.942114
      py      :     0.755650

  6 C s       :     3.368268  s :     3.368268
      pz      :     1.031811  p :     3.107365
      px      :     0.949517
      py      :     1.126037

  7 C s       :     3.340458  s :     3.340458
      pz      :     1.187495  p :     3.111184
      px      :     0.988409
      py      :     0.935280

  8 H s       :     0.785778  s :     0.785778

  9 H s       :     0.775923  s :     0.775923

 10 H s       :     0.770906  s :     0.770906

 11 H s       :     0.795360  s :     0.795360

 12 O s       :     3.685524  s :     3.685524
      pz      :     1.649355  p :     4.801847
      px      :     1.279000
      py      :     1.873492

 13 H s       :     0.766109  s :     0.766109

 14 C s       :     3.392506  s :     3.392506
      pz      :     1.008578  p :     2.890845
      px      :     0.807305
      py      :     1.074962

 15 C s       :     3.386779  s :     3.386779
      pz      :     0.995000  p :     3.130048
      px      :     1.012558
      py      :     1.122491

 16 H s       :     0.798711  s :     0.798711

 17 H s       :     0.803250  s :     0.803250

 18 C s       :     3.396858  s :     3.396858
      pz      :     1.029958  p :     2.863052
      px      :     0.756832
      py      :     1.076262

 19 H s       :     0.782366  s :     0.782366

 20 C s       :     3.350441  s :     3.350441
      pz      :     0.956333  p :     2.498443
      px      :     0.753765
      py      :     0.788346

 21 H s       :     0.780631  s :     0.780631

 22 C s       :     3.372523  s :     3.372523
      pz      :     1.096870  p :     3.107610
      px      :     1.122916
      py      :     0.887824

 23 C s       :     3.327099  s :     3.327099
      pz      :     1.086001  p :     3.100170
      px      :     0.897120
      py      :     1.117049

 24 H s       :     0.788412  s :     0.788412

 25 H s       :     0.793546  s :     0.793546

 26 C s       :     3.349698  s :     3.349698
      pz      :     1.178084  p :     3.047463
      px      :     0.957425
      py      :     0.911955

 27 H s       :     0.791859  s :     0.791859

 28 H s       :     0.783232  s :     0.783232

 29 C s       :     3.317681  s :     3.317681
      pz      :     0.867827  p :     2.679516
      px      :     0.905759
      py      :     0.905930

 30 H s       :     0.778495  s :     0.778495

 31 H s       :     0.805950  s :     0.805950

 32 C s       :     3.362585  s :     3.362585
      pz      :     1.067330  p :     2.866255
      px      :     0.868570
      py      :     0.930355

 33 H s       :     0.773251  s :     0.773251

 34 C s       :     3.344306  s :     3.344306
      pz      :     1.188513  p :     3.089933
      px      :     0.935042
      py      :     0.966378

 35 H s       :     0.656846  s :     0.656846

 36 C s       :     3.337734  s :     3.337734
      pz      :     1.161872  p :     3.080736
      px      :     0.939936
      py      :     0.978928

 37 H s       :     0.792810  s :     0.792810

 38 H s       :     0.801851  s :     0.801851

 39 C s       :     3.337466  s :     3.337466
      pz      :     1.050366  p :     2.849279
      px      :     0.864264
      py      :     0.934649

 40 H s       :     0.789415  s :     0.789415

 41 H s       :     0.792836  s :     0.792836

 42 H s       :     0.790370  s :     0.790370

 43 C s       :     3.345538  s :     3.345538
      pz      :     1.063000  p :     2.905162
      px      :     0.880948
      py      :     0.961215

 44 C s       :     3.366067  s :     3.366067
      pz      :     0.963188  p :     3.260927
      px      :     1.157920
      py      :     1.139819

 45 H s       :     0.791445  s :     0.791445

 46 H s       :     0.799645  s :     0.799645

 47 H s       :     0.794730  s :     0.794730

 48 H s       :     0.781308  s :     0.781308

 49 C s       :     3.347344  s :     3.347344
      pz      :     1.141333  p :     3.272084
      px      :     1.156361
      py      :     0.974390

 50 C s       :     3.341560  s :     3.341560
      pz      :     1.046767  p :     2.836705
      px      :     0.896359
      py      :     0.893580

 51 C s       :     3.343522  s :     3.343522
      pz      :     1.056059  p :     2.832805
      px      :     0.883980
      py      :     0.892766

 52 H s       :     0.786858  s :     0.786858

 53 H s       :     0.792114  s :     0.792114

 54 C s       :     3.342328  s :     3.342328
      pz      :     1.009956  p :     2.882710
      px      :     0.996429
      py      :     0.876324

 55 C s       :     3.351415  s :     3.351415
      pz      :     1.021027  p :     3.288812
      px      :     1.143349
      py      :     1.124436

 56 C s       :     3.311886  s :     3.311886
      pz      :     1.063813  p :     2.891164
      px      :     0.920188
      py      :     0.907163

 57 H s       :     0.775072  s :     0.775072

 58 H s       :     0.779666  s :     0.779666

 59 C s       :     3.341802  s :     3.341802
      pz      :     1.154012  p :     3.268733
      px      :     1.008926
      py      :     1.105794

 60 C s       :     3.345084  s :     3.345084
      pz      :     1.046890  p :     3.275961
      px      :     1.070447
      py      :     1.158624

 61 H s       :     0.798468  s :     0.798468

 62 H s       :     0.803956  s :     0.803956

 63 H s       :     0.788259  s :     0.788259

 64 H s       :     0.795749  s :     0.795749

 65 H s       :     0.799687  s :     0.799687

 66 H s       :     0.802199  s :     0.802199

 67 H s       :     0.804764  s :     0.804764

 68 H s       :     0.787556  s :     0.787556

 69 H s       :     0.799652  s :     0.799652

 70 H s       :     0.797477  s :     0.797477

 71 H s       :     0.788811  s :     0.788811

 72 H s       :     0.807011  s :     0.807011


------------------------
MULLIKEN OVERLAP CHARGES
------------------------
B(  0-C ,  1-C ) :   0.4961 B(  0-C ,  2-C ) :  -0.1307 B(  0-C ,  3-H ) :  -0.0877 
B(  0-C ,  4-H ) :  -0.0673 B(  0-C ,  5-C ) :   0.4213 B(  0-C ,  6-C ) :  -0.1565 
B(  0-C , 14-C ) :   0.9463 B(  0-C , 15-C ) :  -0.2026 B(  0-C , 18-C ) :  -0.1836 
B(  0-C , 19-H ) :  -0.0751 B(  1-C ,  2-C ) :   0.5269 B(  1-C ,  3-H ) :   0.7958 
B(  1-C ,  4-H ) :   0.8137 B(  1-C ,  5-C ) :  -0.1485 B(  1-C ,  7-C ) :  -0.1690 
B(  1-C , 12-O ) :  -0.0832 B(  1-C , 13-H ) :  -0.0844 B(  1-C , 14-C ) :  -0.1078 
B(  2-C ,  3-H ) :  -0.0820 B(  2-C ,  4-H ) :  -0.0581 B(  2-C ,  6-C ) :  -0.1287 
B(  2-C ,  7-C ) :   0.5343 B(  2-C , 10-H ) :  -0.0697 B(  2-C , 11-H ) :  -0.0825 
B(  2-C , 12-O ) :   0.6904 B(  2-C , 13-H ) :   0.7985 B(  2-C , 35-H ) :  -0.1132 
B(  5-C ,  6-C ) :   0.5392 B(  5-C ,  7-C ) :  -0.1713 B(  5-C ,  8-H ) :  -0.0881 
B(  5-C ,  9-H ) :  -0.0736 B(  5-C , 14-C ) :  -0.1963 B(  5-C , 15-C ) :   1.0586 
B(  5-C , 16-H ) :  -0.0995 B(  5-C , 17-H ) :  -0.0943 B(  6-C ,  7-C ) :   0.5411 
B(  6-C ,  8-H ) :   0.8036 B(  6-C ,  9-H ) :   0.8190 B(  6-C , 11-H ) :  -0.0738 
B(  6-C , 15-C ) :  -0.1289 B(  7-C ,  8-H ) :  -0.0770 B(  7-C , 10-H ) :   0.8059 
B(  7-C , 11-H ) :   0.7945 B(  7-C , 12-O ) :  -0.0901 B(  7-C , 13-H ) :  -0.0841 
B( 12-O , 35-H ) :   0.6599 B( 14-C , 18-C ) :   0.6127 B( 14-C , 19-H ) :   0.8252 
B( 14-C , 20-C ) :  -0.1952 B( 14-C , 21-H ) :  -0.0733 B( 15-C , 16-H ) :   0.8143 
B( 15-C , 17-H ) :   0.8069 B( 18-C , 19-H ) :  -0.0609 B( 18-C , 20-C ) :   0.9211 
B( 18-C , 21-H ) :   0.8317 B( 18-C , 22-C ) :  -0.1498 B( 18-C , 32-C ) :  -0.1483 
B( 20-C , 21-H ) :  -0.0846 B( 20-C , 22-C ) :   0.5326 B( 20-C , 23-C ) :  -0.1711 
B( 20-C , 24-H ) :  -0.0668 B( 20-C , 25-H ) :  -0.0929 B( 20-C , 29-C ) :  -0.1248 
B( 20-C , 32-C ) :   0.5181 B( 20-C , 33-H ) :  -0.0917 B( 20-C , 34-C ) :  -0.0984 
[...]
        0.0000         1.6250        0.0000
        0.0000         0.0000        1.6250

 Diagonalized JT*J matrix:
 
 J[55,60](FC)             1.625            1.625            1.625  iso=      1.625
                ---------------  ---------------  ---------------  ---------------
 J[55,60](Total)          1.625            1.625            1.625  iso=      1.625



-----------------------------------------------------------
 NUCLEUS A = C   56 NUCLEUS B = C   59 
 ( 13C  gnA =  1.405  13C  gnB =  1.405) r(AB) =     1.5306
-----------------------------------------------------------

Fermi-contact contribution to J (Hz):
       26.8191         0.0000        0.0000
        0.0000        26.8191        0.0000
        0.0000         0.0000       26.8191

Total spin-spin coupling tensor J (Hz):
       26.8191         0.0000        0.0000
        0.0000        26.8191        0.0000
        0.0000         0.0000       26.8191

 Diagonalized JT*J matrix:
 
 J[56,59](FC)            26.819           26.819           26.819  iso=     26.819
                ---------------  ---------------  ---------------  ---------------
 J[56,59](Total)         26.819           26.819           26.819  iso=     26.819



-----------------------------------------------------------
 NUCLEUS A = C   56 NUCLEUS B = C   60 
 ( 13C  gnA =  1.405  13C  gnB =  1.405) r(AB) =     1.5298
-----------------------------------------------------------

Fermi-contact contribution to J (Hz):
       26.6045         0.0000        0.0000
        0.0000        26.6045        0.0000
        0.0000         0.0000       26.6045

Total spin-spin coupling tensor J (Hz):
       26.6045         0.0000        0.0000
        0.0000        26.6045        0.0000
        0.0000         0.0000       26.6045

 Diagonalized JT*J matrix:
 
 J[56,60](FC)            26.605           26.605           26.605  iso=     26.605
                ---------------  ---------------  ---------------  ---------------
 J[56,60](Total)         26.605           26.605           26.605  iso=     26.605



-----------------------------------------------------------
 NUCLEUS A = C   59 NUCLEUS B = C   60 
 ( 13C  gnA =  1.405  13C  gnB =  1.405) r(AB) =     2.5180
-----------------------------------------------------------

Fermi-contact contribution to J (Hz):
       -0.8092         0.0000        0.0000
        0.0000        -0.8092        0.0000
        0.0000         0.0000       -0.8092

Total spin-spin coupling tensor J (Hz):
       -0.8092         0.0000        0.0000
        0.0000        -0.8092        0.0000
        0.0000         0.0000       -0.8092

 Diagonalized JT*J matrix:
 
 J[59,60](FC)            -0.809           -0.809           -0.809  iso=     -0.809
                ---------------  ---------------  ---------------  ---------------
 J[59,60](Total)         -0.809           -0.809           -0.809  iso=     -0.809



-----------------------------------------------------------------------------
                SUMMARY OF ISOTROPIC COUPLING CONSTANTS J (Hz)                
-----------------------------------------------------------------------------
                  0 C        1 C        2 C        5 C        6 C        7 C  
      0 C        0.000     32.400     -2.393     42.185     -0.179      0.889
      1 C       32.400      0.000     25.296     -1.186      0.383     -0.382
      2 C       -2.393     25.296      0.000      2.011     -1.364     25.811
      5 C       42.185     -1.186      2.011      0.000     30.985     -2.894
      6 C       -0.179      0.383     -1.364     30.985      0.000     23.078
      7 C        0.889     -0.382     25.811     -2.894     23.078      0.000
     14 C       70.201     -0.380      3.568     -3.177      2.736     -0.707
     15 C       -3.286      2.725     -0.837     64.306     -0.901      2.835
     18 C       -2.636      4.228     -1.077      3.285     -1.017      0.207
     20 C        6.954     -1.154      1.263     -1.503      0.785     -0.147
     22 C       -0.945      0.334     -0.382      0.446     -0.237      0.047
     23 C        0.801     -0.272      0.295     -0.334      0.190      0.000
     26 C       -0.079      0.031      0.000      0.042      0.000      0.000
     29 C        1.132     -0.362      0.000     -0.488      0.259      0.000
     32 C       -1.151      0.556     -0.415      0.513     -0.277      0.058
     34 C        0.021     -0.015      0.016     -0.017      0.008     -0.002
     36 C       -0.014      0.000      0.000      0.015     -0.009      0.000
     39 C       -0.078      0.000      0.000      0.033      0.000      0.000
     43 C        0.000      0.000      0.000      0.000      0.000      0.000
     44 C        0.006     -0.002      0.003     -0.005      0.004     -0.001
     49 C        0.000      0.000      0.000      0.000      0.000      0.000
     50 C        0.000      0.000      0.000      0.000      0.000      0.000
     51 C        0.000      0.000      0.000      0.000      0.000      0.000
     54 C        0.000      0.000      0.000      0.000      0.000      0.000
     55 C        0.000      0.000      0.000      0.000      0.000      0.000
     56 C        0.000      0.000      0.000      0.000      0.000      0.000
     59 C        0.000      0.000      0.000      0.000      0.000      0.000
     60 C        0.000      0.000      0.000      0.000      0.000      0.000
                 14 C       15 C       18 C       20 C       22 C       23 C  
      0 C       70.201     -3.286     -2.636      6.954     -0.945      0.801
      1 C       -0.380      2.725      4.228     -1.154      0.334     -0.272
      2 C        3.568     -0.837     -1.077      1.263     -0.382      0.295
      5 C       -3.177     64.306      3.285     -1.503      0.446     -0.334
      6 C        2.736     -0.901     -1.017      0.785     -0.237      0.190
      7 C       -0.707      2.835      0.207     -0.147      0.047      0.000
     14 C        0.000      3.062     54.462     -2.783      3.867     -0.899
     15 C        3.062      0.000     -1.125      1.071     -0.276      0.239
     18 C       54.462     -1.125      0.000     70.027     -2.170      2.471
     20 C       -2.783      1.071     70.027      0.000     32.219     -2.876
     22 C        3.867     -0.276     -2.170     32.219      0.000     24.440
     23 C       -0.899      0.239      2.471     -2.876     24.440      0.000
     26 C        0.117     -0.021     -0.366      1.017     -1.918     25.402
     29 C       -1.160      0.343      2.401     -2.369      1.095     -2.192
     32 C        4.412     -0.337     -1.315     36.933     -0.214      1.520
     34 C        0.066      0.004      2.459     -1.349      1.616     -0.253
     36 C        0.012     -0.014     -0.150      3.423      0.068      0.179
     39 C        0.263     -0.023     -0.044      2.890     -0.335      2.531
     43 C        0.012      0.000      0.299      0.190      0.001     -0.110
     44 C        0.004      0.002     -0.077      0.698     -0.133      0.617
     49 C        0.000      0.000     -0.010     -0.050      0.137      0.044
     50 C        0.000      0.000      0.025      0.131     -0.006      0.118
     51 C        0.000      0.000      0.017      0.048      0.001     -0.002
     54 C        0.000      0.000      0.000      0.000      0.000      0.000
     55 C        0.000      0.000      0.000      0.000      0.000      0.000
     56 C        0.000      0.000      0.000      0.000      0.000      0.000
     59 C        0.000      0.000      0.000      0.000      0.000      0.000
     60 C        0.000      0.000      0.000      0.000      0.000      0.000
                 26 C       29 C       32 C       34 C       36 C       39 C  
      0 C       -0.079      1.132     -1.151      0.021     -0.014     -0.078
      1 C        0.031     -0.362      0.556     -0.015      0.000      0.000
      2 C        0.000      0.000     -0.415      0.016      0.000      0.000
      5 C        0.042     -0.488      0.513     -0.017      0.015      0.033
      6 C        0.000      0.259     -0.277      0.008     -0.009      0.000
      7 C        0.000      0.000      0.058     -0.002      0.000      0.000
     14 C        0.117     -1.160      4.412      0.066      0.012      0.263
     15 C       -0.021      0.343     -0.337      0.004     -0.014     -0.023
     18 C       -0.366      2.401     -1.315      2.459     -0.150     -0.044
     20 C        1.017     -2.369     36.933     -1.349      3.423      2.890
     22 C       -1.918      1.095     -0.214      1.616      0.068     -0.335
     23 C       25.402     -2.192      1.520     -0.253      0.179      2.531
     26 C        0.000     27.826     -0.929      2.298      3.024     -0.604
     29 C       27.826      0.000     23.345      0.800      0.786     28.365
     32 C       -0.929     23.345      0.000     27.872      1.200      3.338
     34 C        2.298      0.800     27.872      0.000     25.897      0.199
     36 C        3.024      0.786      1.200     25.897      0.000     26.939
     39 C       -0.604     28.365      3.338      0.199     26.939      0.000
     43 C       -0.021     -0.622      2.693      1.809      0.387     28.885
     44 C       -0.585     27.267     -0.971      0.800      0.289     -1.174
     49 C        0.356      0.071     -0.031      0.048      3.280     -1.212
     50 C       -0.119      3.585     -0.082     -0.046      0.618     -1.838
     51 C       -0.022      0.233      0.122      0.068     -0.027      3.242
     54 C       -0.001      0.097     -0.016     -0.000     -0.031     -0.487
     55 C       -0.000      0.002      0.000     -0.001     -0.003      0.021
     56 C        0.000      0.069      0.054     -0.003      0.071      0.865
     59 C        0.000      0.000      0.000      0.002      0.052     -0.011
     60 C        0.003      0.034      0.009      0.032      0.110      0.054
                 43 C       44 C       49 C       50 C       51 C       54 C  
      0 C        0.000      0.006      0.000      0.000      0.000      0.000
      1 C        0.000     -0.002      0.000      0.000      0.000      0.000
      2 C        0.000      0.003      0.000      0.000      0.000      0.000
      5 C        0.000     -0.005      0.000      0.000      0.000      0.000
      6 C        0.000      0.004      0.000      0.000      0.000      0.000
      7 C        0.000     -0.001      0.000      0.000      0.000      0.000
     14 C        0.012      0.004      0.000      0.000      0.000      0.000
     15 C        0.000      0.002      0.000      0.000      0.000      0.000
     18 C        0.299     -0.077     -0.010      0.025      0.017      0.000
     20 C        0.190      0.698     -0.050      0.131      0.048      0.000
     22 C        0.001     -0.133      0.137     -0.006      0.001      0.000
     23 C       -0.110      0.617      0.044      0.118     -0.002      0.000
     26 C       -0.021     -0.585      0.356     -0.119     -0.022     -0.001
     29 C       -0.622     27.267      0.071      3.585      0.233      0.097
     32 C        2.693     -0.971     -0.031     -0.082      0.122     -0.016
     34 C        1.809      0.800      0.048     -0.046      0.068     -0.000
     36 C        0.387      0.289      3.280      0.618     -0.027     -0.031
     39 C       28.885     -1.174     -1.212     -1.838      3.242     -0.487
     43 C        0.000      1.462     25.855     36.243     -0.221      3.755
     44 C        1.462      0.000     -0.096     -0.167     -0.010     -0.001
     49 C       25.855     -0.096      0.000     -2.945      3.393     -0.793
     50 C       36.243     -0.167     -2.945      0.000     69.360     -1.772
     51 C       -0.221     -0.010      3.393     69.360      0.000     36.289
     54 C        3.755     -0.001     -0.793     -1.772     36.289      0.000
     55 C       -0.075      0.000      0.026      2.857     -1.603     27.416
     56 C       -0.689     -0.002      0.909      3.233     -1.529     25.546
     59 C        0.182      0.000     -0.039      0.383      3.659     -0.335
     60 C        0.003     -0.002     -0.010     -0.091      0.472     -1.272
                 55 C       56 C       59 C       60 C  
      0 C        0.000      0.000      0.000      0.000
      1 C        0.000      0.000      0.000      0.000
      2 C        0.000      0.000      0.000      0.000
      5 C        0.000      0.000      0.000      0.000
      6 C        0.000      0.000      0.000      0.000
      7 C        0.000      0.000      0.000      0.000
     14 C        0.000      0.000      0.000      0.000
     15 C        0.000      0.000      0.000      0.000
     18 C        0.000      0.000      0.000      0.000
     20 C        0.000      0.000      0.000      0.000
     22 C        0.000      0.000      0.000      0.000
     23 C        0.000      0.000      0.000      0.000
     26 C       -0.000      0.000      0.000      0.003
     29 C        0.002      0.069      0.000      0.034
     32 C        0.000      0.054      0.000      0.009
     34 C       -0.001     -0.003      0.002      0.032
     36 C       -0.003      0.071      0.052      0.110
     39 C        0.021      0.865     -0.011      0.054
     43 C       -0.075     -0.689      0.182      0.003
     44 C        0.000     -0.002      0.000     -0.002
     49 C        0.026      0.909     -0.039     -0.010
     50 C        2.857      3.233      0.383     -0.091
     51 C       -1.603     -1.529      3.659      0.472
     54 C       27.416     25.546     -0.335     -1.272
     55 C        0.000     -1.677      0.854      1.625
     56 C       -1.677      0.000     26.819     26.605
     59 C        0.854     26.819      0.000     -0.809
     60 C        1.625     26.605     -0.809      0.000

NMR spin-spin coupling calculation done in   0.3 sec 

Maximum memory used throughout the entire PROP-calculation: 34.1 MB

--------------------------------
SUGGESTED CITATIONS FOR THIS RUN
--------------------------------

Below you find a list of papers that are relevant to this ORCA run
We neither can nor want to force you to cite these papers, but we appreciate if you do
You receive ORCA, which is the product of decades of hard work by many enthusiastic individuals, for free
The only thing we kindly ask in return is that you cite our papers,
We deeply appreciate it, if you show your appreciation for ORCA by not just citing the generic ORCA reference.

Please note that relegating all ORCA citations to the supporting information does *not* help us.
SI sections are not indexed - citations you put there will not count into any citation statistics
But we need these citations in order to attract the funding resources that allow us to do what we are doing

Therefore, if you are a happy ORCA user, please consider citing a few of the papers listed below in the main body of your paper

In addition to the list printed below, the program has created the file inpJ.bibtex that contains the list in bibtex format
You can import this file easily into all common literature databanks and citation aid programs


List of essential papers. We consider these as the minimum necessary citations

  1. Neese,F.
     Software update: the ORCA program system, version 5.0
     WIRES Comput. Molec. Sci., 2022 12(1)e1606
     doi.org/10.1002/wcms.1606

List of papers to cite with high priority. The work reported in these papers was absolutely
necessary for this run to complete.
Our perspective: the developers of density functionals and basis sets usually get cited in chemistry papers
Good! But without the algorithms to do something with them, the functionals or basis sets would not do anything.
Hence, in our opinion, the algorithm design and method developments papers are equally worthy of getting cited

  1. Neese,F.
     An improvement of the resolution of the identity approximation for the formation of the Coulomb matrix
     J. Comp. Chem., 2003 24(14)1740-1747
     doi.org/10.1002/jcc.10318
  2. Neese,F.; Wennmohs,F.; Hansen,A.; Becker,U.
     Efficient, approximate and parallel Hartree-Fock and hybrid DFT calculations. A 'chain-of-spheres' algorithm for the Hartree-Fock exchange
     Chem. Phys., 2009 356(1-3)98-109
     doi.org/10.1016/j.chemphys.2008.10.036
  3. Stoychev,G.L.; Auer,A.A.; Izsak,R.; Neese,F.
     Self-Consistent Field Calculation of Nuclear Magnetic Resonance Chemical Shielding Constants Using Gauge-Including Atomic Orbitals and Approximate Two-Electron Integrals
     J. Chem. Theory Comput., 2018 14(2)619-637
     doi.org/10.1021/acs.jctc.7b01006
  4. Garcia-Rates,M.; Neese,F.
     Effect of the Solute Cavity on the Solvation Energy and its Derivatives within the Framework of the Gaussian Charge Scheme
     J. Comput. Chem., 2020 41 922-939
     doi.org/10.1002/jcc.26139
  5. Helmich-Paris,B.; de Souza,B.; Neese,F.; Izsák,R.
     An improved chain of spheres for exchange algorithm
     J. Chem. Phys., 2021 155 104109
     doi.org/doi: 10.1063/5.0058766.
  6. Neese,F.
     The SHARK Integral Generation and Digestion System
     J. Comp. Chem., 2022  1-16
     doi.org/10.1002/jcc.26942
  7. Grimme,S.; Bannwarth,C.; Dohm,S.; Hansen,A.; Pisarek,J.; Pracht,P.; Seibert,J.; Neese,F.
     Fully Automated Quantum-Chemistry-Based Computation of Spin-Spin-Coupled Nuclear Magnetic Resonance Spectra
     Angew. Chem., Int. Ed., 2017 56 14763-14769
     doi.org/10.1002/anie.201708266
  8. Caldeweyher,E.; Bannwarth,C.; Grimme,S.
     Extension of the D3 dispersion coefficient model
     J. Chem. Phys., 2017 147 034112-XXXX
     doi.org/10.1063/1.4993215
  9. Caldeweyher,E.; Ehlert,S.; Hansen,A.; Neugebauer,H.; Spicher,S.; Bannwarth,C.; Grimme,S.
     A generally applicable atomic-charge dependent London dispersion correction
     J. Chem. Phys., 2019 150 154122-XXXX
     doi.org/10.1063/1.5090222
 10. Caldeweyher,E.; Mewes,J.; Ehlert,S.; Grimme,S.
     Extension and evaluation of the D4 London-dispersion model for periodic systems
     Phys. Chem. Chem. Phys., 2020 22(16)8499-8512
     doi.org/10.1039/D0CP00502A

List of suggested additional citations. These are papers that are important in the 'surrounding' of 
of this run, or papers that preceded the highly important papers. If you like your results we are grateful for a citation.

  1. Izsak,R.; Neese,F.
     An overlap fitted chain of spheres exchange method
     J. Chem. Phys., 2011 135 144105
     doi.org/10.1063/1.3646921
  2. Izsak,R.; Hansen,A.; Neese,F.
     The resolution of identity and chain of spheres approximations for the LPNO-CCSD singles Fock term
     Molec. Phys., 2012 110 2413-2417
     doi.org/10.1080/00268976.2012.687466
  3. Neese,F.
     The ORCA program system
     WIRES Comput. Molec. Sci., 2012 2(1)73-78
     doi.org/10.1002/wcms.81
  4. Izsak,R.; Neese,F.; Klopper,W.
     Robust fitting techniques in the chain of spheres approximation to the Fock exchange: The role of the complementary space
     J. Chem. Phys., 2013 139 
     doi.org/10.1063/1.4819264
  5. Neese,F.
     Software update: the ORCA program system, version 4.0
     WIRES Comput. Molec. Sci., 2018 8(1)1-6
     doi.org/10.1002/wcms.1327
  6. Neese,F.; Wennmohs,F.; Becker,U.; Riplinger,C.
     The ORCA quantum chemistry program package
     J. Chem. Phys., 2020 152 Art. No. L224108
     doi.org/10.1063/5.0004608

Timings for individual modules:

Sum of individual times          ...      139.482 sec (=   2.325 min)
Startup calculation              ...        3.836 sec (=   0.064 min)   2.7 %
SCF iterations                   ...       19.498 sec (=   0.325 min)  14.0 %
Property integrals               ...        0.748 sec (=   0.012 min)   0.5 %
SCF Response                     ...      114.861 sec (=   1.914 min)  82.3 %
Property calculations            ...        0.539 sec (=   0.009 min)   0.4 %
                             ****ORCA TERMINATED NORMALLY****
TOTAL RUN TIME: 0 days 0 hours 2 minutes 19 seconds 745 msec
