
                                 *****************
                                 * O   R   C   A *
                                 *****************

                                            #,                                       
                                            ###                                      
                                            ####                                     
                                            #####                                    
                                            ######                                   
                                           ########,                                 
                                     ,,################,,,,,                         
                               ,,#################################,,                 
                          ,,##########################################,,             
                       ,#########################################, ''#####,          
                    ,#############################################,,   '####,        
                  ,##################################################,,,,####,       
                ,###########''''           ''''###############################       
              ,#####''   ,,,,##########,,,,          '''####'''          '####       
            ,##' ,,,,###########################,,,                        '##       
           ' ,,###''''                  '''############,,,                           
         ,,##''                                '''############,,,,        ,,,,,,###''
      ,#''                                            '''#######################'''  
     '                                                          ''''####''''         
             ,#######,   #######,   ,#######,      ##                                
            ,#'     '#,  ##    ##  ,#'     '#,    #''#        ,####,   ,####,        
            ##       ##  ##   ,#'  ##            #'  '#       #'       #'  '#        
            ##       ##  #######   ##           ,######,      #####,   #    #        
            '#,     ,#'  ##    ##  '#,     ,#' ,#      #,     #,   #   #,  ,#        
             '#######'   ##     ##  '#######'  #'      '#     '####' # '####'        



                #########################################################
                #                        -***-                          #
                #          Department of theory and spectroscopy        #
                #                                                       #
                #                      Frank Neese                      #
                #                                                       #
                #     Directorship, Architecture, Infrastructure        #
                #                    SHARK, DRIVERS                     #
                #        Core code/Algorithms in most modules           #
                #                                                       #
                #        Max Planck Institute fuer Kohlenforschung      #
                #                Kaiser Wilhelm Platz 1                 #
                #                 D-45470 Muelheim/Ruhr                 #
                #                      Germany                          #
                #                                                       #
                #                  All rights reserved                  #
                #                        -***-                          #
                #########################################################


                         Program Version 6.0.0  -   RELEASE  -


 With contributions from (in alphabetic order):
   Daniel Aravena         : Magnetic Suceptibility
   Michael Atanasov       : Ab Initio Ligand Field Theory (pilot matlab implementation)
   Alexander A. Auer      : GIAO ZORA, VPT2 properties, NMR spectrum
   Ute Becker             : All parallelization in ORCA, NUMFREQ, NUMCALC
   Giovanni Bistoni       : ED, misc. LED, open-shell LED, HFLD
   Martin Brehm           : Molecular dynamics
   Dmytro Bykov           : pre 5.0 version of the SCF Hessian
   Marcos Casanova-Páez   : Triplet and SCS-CIS(D). UHF-(DLPNO)-IP/EA/STEOM-CCSD. UHF-CVS-IP/STEOM-CCSD
   Vijay G. Chilkuri      : MRCI spin determinant printing, contributions to CSF-ICE
   Pauline Colinet        : FMM embedding
   Dipayan Datta          : RHF DLPNO-CCSD density
   Achintya Kumar Dutta   : EOM-CC, STEOM-CC
   Nicolas Foglia         : Exact transition moments, OPA infrastructure, MCD improvements
   Dmitry Ganyushin       : Spin-Orbit,Spin-Spin,Magnetic field MRCI
   Miquel Garcia          : C-PCM and meta-GGA Hessian, CCSD/C-PCM, Gaussian charge scheme
   Tiago L. C. Gouveia    : GS-ROHF, GS-ROCIS
   Yang Guo               : DLPNO-NEVPT2, F12-NEVPT2, CIM, IAO-localization
   Andreas Hansen         : Spin unrestricted coupled pair/coupled cluster methods
   Ingolf Harden          : AUTO-CI MPn and infrastructure 
   Benjamin Helmich-Paris : MC-RPA, TRAH-(SCF,CASSCF), AVAS, COSX integrals, SCF dyn. polar.
   Lee Huntington         : MR-EOM, pCC
   Robert Izsak           : Overlap fitted RIJCOSX, COSX-SCS-MP3, EOM
   Riya Kayal             : Wick's Theorem for AUTO-CI, AUTO-CI UHF-CCSDT
   Emily Kempfer          : AUTO-CI, RHF CISDT and CCSDT
   Christian Kollmar      : KDIIS, OOCD, Brueckner-CCSD(T), CCSD density, CASPT2, CASPT2-K, improved NEVPT2
   Axel Koslowski         : Symmetry handling
   Simone Kossmann        : Meta GGA functionals, TD-DFT gradient, OOMP2, (MP2 Hessian; deprecated post 5.0)
   Lucas Lang             : DCDCAS
   Marvin Lechner         : AUTO-CI (C++ implementation), FIC-MRCC
   Spencer Leger          : CASSCF response
   Dagmar Lenk            : GEPOL surface, SMD, ORCA-2-JSON
   Dimitrios Liakos       : Extrapolation schemes; Compound Job, initial MDCI parallelization
   Dimitrios Manganas     : Further ROCIS development; embedding schemes. LFT, Crystal Embedding
   Dimitrios Pantazis     : SARC Basis sets
   Anastasios Papadopoulos: AUTO-CI, single reference methods and gradients
   Taras Petrenko         : pre 6.0 DFT Hessian and TD-DFT gradient, (ASA, deprecated), ECA, 1-Electron XAS/XES, NRVS
   Peter Pinski           : DLPNO-MP2, DLPNO-MP2 Gradient
   Christoph Reimann      : Effective Core Potentials
   Marius Retegan         : Local ZFS, SOC
   Christoph Riplinger    : Optimizer, TS searches, QM/MM, DLPNO-CCSD(T), (RO)-DLPNO pert. Triples
   Michael Roemelt        : Original ROCIS implementation
   Masaaki Saitow         : Open-shell DLPNO-CCSD energy and density
   Barbara Sandhoefer     : DKH picture change effects
   Kantharuban Sivalingam : CASSCF convergence/infrastructure, NEVPT2 and variants, FIC-MRCI
   Bernardo de Souza      : ESD, SOC TD-DFT
   Georgi Stoychev        : AutoAux, RI-MP2 NMR, DLPNO-MP2 response, X2C
   Van Anh Tran           : RI-MP2 g-tensors
   Willem Van den Heuvel  : Paramagnetic NMR
   Zikuan Wang            : NOTCH, Electric field optimization 
   Frank Wennmohs         : Technical directorship and infrastructure
   Hang Xu                : AUTO-CI-Response properties 


 We gratefully acknowledge several colleagues who have allowed us to
 interface, adapt or use parts of their codes:
   Stefan Grimme, W. Hujo, H. Kruse, P. Pracht,  : VdW corrections, initial TS optimization,
                  C. Bannwarth, S. Ehlert,         DFT functionals, gCP, sTDA/sTD-DF
                  L. Wittmann, M. Mueller
   Ed Valeev, F. Pavosevic, A. Kumar             : LibInt (2-el integral package), F12 methods
   Garnet Chan, S. Sharma, J. Yang, R. Olivares  : DMRG
   Ulf Ekstrom                                   : XCFun DFT Library
   Mihaly Kallay                                 : mrcc  (arbitrary order and MRCC methods)
   Frank Weinhold                                : gennbo (NPA and NBO analysis)
   Simon Mueller                                 : openCOSMO-RS
   Christopher J. Cramer and Donald G. Truhlar   : smd solvation model
   Lars Goerigk                                  : TD-DFT with DH, B97 family of functionals
   V. Asgeirsson, H. Jonsson                     : NEB implementation
   FAccTs GmbH                                   : IRC, NEB, NEB-TS, DLPNO-Multilevel, CI-OPT
                                                   MM, QMMM, 2- and 3-layer-ONIOM, Crystal-QMMM,
                                                   LR-CPCM, SF, NACMEs, symmetry and pop. for TD-DFT,
                                                   nearIR, NL-DFT gradient (VV10), updates on ESD,
                                                   ML-optimized integration grids, MBIS, APM,
                                                   GOAT, DOCKER, SOLVATOR, interface openCOSMO-RS
   S Lehtola, MJT Oliveira, MAL Marques          : LibXC Library
   Liviu Ungur et al                             : ANISO software


 Your calculation uses the libint2 library for the computation of 2-el integrals
 For citations please refer to: http://libint.valeyev.net

 Your ORCA version has been built with support for libXC version: 6.2.2
 For citations please refer to: https://libxc.gitlab.io

 This ORCA versions uses:
   CBLAS   interface :  Fast vector & matrix operations
   LAPACKE interface :  Fast linear algebra routines
   SCALAPACK package :  Parallel linear algebra routines
   Shared memory     :  Shared parallel matrices
   BLAS/LAPACK       :  OpenBLAS 0.3.27  USE64BITINT DYNAMIC_ARCH NO_AFFINITY Zen SINGLE_THREADED
        Core in use  :  Zen
   Copyright (c) 2011-2014, The OpenBLAS Project


NOTE: MaxCore=8000 MB was set to SCF,MP2,MDCI,CIPSI,MRCI and CIS
      => If you want to overwrite this, your respective input block should be placed after the MaxCore statement
Your calculation utilizes the atom-pairwise dispersion correction
based on EEQ partial charges (D4)


================================================================================

----- Orbital basis set information -----
Your calculation utilizes the basis: def2-SVP
   F. Weigend and R. Ahlrichs, Phys. Chem. Chem. Phys. 7, 3297 (2005).

----- AuxJ basis set information -----
Your calculation utilizes the auxiliary basis: def2/J
   F. Weigend, Phys. Chem. Chem. Phys. 8, 1057 (2006).

================================================================================
                                        WARNINGS
                       Please study these warnings very carefully!
================================================================================

WARNING: Old DensityContainer found on disk!
         Will remove this file - 
         If you want to keep old densities, please start your calculation with a different basename. 


================================================================================
                                       INPUT FILE
================================================================================
NAME = inpS
|  1> ! wb97x-d4
|  2> ! def2-svp
|  3> ! def2/J RIJCOSX
|  4> ! DEFGRID2
|  5> ! scfconv7
|  6> ! smallprint printgap noloewdin
|  7> ! NOSOSCF
|  8> %MaxCore 8000
|  9> %output
| 10>        print[P_BondOrder_M] 1
| 11>        print[P_Mayer] 1
| 12>        print[P_basis] 2
| 13> end
| 14> %pal
| 15>     nprocs 4
| 16> end
| 17> ! CPCM(chloroform)
| 18> *xyz 0 1
| 19> C   -5.0429603200   0.2942386700   0.3052534600
| 20> C   -6.4478552300  -0.1258585000  -0.0573056400
| 21> C   -6.9773517800   0.6488087600  -1.2703459000
| 22> H   -7.1235832500   0.0896026400   0.7878189300
| 23> H   -6.4913661800  -1.2027530200  -0.2538933200
| 24> C   -4.8629889900   1.7557863800   0.4370393000
| 25> C   -5.4366425100   2.5613805300  -0.7067490900
| 26> C   -6.8810505300   2.1501745900  -1.0230105800
| 27> H   -4.8209579800   2.3814041600  -1.6011295800
| 28> H   -5.3804519100   3.6315746700  -0.4814042800
| 29> H   -7.2466541300   2.6935943300  -1.9022673800
| 30> H   -7.5330635600   2.4098739300  -0.1753537400
| 31> O   -8.3137575200   0.2473266600  -1.5993381300
| 32> H   -6.3780711800   0.3851795100  -2.1530506100
| 33> C   -4.0558413600  -0.6228304900   0.4402252900
| 34> C   -4.2842738100   2.3341262300   1.4956082400
| 35> H   -3.9006550600   1.7443455900   2.3234540500
| 36> H   -4.1918087600   3.4156696800   1.5606462900
| 37> C   -2.6594891800  -0.3498957900   0.6895722500
| 38> H   -4.3459214100  -1.6640668600   0.3062094700
| 39> C   -1.6868938400  -1.2646974700   0.8913936400
| 40> H   -2.3749718400   0.6997226000   0.7020408700
| 41> C   -1.8808150400  -2.7586600200   0.9514142700
| 42> C   -0.9308709600  -3.4970068700  -0.0106283200
| 43> H   -2.9150374900  -3.0521052100   0.7517151600
| 44> H   -1.6508714400  -3.0858957200   1.9780912300
| 45> C    0.5326053900  -3.0648742400   0.1552914000
| 46> H   -1.2559603700  -3.3163062300  -1.0430229200
| 47> H   -1.0161536400  -4.5774966200   0.1582217400
| 48> C    0.6948167700  -1.5430893300   0.0379186700
| 49> H    1.1445187600  -3.5897822000  -0.5856266200
| 50> H    0.8916942300  -3.3772316900   1.1475951000
| 51> C   -0.2507757500  -0.8896978500   1.0951825600
| 52> H    0.0549767600  -1.3431949100   2.0563056500
| 53> C    0.1841600800   0.5721404200   1.1318437200
| 54> H   -8.8781331200   0.4689023400  -0.8465525900
| 55> C    1.7180377700   0.4976930600   0.9354758400
| 56> H   -0.1029387600   1.0647207700   2.0668597600
| 57> H   -0.2798723600   1.1354197800   0.3144878900
| 58> C    2.0572346200  -0.9624826000   0.5096147300
| 59> H    2.2591770100   0.7669660700   1.8480573400
| 60> H    2.0491331000   1.2009171200   0.1622064200
| 61> H    2.3426118000  -1.5318841000   1.4094517800
| 62> C    3.2595265400  -1.0053631100  -0.4553432100
| 63> C    0.3544418600  -1.0587124400  -1.3780294600
| 64> H   -0.7076187500  -1.1953922100  -1.6037671100
| 65> H    0.9324798800  -1.6130027000  -2.1256984800
| 66> H    0.5808765300   0.0046082300  -1.5055153900
| 67> H    3.0061589300  -0.4165666200  -1.3495003500
| 68> C    3.6377253700  -2.4280951300  -0.8944894600
| 69> C    4.4530864100  -0.3602071300   0.2002158600
| 70> C    5.0912878500   0.7125484600  -0.2667012700
| 71> H    4.7997393700  -0.8484366000   1.1138180900
| 72> H    4.7117579300   1.1761564000  -1.1820144500
| 73> C    6.2955394600   1.3938166800   0.3286308900
| 74> C    6.8453855300   0.6913598200   1.5693284400
| 75> C    5.9926277100   2.9028189300   0.5515537000
| 76> H    7.0828977700   1.3667051000  -0.4441801300
| 77> H    5.5687076800   3.2681009600  -0.3966256000
| 78> C    7.2625707500   3.7109278500   0.8286989600
| 79> C    4.9516790800   3.1372333100   1.6478542000
| 80> H    7.1316334900  -0.3390037100   1.3336161700
| 81> H    6.1051026500   0.6537331900   2.3756082100
| 82> H    7.7335651000   1.2043319100   1.9492160900
| 83> H    7.0384071200   4.7833808100   0.8424654000
| 84> H    8.0249829700   3.5332611100   0.0613974200
| 85> H    7.6939166900   3.4545845500   1.8028640500
| 86> H    5.3495038600   2.8696404500   2.6336823300
| 87> H    4.0483072700   2.5430366500   1.4736427500
| 88> H    4.6641897600   4.1938588400   1.6846501900
| 89> H    4.5686527800  -2.4112359700  -1.4712054200
| 90> H    2.8630928900  -2.8778403200  -1.5206891900
| 91> H    3.7902939300  -3.0758858600  -0.0225012000
| 92> *
| 93> %eprnmr
| 94>  Nuclei = all C { shift }
| 95>  origin giao
| 96>  giao_2el giao_2el_same_as_scf
| 97>  giao_1el giao_1el_analytic
| 98> end
| 99> 
|100>                          ****END OF INPUT****
================================================================================

                       ****************************
                       * Single Point Calculation *
                       ****************************

---------------------------------
CARTESIAN COORDINATES (ANGSTROEM)
---------------------------------
  C     -5.042960    0.294239    0.305253
  C     -6.447855   -0.125859   -0.057306
  C     -6.977352    0.648809   -1.270346
  H     -7.123583    0.089603    0.787819
  H     -6.491366   -1.202753   -0.253893
  C     -4.862989    1.755786    0.437039
  C     -5.436643    2.561381   -0.706749
  C     -6.881051    2.150175   -1.023011
  H     -4.820958    2.381404   -1.601130
  H     -5.380452    3.631575   -0.481404
  H     -7.246654    2.693594   -1.902267
  H     -7.533064    2.409874   -0.175354
  O     -8.313758    0.247327   -1.599338
  H     -6.378071    0.385180   -2.153051
  C     -4.055841   -0.622830    0.440225
  C     -4.284274    2.334126    1.495608
  H     -3.900655    1.744346    2.323454
  H     -4.191809    3.415670    1.560646
  C     -2.659489   -0.349896    0.689572
  H     -4.345921   -1.664067    0.306209
  C     -1.686894   -1.264697    0.891394
  H     -2.374972    0.699723    0.702041
  C     -1.880815   -2.758660    0.951414
  C     -0.930871   -3.497007   -0.010628
  H     -2.915037   -3.052105    0.751715
  H     -1.650871   -3.085896    1.978091
  C      0.532605   -3.064874    0.155291
  H     -1.255960   -3.316306   -1.043023
  H     -1.016154   -4.577497    0.158222
  C      0.694817   -1.543089    0.037919
  H      1.144519   -3.589782   -0.585627
  H      0.891694   -3.377232    1.147595
  C     -0.250776   -0.889698    1.095183
  H      0.054977   -1.343195    2.056306
  C      0.184160    0.572140    1.131844
  H     -8.878133    0.468902   -0.846553
  C      1.718038    0.497693    0.935476
  H     -0.102939    1.064721    2.066860
  H     -0.279872    1.135420    0.314488
  C      2.057235   -0.962483    0.509615
  H      2.259177    0.766966    1.848057
  H      2.049133    1.200917    0.162206
  H      2.342612   -1.531884    1.409452
  C      3.259527   -1.005363   -0.455343
  C      0.354442   -1.058712   -1.378029
  H     -0.707619   -1.195392   -1.603767
  H      0.932480   -1.613003   -2.125698
  H      0.580877    0.004608   -1.505515
  H      3.006159   -0.416567   -1.349500
  C      3.637725   -2.428095   -0.894489
  C      4.453086   -0.360207    0.200216
  C      5.091288    0.712548   -0.266701
  H      4.799739   -0.848437    1.113818
  H      4.711758    1.176156   -1.182014
  C      6.295539    1.393817    0.328631
  C      6.845386    0.691360    1.569328
  C      5.992628    2.902819    0.551554
  H      7.082898    1.366705   -0.444180
  H      5.568708    3.268101   -0.396626
  C      7.262571    3.710928    0.828699
  C      4.951679    3.137233    1.647854
  H      7.131633   -0.339004    1.333616
  H      6.105103    0.653733    2.375608
  H      7.733565    1.204332    1.949216
  H      7.038407    4.783381    0.842465
  H      8.024983    3.533261    0.061397
  H      7.693917    3.454585    1.802864
  H      5.349504    2.869640    2.633682
  H      4.048307    2.543037    1.473643
  H      4.664190    4.193859    1.684650
  H      4.568653   -2.411236   -1.471205
  H      2.863093   -2.877840   -1.520689
  H      3.790294   -3.075886   -0.022501

----------------------------
CARTESIAN COORDINATES (A.U.)
----------------------------
  NO LB      ZA    FRAG     MASS         X           Y           Z
   0 C     6.0000    0    12.011   -9.529814    0.556031    0.576845
   1 C     6.0000    0    12.011  -12.184681   -0.237838   -0.108292
   2 C     6.0000    0    12.011  -13.185284    1.226071   -2.400606
   3 H     1.0000    0     1.008  -13.461621    0.169324    1.488762
   4 H     1.0000    0     1.008  -12.266904   -2.272874   -0.479789
   5 C     6.0000    0    12.011   -9.189717    3.317955    0.825885
   6 C     6.0000    0    12.011  -10.273765    4.840308   -1.335562
   7 C     6.0000    0    12.011  -13.003301    4.063241   -1.933210
   8 H     1.0000    0     1.008   -9.110290    4.500202   -3.025696
   9 H     1.0000    0     1.008  -10.167581    6.862682   -0.909722
  10 H     1.0000    0     1.008  -13.694192    5.090156   -3.594764
  11 H     1.0000    0     1.008  -14.235427    4.554002   -0.331371
  12 O     8.0000    0    15.999  -15.710725    0.467380   -3.022311
  13 H     1.0000    0     1.008  -12.052808    0.727884   -4.068676
  14 C     6.0000    0    12.011   -7.664429   -1.176979    0.831905
  15 C     6.0000    0    12.011   -8.096104    4.410859    2.826290
  16 H     1.0000    0     1.008   -7.371170    3.296335    4.390692
  17 H     1.0000    0     1.008   -7.921371    6.454680    2.949194
  18 C     6.0000    0    12.011   -5.025706   -0.661207    1.303103
  19 H     1.0000    0     1.008   -8.212601   -3.144631    0.578652
  20 C     6.0000    0    12.011   -3.187767   -2.389932    1.684490
  21 H     1.0000    0     1.008   -4.488046    1.322284    1.326665
  22 C     6.0000    0    12.011   -3.554225   -5.213112    1.797912
  23 C     6.0000    0    12.011   -1.759091   -6.608385   -0.020085
  24 H     1.0000    0     1.008   -5.508623   -5.767643    1.420536
  25 H     1.0000    0     1.008   -3.119695   -5.831498    3.738051
  26 C     6.0000    0    12.011    1.006478   -5.791773    0.293458
  27 H     1.0000    0     1.008   -2.373421   -6.266911   -1.971028
  28 H     1.0000    0     1.008   -1.920252   -8.650215    0.298996
  29 C     6.0000    0    12.011    1.313013   -2.916016    0.071656
  30 H     1.0000    0     1.008    2.162827   -6.783705   -1.106674
  31 H     1.0000    0     1.008    1.685058   -6.382043    2.168640
  32 C     6.0000    0    12.011   -0.473897   -1.681285    2.069595
  33 H     1.0000    0     1.008    0.103891   -2.538271    3.885855
  34 C     6.0000    0    12.011    0.348012    1.081189    2.138875
  35 H     1.0000    0     1.008  -16.777240    0.886097   -1.599753
  36 C     6.0000    0    12.011    3.246621    0.940504    1.767793
  37 H     1.0000    0     1.008   -0.194526    2.012031    3.905799
  38 H     1.0000    0     1.008   -0.528882    2.145632    0.594296
  39 C     6.0000    0    12.011    3.887610   -1.818829    0.963032
  40 H     1.0000    0     1.008    4.269226    1.449356    3.492322
  41 H     1.0000    0     1.008    3.872300    2.269404    0.306526
  42 H     1.0000    0     1.008    4.426895   -2.894841    2.663478
  43 C     6.0000    0    12.011    6.159612   -1.899861   -0.860474
  44 C     6.0000    0    12.011    0.669798   -2.000677   -2.604098
  45 H     1.0000    0     1.008   -1.337206   -2.258964   -3.030681
  46 H     1.0000    0     1.008    1.762132   -3.048133   -4.016988
  47 H     1.0000    0     1.008    1.097698    0.008708   -2.845012
  48 H     1.0000    0     1.008    5.680817   -0.787197   -2.550186
  49 C     6.0000    0    12.011    6.874305   -4.588435   -1.690340
  50 C     6.0000    0    12.011    8.415114   -0.680693    0.378353
  51 C     6.0000    0    12.011    9.621140    1.346521   -0.503992
  52 H     1.0000    0     1.008    9.070193   -1.603313    2.104811
  53 H     1.0000    0     1.008    8.903932    2.222613   -2.233684
  54 C     6.0000    0    12.011   11.896845    2.633932    0.621022
  55 C     6.0000    0    12.011   12.935904    1.306481    2.965601
  56 C     6.0000    0    12.011   11.324425    5.485533    1.042285
  57 H     1.0000    0     1.008   13.384737    2.582698   -0.839379
  58 H     1.0000    0     1.008   10.523332    6.175816   -0.749514
  59 C     6.0000    0    12.011   13.724270    7.012637    1.566014
  60 C     6.0000    0    12.011    9.357317    5.928512    3.113993
  61 H     1.0000    0     1.008   13.476834   -0.640624    2.520169
  62 H     1.0000    0     1.008   11.536972    1.235377    4.489249
  63 H     1.0000    0     1.008   14.614320    2.275857    3.683485
  64 H     1.0000    0     1.008   13.300662    9.039280    1.592029
  65 H     1.0000    0     1.008   15.165020    6.676896    0.116024
  66 H     1.0000    0     1.008   14.539395    6.528219    3.406919
  67 H     1.0000    0     1.008   10.109097    5.422835    4.976938
  68 H     1.0000    0     1.008    7.650192    4.805643    2.784781
  69 H     1.0000    0     1.008    8.814041    7.925245    3.183527
  70 H     1.0000    0     1.008    8.633503   -4.556576   -2.780175
  71 H     1.0000    0     1.008    5.410461   -5.438330   -2.873686
  72 H     1.0000    0     1.008    7.162617   -5.812582   -0.042521

--------------------------------
INTERNAL COORDINATES (ANGSTROEM)
--------------------------------
 C      0   0   0     0.000000000000     0.00000000     0.00000000
 C      1   0   0     1.510516614069     0.00000000     0.00000000
 C      2   1   0     1.533604457661   111.74576579     0.00000000
 H      2   1   3     1.103298417782   109.35777185   241.46759607
 H      2   1   3     1.095555441730   110.69458889   122.88720942
 C      1   2   3     1.478471810977   114.17608951    50.53933740
 C      6   1   2     1.512055612939   114.39802935   311.95281650
 C      3   2   1     1.524646859690   110.32177368   305.04992572
 H      7   6   1     1.100625002048   108.38183844   290.04707270
 H      7   6   1     1.095104179616   110.21461929   172.83097839
 H      8   3   2     1.096386577125   109.68919687   179.07936728
 H      8   3   2     1.100493914970   108.65762126   296.51111230
 O      3   2   1     1.433668045932   111.21653122   180.35884691
 H      3   2   1     1.099001921767   109.01764240    65.19585240
 C      1   2   3     1.354118562131   120.90224235   232.75536670
 C      6   1   2     1.337892537685   123.40197346   129.74872662
 H     16   6   1     1.086431421584   121.39731524     0.65906316
 H     16   6   1     1.087435500458   120.93310419   181.33153354
 C     15   1   2     1.444460683963   126.43677992   175.36751651
 H     15   1   2     1.089164750453   116.16949521   358.00028858
 C     19  15   1     1.350383531661   126.44451572   176.39978163
 H     19  15   1     1.087568088844   115.92754171   355.64995762
 C     21  19  15     1.507690952628   125.77346118   357.34812906
 C     23  21  19     1.540479071914   111.76226077   127.50477148
 H     23  21  19     1.093437648041   112.35294480     3.40318259
 H     23  21  19     1.101827047558   107.73057913   246.12890719
 C     24  23  21     1.534936803391   112.67493365    50.91979896
 H     24  23  21     1.097348830546   109.02210785   288.82809394
 H     24  23  21     1.096923688378   109.14997756   172.87021360
 C     27  24  23     1.534900062497   111.81565865   306.16759104
 H     27  24  23     1.094954725647   108.94881111   182.62690784
 H     27  24  23     1.100535598977   109.18714611    66.13690470
 C     21  19  15     1.498195517060   122.76259905   177.75209700
 H     33  21  19     1.105848893353   106.29637295   124.31268505
 C     33  21  19     1.525609499350   121.09001474     2.10110318
 H     13   3   2     0.966592814517   107.53925882    62.69981644
 C     35  33  21     1.548187172659   103.49321202   196.13249079
 H     35  33  21     1.095132932658   112.13357930    74.11378264
 H     35  33  21     1.095755582057   110.72680789   314.51038318
 C     30  27  24     1.554279172459   116.09056778   166.36580677
 H     37  35  33     1.094597928522   111.85307757   249.92153705
 H     37  35  33     1.096400379432   110.96552061   131.37942116
 H     40  30  27     1.102435902726   106.36040939   321.14031110
 C     40  30  27     1.542234879973   118.88639913    81.97458317
 C     30  27  24     1.534726411376   111.10186081   294.27833638
 H     45  30  27     1.094354414926   111.47710671    66.76919182
 H     45  30  27     1.095616086211   110.66604863   306.62148697
 H     45  30  27     1.094612337485   111.60238773   186.78858745
 H     44  40  30     1.100178823395   108.30684975    61.21000440
 C     44  40  30     1.536245483195   113.36120096   300.54143861
 C     44  40  30     1.506840766658   109.47440347   178.58615294
 C     51  44  40     1.332710486258   124.85691728   240.61450968
 H     51  44  40     1.092339381655   115.07934908    61.70236096
 H     52  51  44     1.093971434585   117.91244751     1.38372982
 C     52  51  44     1.506243243470   127.47839349   180.80932507
 C     55  52  51     1.528105608730   113.61998846     3.20137300
 C     55  52  51     1.555164910230   109.86468079   234.74630919
 H     55  52  51     1.103587340780   106.41077908   121.28519868
 H     57  55  52     1.100991888356   105.87117296   310.79793210
 C     57  55  52     1.530557037999   112.12662441   193.88985481
 C     57  55  52     1.529836245534   112.57763273    68.24071113
 H     56  55  52     1.095055785240   110.59899617    58.92928653
 H     56  55  52     1.095226722290   111.73399217   299.05544945
 H     56  55  52     1.093763201203   111.01380339   178.40375112
 H     60  57  55     1.095716295077   110.44462644   172.11598204
 H     60  57  55     1.096170386844   111.39338069    52.04658867
 H     60  57  55     1.095795980091   111.35059556   291.29668452
 H     61  57  55     1.096233367584   111.10680177    68.41535981
 H     61  57  55     1.095216840251   111.35355962   307.90893726
 H     61  57  55     1.095655769228   110.51024844   187.63948185
 H     50  44  40     1.095222065375   110.21370477   187.21173683
 H     50  44  40     1.092910022303   111.74034594    67.27006029
 H     50  44  40     1.096938248468   110.72688240   306.67843182

---------------------------
INTERNAL COORDINATES (A.U.)
---------------------------
 C      0   0   0     0.000000000000     0.00000000     0.00000000
 C      1   0   0     2.854462721329     0.00000000     0.00000000
 C      2   1   0     2.898092422741   111.74576579     0.00000000
 H      2   1   3     2.084931853597   109.35777185   241.46759607
 H      2   1   3     2.070299749396   110.69458889   122.88720942
 C      1   2   3     2.793906819469   114.17608951    50.53933740
 C      6   1   2     2.857371007714   114.39802935   311.95281650
 C      3   2   1     2.881165015757   110.32177368   305.04992572
 H      7   6   1     2.079879830017   108.38183844   290.04707270
 H      7   6   1     2.069446987587   110.21461929   172.83097839
 H      8   3   2     2.071870367674   109.68919687   179.07936728
 H      8   3   2     2.079632111339   108.65762126   296.51111230
 O      3   2   1     2.709239973765   111.21653122   180.35884691
 H      3   2   1     2.076812652793   109.01764240    65.19585240
 C      1   2   3     2.558913235287   120.90224235   232.75536670
 C      6   1   2     2.528250492842   123.40197346   129.74872662
 H     16   6   1     2.053057850080   121.39731524     0.65906316
 H     16   6   1     2.054955284170   120.93310419   181.33153354
 C     15   1   2     2.729635103907   126.43677992   175.36751651
 H     15   1   2     2.058223093077   116.16949521   358.00028858
 C     19  15   1     2.551855050597   126.44451572   176.39978163
 H     19  15   1     2.055205839907   115.92754171   355.64995762
 C     21  19  15     2.849122995059   125.77346118   357.34812906
 C     23  21  19     2.911083560955   111.76226077   127.50477148
 H     23  21  19     2.066297699316   112.35294480     3.40318259
 H     23  21  19     2.082151366832   107.73057913   246.12890719
 C     24  23  21     2.900610191286   112.67493365    50.91979896
 H     24  23  21     2.073688763110   109.02210785   288.82809394
 H     24  23  21     2.072885360845   109.14997756   172.87021360
 C     27  24  23     2.900540761058   111.81565865   306.16759104
 H     27  24  23     2.069164560516   108.94881111   182.62690784
 H     27  24  23     2.079710882698   109.18714611    66.13690470
 C     21  19  15     2.831179222313   122.76259905   177.75209700
 H     33  21  19     2.089751553938   106.29637295   124.31268505
 C     33  21  19     2.882984141080   121.09001474     2.10110318
 H     13   3   2     1.826595702453   107.53925882    62.69981644
 C     35  33  21     2.925649760376   103.49321202   196.13249079
 H     35  33  21     2.069501322962   112.13357930    74.11378264
 H     35  33  21     2.070677959803   110.72680789   314.51038318
 C     30  27  24     2.937161971605   116.09056778   166.36580677
 H     37  35  33     2.068490311664   111.85307757   249.92153705
 H     37  35  33     2.071896450253   110.96552061   131.37942116
 H     40  30  27     2.083301936355   106.36040939   321.14031110
 C     40  30  27     2.914401557329   118.88639913    81.97458317
 C     30  27  24     2.900212607996   111.10186081   294.27833638
 H     45  30  27     2.068030137658   111.47710671    66.76919182
 H     45  30  27     2.070414350857   110.66604863   306.62148697
 H     45  30  27     2.068517540659   111.60238773   186.78858745
 H     44  40  30     2.079036674556   108.30684975    61.21000440
 C     44  40  30     2.903083237711   113.36120096   300.54143861
 C     44  40  30     2.847516376412   109.47440347   178.58615294
 C     51  44  40     2.518457834832   124.85691728   240.61450968
 H     51  44  40     2.064222276625   115.07934908    61.70236096
 H     52  51  44     2.067306409699   117.91244751     1.38372982
 C     52  51  44     2.846387221228   127.47839349   180.80932507
 C     55  52  51     2.887701104208   113.61998846     3.20137300
 C     55  52  51     2.938835773419   109.86468079   234.74630919
 H     55  52  51     2.085477838936   106.41077908   121.28519868
 H     57  55  52     2.080573144661   105.87117296   310.79793210
 C     57  55  52     2.892333634164   112.12662441   193.88985481
 C     57  55  52     2.890971533806   112.57763273    68.24071113
 H     56  55  52     2.069355535469   110.59899617    58.92928653
 H     56  55  52     2.069678559680   111.73399217   299.05544945
 H     56  55  52     2.066912905636   111.01380339   178.40375112
 H     60  57  55     2.070603718171   110.44462644   172.11598204
 H     60  57  55     2.071461827250   111.39338069    52.04658867
 H     60  57  55     2.070754301024   111.35059556   291.29668452
 H     61  57  55     2.071580843600   111.10680177    68.41535981
 H     61  57  55     2.069659885333   111.35355962   307.90893726
 H     61  57  55     2.070489340891   110.51024844   187.63948185
 H     50  44  40     2.069669759386   110.21370477   187.21173683
 H     50  44  40     2.065300631171   111.74034594    67.27006029
 H     50  44  40     2.072912875428   110.72688240   306.67843182

---------------------
BASIS SET INFORMATION
---------------------
There are 3 groups of distinct atoms

 Group   1 Type C   : 7s4p1d contracted to 3s2p1d pattern {511/31/1}
 Group   2 Type H   : 4s1p contracted to 2s1p pattern {31/1}
 Group   3 Type O   : 7s4p1d contracted to 3s2p1d pattern {511/31/1}

Atom   0C    basis set group =>   1
Atom   1C    basis set group =>   1
Atom   2C    basis set group =>   1
Atom   3H    basis set group =>   2
Atom   4H    basis set group =>   2
Atom   5C    basis set group =>   1
Atom   6C    basis set group =>   1
Atom   7C    basis set group =>   1
Atom   8H    basis set group =>   2
Atom   9H    basis set group =>   2
Atom  10H    basis set group =>   2
Atom  11H    basis set group =>   2
Atom  12O    basis set group =>   3
Atom  13H    basis set group =>   2
Atom  14C    basis set group =>   1
Atom  15C    basis set group =>   1
Atom  16H    basis set group =>   2
Atom  17H    basis set group =>   2
Atom  18C    basis set group =>   1
Atom  19H    basis set group =>   2
Atom  20C    basis set group =>   1
Atom  21H    basis set group =>   2
Atom  22C    basis set group =>   1
Atom  23C    basis set group =>   1
Atom  24H    basis set group =>   2
Atom  25H    basis set group =>   2
Atom  26C    basis set group =>   1
Atom  27H    basis set group =>   2
Atom  28H    basis set group =>   2
Atom  29C    basis set group =>   1
Atom  30H    basis set group =>   2
Atom  31H    basis set group =>   2
Atom  32C    basis set group =>   1
Atom  33H    basis set group =>   2
Atom  34C    basis set group =>   1
Atom  35H    basis set group =>   2
Atom  36C    basis set group =>   1
Atom  37H    basis set group =>   2
Atom  38H    basis set group =>   2
Atom  39C    basis set group =>   1
Atom  40H    basis set group =>   2
Atom  41H    basis set group =>   2
Atom  42H    basis set group =>   2
Atom  43C    basis set group =>   1
Atom  44C    basis set group =>   1
Atom  45H    basis set group =>   2
Atom  46H    basis set group =>   2
Atom  47H    basis set group =>   2
Atom  48H    basis set group =>   2
Atom  49C    basis set group =>   1
Atom  50C    basis set group =>   1
Atom  51C    basis set group =>   1
Atom  52H    basis set group =>   2
Atom  53H    basis set group =>   2
Atom  54C    basis set group =>   1
Atom  55C    basis set group =>   1
Atom  56C    basis set group =>   1
Atom  57H    basis set group =>   2
Atom  58H    basis set group =>   2
Atom  59C    basis set group =>   1
Atom  60C    basis set group =>   1
Atom  61H    basis set group =>   2
Atom  62H    basis set group =>   2
Atom  63H    basis set group =>   2
Atom  64H    basis set group =>   2
Atom  65H    basis set group =>   2
Atom  66H    basis set group =>   2
Atom  67H    basis set group =>   2
Atom  68H    basis set group =>   2
Atom  69H    basis set group =>   2
Atom  70H    basis set group =>   2
Atom  71H    basis set group =>   2
Atom  72H    basis set group =>   2

-------------------------
BASIS SET IN INPUT FORMAT
-------------------------

 # Basis set for element : H 
 NewGTO H 
 S 3 
   1      13.0107010000      0.0334854848
   2       1.9622572000      0.2347218709
   3       0.4445379600      0.8137702853
 S 1 
   1       0.1219496200      1.0000000000
 P 1 
   1       0.8000000000      1.0000000000
  end;

 # Basis set for element : C 
 NewGTO C 
 S 5 
   1    1238.4016938000      0.0055173650
   2     186.2900499200      0.0410888285
   3      42.2511763460      0.1822538213
   4      11.6765579320      0.4682845944
   5       3.5930506482      0.4457581734
 S 1 
   1       0.4024514736      1.0000000000
 S 1 
   1       0.1309018267      1.0000000000
 P 3 
   1       9.4680970621      0.0568883320
   2       2.0103545142      0.3129405934
   3       0.5477100471      0.7606501651
 P 1 
   1       0.1526861379      1.0000000000
 D 1 
   1       0.8000000000      1.0000000000
  end;

 # Basis set for element : O 
 NewGTO O 
 S 5 
   1    2266.1767785000     -0.0053893504
   2     340.8701019100     -0.0402347214
   3      77.3631351670     -0.1800818421
   4      21.4796449400     -0.4682885766
   5       6.6589433124     -0.4469261716
 S 1 
   1       0.8097597567      1.0000000000
 S 1 
   1       0.2553077223      1.0000000000
 P 3 
   1      17.7215043170      0.0626302488
   2       3.8635505440      0.3333113849
   3       1.0480920883      0.7414863830
 P 1 
   1       0.2764154441      1.0000000000
 D 1 
   1       1.2000000000      1.0000000000
  end;

---------------------------------
AUXILIARY/J BASIS SET INFORMATION
---------------------------------
There are 3 groups of distinct atoms

 Group   1 Type C   : 12s5p4d2f1g contracted to 6s4p3d1f1g pattern {711111/2111/211/2/1}
 Group   2 Type H   : 5s2p1d contracted to 3s1p1d pattern {311/2/1}
 Group   3 Type O   : 12s5p4d2f1g contracted to 6s4p3d1f1g pattern {711111/2111/211/2/1}

Atom   0C    basis set group =>   1
Atom   1C    basis set group =>   1
Atom   2C    basis set group =>   1
Atom   3H    basis set group =>   2
Atom   4H    basis set group =>   2
Atom   5C    basis set group =>   1
Atom   6C    basis set group =>   1
Atom   7C    basis set group =>   1
Atom   8H    basis set group =>   2
Atom   9H    basis set group =>   2
Atom  10H    basis set group =>   2
Atom  11H    basis set group =>   2
Atom  12O    basis set group =>   3
Atom  13H    basis set group =>   2
Atom  14C    basis set group =>   1
Atom  15C    basis set group =>   1
Atom  16H    basis set group =>   2
Atom  17H    basis set group =>   2
Atom  18C    basis set group =>   1
Atom  19H    basis set group =>   2
Atom  20C    basis set group =>   1
Atom  21H    basis set group =>   2
Atom  22C    basis set group =>   1
Atom  23C    basis set group =>   1
Atom  24H    basis set group =>   2
Atom  25H    basis set group =>   2
Atom  26C    basis set group =>   1
Atom  27H    basis set group =>   2
Atom  28H    basis set group =>   2
Atom  29C    basis set group =>   1
Atom  30H    basis set group =>   2
Atom  31H    basis set group =>   2
Atom  32C    basis set group =>   1
Atom  33H    basis set group =>   2
Atom  34C    basis set group =>   1
Atom  35H    basis set group =>   2
Atom  36C    basis set group =>   1
Atom  37H    basis set group =>   2
Atom  38H    basis set group =>   2
Atom  39C    basis set group =>   1
Atom  40H    basis set group =>   2
Atom  41H    basis set group =>   2
Atom  42H    basis set group =>   2
Atom  43C    basis set group =>   1
Atom  44C    basis set group =>   1
Atom  45H    basis set group =>   2
Atom  46H    basis set group =>   2
Atom  47H    basis set group =>   2
Atom  48H    basis set group =>   2
Atom  49C    basis set group =>   1
Atom  50C    basis set group =>   1
Atom  51C    basis set group =>   1
Atom  52H    basis set group =>   2
Atom  53H    basis set group =>   2
Atom  54C    basis set group =>   1
Atom  55C    basis set group =>   1
Atom  56C    basis set group =>   1
Atom  57H    basis set group =>   2
Atom  58H    basis set group =>   2
Atom  59C    basis set group =>   1
Atom  60C    basis set group =>   1
Atom  61H    basis set group =>   2
Atom  62H    basis set group =>   2
Atom  63H    basis set group =>   2
Atom  64H    basis set group =>   2
Atom  65H    basis set group =>   2
Atom  66H    basis set group =>   2
Atom  67H    basis set group =>   2
Atom  68H    basis set group =>   2
Atom  69H    basis set group =>   2
Atom  70H    basis set group =>   2
Atom  71H    basis set group =>   2
Atom  72H    basis set group =>   2

-------------------------------------
AUXILIARY/J BASIS SET IN INPUT FORMAT
-------------------------------------

 # Auxiliary/J basis set for element : H 
 NewAuxJGTO H 
 S 3 
   1      15.6752927000      0.1007184237
   2       3.6063578000      0.3404257499
   3       1.2080016000      0.6491996172
 S 1 
   1       0.4726794000      1.0000000000
 S 1 
   1       0.2018100000      1.0000000000
 P 2 
   1       2.0281365000      0.5596620919
   2       0.5358730000      0.5596620919
 D 1 
   1       2.2165124000      1.0000000000
  end;

 # Auxiliary/J basis set for element : C 
 NewAuxJGTO C 
 S 7 
   1    1861.0916331000      0.0134602335
   2     642.9939764000      0.0299160374
   3     235.1105725000      0.1008649584
   4      90.7028894000      0.2370970548
   5      36.7794552000      0.3924037254
   6      15.6046273000      0.3195862154
   7       6.8907294000      0.0530104441
 S 1 
   1       3.1478850000     -1.0000000000
 S 1 
   1       1.4777287000      1.0000000000
 S 1 
   1       0.7076466000      1.0000000000
 S 1 
   1       0.3430122000      1.0000000000
 S 1 
   1       0.1669453000      1.0000000000
 P 2 
   1      13.5472892000     -0.6769313712
   2       5.4669419000     -0.3779500978
 P 1 
   1       2.1751721000      1.0000000000
 P 1 
   1       0.8582194000      1.0000000000
 P 1 
   1       0.3376720000      1.0000000000
 D 2 
   1       5.9287253000     -0.3533329857
   2       1.9809209000     -0.7456525731
 D 1 
   1       0.8055417000     -1.0000000000
 D 1 
   1       0.3531244000     -1.0000000000
 F 2 
   1       1.6755626000      0.6311076882
   2       0.5997536000      0.4968166032
 G 1 
   1       1.0024600000     -1.0000000000
  end;

 # Auxiliary/J basis set for element : O 
 NewAuxJGTO O 
 S 7 
   1    2876.8216605000      0.0168151159
   2    1004.7443032000      0.0340137548
   3     369.7579954000      0.1194951309
   4     142.9442404000      0.2664627624
   5      57.8366425000      0.4202764046
   6      24.3864983000      0.2765077335
   7      10.6622662000      0.0057008815
 S 1 
   1       4.8070437000     -1.0000000000
 S 1 
   1       2.2210770000      1.0000000000
 S 1 
   1       1.0447795000      1.0000000000
 S 1 
   1       0.4968425000      1.0000000000
 S 1 
   1       0.2371384000      1.0000000000
 P 2 
   1      64.2613382000     -0.2731534179
   2      16.3006076000     -0.8168011598
 P 1 
   1       4.3550542000      1.0000000000
 P 1 
   1       1.2019554000      1.0000000000
 P 1 
   1       0.3354196000      1.0000000000
 D 2 
   1       9.2146611000     -0.4661230638
   2       2.8435251000     -0.6600908911
 D 1 
   1       0.9955759000     -1.0000000000
 D 1 
   1       0.3649441000     -1.0000000000
 F 2 
   1       2.6420115000      0.5931563945
   2       0.7345613000      0.5931563945
 G 1 
   1       1.3931000000     -1.0000000000
  end;


Checking for AutoStart:
The File: inpS.gbw exists
Trying to determine its content:
     ... Fine, the file contains calculation information
     ... Fine, the calculation information was read
     ... Fine, the file contains a basis set
     ... Fine, the basis set was read
     ... Fine, the file contains a geometry
     ... Fine, the geometry was read
     ... Fine, the file contains a set of orbitals
     ... Fine, the orbitals can be read
     => possible old guess file was deleted
     => GBW file was renamed to GES file
     => GES file is set as startup file
     => Guess is set to MORead
     ... now leaving AutoStart



           ************************************************************
           *        Program running with 4 parallel MPI-processes     *
           *              working on a common directory               *
           ************************************************************
------------------------------------------------------------------------------
                             ORCA STARTUP CALCULATIONS
                           -- RI-GTO INTEGRALS CHOSEN --
------------------------------------------------------------------------------
------------------------------------------------------------------------------
                   ___                                                        
                  /   \      - P O W E R E D   B Y -                         
                 /     \                                                     
                 |  |  |   _    _      __       _____    __    __             
                 |  |  |  | |  | |    /  \     |  _  \  |  |  /  |          
                  \  \/   | |  | |   /    \    | | | |  |  | /  /          
                 / \  \   | |__| |  /  /\  \   | |_| |  |  |/  /          
                |  |  |   |  __  | /  /__\  \  |    /   |      \           
                |  |  |   | |  | | |   __   |  |    \   |  |\   \          
                \     /   | |  | | |  |  |  |  | |\  \  |  | \   \       
                 \___/    |_|  |_| |__|  |__|  |_| \__\ |__|  \__/        
                                                                              
                      - O R C A' S   B I G   F R I E N D -                    
                                      &                                       
                       - I N T E G R A L  F E E D E R -                       
                                                                              
 v1 FN, 2020, v2 2021, v3 2022-2024                                           
------------------------------------------------------------------------------


----------------------
SHARK INTEGRAL PACKAGE
----------------------

Number of atoms                             ...     73
Number of basis functions                   ...    626
Number of shells                            ...    306
Maximum angular momentum                    ...      2
Integral batch strategy                     ... SHARK/LIBINT Hybrid
RI-J (if used) integral strategy            ... SPLIT-RIJ (Revised 2003 algorithm where possible)
Printlevel                                  ...      1
Contraction scheme used                     ... SEGMENTED contraction
Prescreening option                         ... SCHWARTZ
   Thresh                                   ... 3.000e-11
   Tcut                                     ... 1.000e-12
   Tpresel                                  ... 1.000e-12 
Coulomb Range Separation                    ... NOT USED
Exchange Range Separation                   ... Long Range
   Mu parameter                             ... 3.000e-01
   Scaling (regular/separated)              ... 1.670e-01 8.330e-01
Multipole approximations                    ... NOT USED
Finite Nucleus Model                        ... NOT USED
CABS basis                                  ... NOT available
Auxiliary Coulomb fitting basis             ... AVAILABLE
   # of basis functions in Aux-J            ...   1905
   # of shells in Aux-J                     ...    655
   Maximum angular momentum in Aux-J        ...      4
Auxiliary J/K fitting basis                 ... NOT available
Auxiliary Correlation fitting basis         ... NOT available
Auxiliary 'external' fitting basis          ... NOT available

Checking pre-screening integrals            ... done (  0.0 sec) Dimension = 306
Check shell pair data                       ... done (  0.0 sec)
Shell pair information
Shell pair cut-off parameter TPreSel        ...   1.0e-12
Total number of shell pairs                 ...     46971
Shell pairs after pre-screening             ...     27487
Total number of primitive shell pairs       ...    162105
Primitive shell pairs kept                  ...     60640
          la=0 lb=0:   9627 shell pairs
          la=1 lb=0:  10553 shell pairs
          la=1 lb=1:   2923 shell pairs
          la=2 lb=0:   2721 shell pairs
          la=2 lb=1:   1470 shell pairs
          la=2 lb=2:    193 shell pairs

Calculating one electron integrals          ... done (  0.1 sec)
Calculating RI/J V-Matrix + Cholesky decomp.... done (  0.2 sec)
Calculating Nuclear repulsion               ... done (  0.0 sec) ENN=   2775.241035757998 Eh

Diagonalization of the overlap matrix:
Smallest eigenvalue                        ... 4.286e-04
Time for diagonalization                   ...    0.048 sec
Threshold for overlap eigenvalues          ... 1.000e-07
Number of eigenvalues below threshold      ... 0
Time for construction of square roots      ...    0.027 sec
Total time needed                          ...    0.077 sec

-------------------
DFT GRID GENERATION
-------------------

General Integration Accuracy     IntAcc      ... 4.388
Radial Grid Type                 RadialGrid  ... OptM3 with GC (2021)
Angular Grid (max. ang.)         AngularGrid ... 4 (Lebedev-302)
Angular grid pruning method      GridPruning ... 4 (adaptive)
Weight generation scheme         WeightScheme... mBecke (2022)
Basis function cutoff            BFCut       ... 1.0000e-11
Integration weight cutoff        WCut        ... 1.0000e-14
Partially contracted basis set               ... off
Rotationally invariant grid construction     ... off
Angular grids for H and He will be reduced by one unit

Total number of grid points                  ...   309920
Total number of batches                      ...     4877
Average number of points per batch           ...       63
Average number of grid points per atom       ...     4245

--------------------
COSX GRID GENERATION
--------------------

GRIDX 1
-------
General Integration Accuracy     IntAcc      ... 3.816
Radial Grid Type                 RadialGrid  ... OptM3 with GC (2021)
Angular Grid (max. ang.)         AngularGrid ... 1 (Lebedev-50)
Angular grid pruning method      GridPruning ... 4 (adaptive)
Weight generation scheme         WeightScheme... mBecke (2022)
Basis function cutoff            BFCut       ... 1.0000e-11
Integration weight cutoff        WCut        ... 1.0000e-14
Partially contracted basis set               ... on
Rotationally invariant grid construction     ... off
Angular grids for H and He will be reduced by one unit

Total number of grid points                  ...    39402
Total number of batches                      ...      352
Average number of points per batch           ...      111
Average number of grid points per atom       ...      540
UseSFitting                                  ... on

GRIDX 2
-------
General Integration Accuracy     IntAcc      ... 4.020
Radial Grid Type                 RadialGrid  ... OptM3 with GC (2021)
Angular Grid (max. ang.)         AngularGrid ... 2 (Lebedev-110)
Angular grid pruning method      GridPruning ... 4 (adaptive)
Weight generation scheme         WeightScheme... mBecke (2022)
Basis function cutoff            BFCut       ... 1.0000e-11
Integration weight cutoff        WCut        ... 1.0000e-14
Partially contracted basis set               ... on
Rotationally invariant grid construction     ... off
Angular grids for H and He will be reduced by one unit

Total number of grid points                  ...    81391
Total number of batches                      ...      678
Average number of points per batch           ...      120
Average number of grid points per atom       ...     1115
UseSFitting                                  ... on

GRIDX 3
-------
General Integration Accuracy     IntAcc      ... 4.338
Radial Grid Type                 RadialGrid  ... OptM3 with GC (2021)
Angular Grid (max. ang.)         AngularGrid ... 3 (Lebedev-194)
Angular grid pruning method      GridPruning ... 4 (adaptive)
Weight generation scheme         WeightScheme... mBecke (2022)
Basis function cutoff            BFCut       ... 1.0000e-11
Integration weight cutoff        WCut        ... 1.0000e-14
Partially contracted basis set               ... on
Rotationally invariant grid construction     ... off
Angular grids for H and He will be reduced by one unit

Total number of grid points                  ...   176322
Total number of batches                      ...     1418
Average number of points per batch           ...      124
Average number of grid points per atom       ...     2415
UseSFitting                                  ... on
Initializing property integral containers    ... done (  0.0 sec)

SHARK setup successfully completed in   4.5 seconds

Maximum memory used throughout the entire STARTUP-calculation: 95.5 MB


           ************************************************************
           *        Program running with 4 parallel MPI-processes     *
           *              working on a common directory               *
           ************************************************************
-------------------------------------------------------------------------------
                                 ORCA GUESS
                   Start orbitals & Density for SCF / CASSCF
-------------------------------------------------------------------------------

------------
SCF SETTINGS
------------
Hamiltonian:
 Density Functional     Method          .... DFT(GTOs)
 Exchange Functional    Exchange        .... WB97X-V
 Correlation Functional Correlation     .... WB97X-V
 Gradients option       PostSCFGGA      .... off
 Hybrid DFT is turned on
   Fraction HF Exchange ScalHFX         ....  0.167000
   Scaling of DF-GGA-X  ScalDFX         ....  0.000000
   Scaling of DF-GGA-C  ScalDFC         ....  1.000000
   Scaling of DF-LDA-C  ScalLDAC        ....  1.000000
   Perturbative correction              ....  0.000000
 Long-range corrected/Screened/Range-Separated Hybrid DFT is turned on
   Amount of maximum screened exact exchange              ....  0.833000
   Range separation parameter mu (erf(mu*r12)/r12)        ....  0.300000
 RI-approximation to the Coulomb term is turned on
   Number of AuxJ basis functions       .... 1905
   RIJ-COSX (HFX calculated with COS-X)).... on


General Settings:
 Integral files         IntName         .... inpS
 Hartree-Fock type      HFTyp           .... RHF
 Total Charge           Charge          ....    0
 Multiplicity           Mult            ....    1
 Number of Electrons    NEL             ....  220
 Basis Dimension        Dim             ....  626
 Nuclear Repulsion      ENuc            ....   2775.2410357580 Eh

Convergence Acceleration:
 AO-DIIS                CNVDIIS         .... on
   Start iteration      DIISMaxIt       ....    12
   Startup error        DIISStart       ....  0.200000
   # of expansion vecs  DIISMaxEq       ....     5
   Bias factor          DIISBfac        ....   1.050
   Max. coefficient     DIISMaxC        ....  10.000
 MO-DIIS                CNVKDIIS        .... off
 Trust-Rad. Augm. Hess. CNVTRAH         .... auto
   Auto Start mean grad. ratio tolernc. ....  1.125000
   Auto Start start iteration           ....     1
   Auto Start num. interpolation iter.  ....    10
   Max. Number of Micro iterations      ....    24
   Max. Number of Macro iterations      .... Maxiter - #DIIS iter
   Number of Davidson start vectors     ....     2
   Converg. threshold    (grad. norm)   ....   1.000e-04
   Grad. Scal. Fac. for Micro threshold ....   0.100
   Minimum threshold for Micro iter.    ....   1.000e-02
   NR start threshold (gradient norm)   ....   1.000e-04
   Initial trust radius                 ....   0.400
   Minimum AH scaling param. (alpha)    ....   1.000
   Maximum AH scaling param. (alpha)    .... 1000.000
   Quad. conv. algorithm                .... NR
   White noise on init. David. guess    .... on
   Maximum white noise                  ....   0.010
   Pseudo random numbers                .... off
   Inactive MOs                         .... canonical
   Orbital update algorithm             .... Taylor
   Preconditioner                       .... Diag
   Full preconditioner red. dimension   ....   250
 SOSCF                  CNVSOSCF        .... off
 Level Shifting         CNVShift        .... on
   Level shift para.    LevelShift      ....    0.2500
   Turn off err/grad.   ShiftErr        ....    0.0010
 Zerner damping         CNVZerner       .... off
 Static damping         CNVDamp         .... on
   Fraction old density DampFac         ....    0.7000
   Max. Damping (<1)    DampMax         ....    0.9800
   Min. Damping (>=0)   DampMin         ....    0.0000
   Turn off err/grad.   DampErr         ....    0.1000

SCF Procedure:
 Maximum # iterations   MaxIter         ....   125
 SCF integral mode      SCFMode         .... Direct
   Integral package                     .... SHARK and LIBINT hybrid scheme
 Reset frequency        DirectResetFreq ....    20
 Integral Threshold     Thresh          ....  3.000e-11 Eh
 Primitive CutOff       TCut            ....  1.000e-12 Eh

Convergence Tolerance:
 Convergence Check Mode ConvCheckMode   .... Total+1el-Energy
 Convergence forced     ConvForced      .... 0
 Energy Change          TolE            ....  1.000e-07 Eh
 1-El. energy change                    ....  1.000e-04 Eh
 DIIS Error             TolErr          ....  1.000e-07

---------------------
INITIAL GUESS: MOREAD
---------------------
Guess MOs are being read from file: inpS.ges
Input Geometry matches current geometry (good)
Input basis set matches current basis set (good)
Occupation numbers will be reassigned to an Aufbau configuration
MOs were renormalized
MOs were reorthogonalized (Cholesky)
                      ------------------
                      INITIAL GUESS DONE (   0.2 sec)
                      ------------------
             **** ENERGY FILE WAS UPDATED (inpS.en.tmp) ****
Finished Guess after   0.3 sec
Maximum memory used throughout the entire GUESS-calculation: 52.4 MB


           ************************************************************
           *        Program running with 4 parallel MPI-processes     *
           *              working on a common directory               *
           ************************************************************

-------------------------------------------------------------------------------------------
                                      ORCA LEAN-SCF
                              memory conserving SCF solver
-------------------------------------------------------------------------------------------

--------------------
CPCM SOLVATION MODEL
--------------------
CPCM parameters:
  Epsilon                                         ...       4.8030
  Refrac                                          ...       1.4459
  Rsolv                                           ...       1.3000
  Surface type                                    ... GAUSSIAN VDW
  Discretization scheme                           ... Constant charge density
    Threshold for H atoms                         ...       5.0000 (charges/Ang^2)
    Threshold for non-H atoms                     ...       5.0000 (charges/Ang^2)
  Epsilon function type                           ...         CPCM
Solvent:                                          ... CHLOROFORM
Radii:
  Scheme                                          ... Element-dependent radii
  Radius for C  used is    3.8550 Bohr (=   2.0400 Ang.)
  Radius for H  used is    2.4944 Bohr (=   1.3200 Ang.)
  Radius for O  used is    3.4469 Bohr (=   1.8240 Ang.)
Calculating surface                               ...        done! (  0.0s)
Cavity surface points                             ...         5426
Cavity Volume                                     ...    3617.9978
Cavity Surface-area                               ...    1800.0521
Calculating surface distance matrix               ...        done! (  0.2s)
Performing Cholesky decomposition & store         ...        done! (  1.0s)
Overall time for CPCM initialization              ...                 1.2s

----------------------------------------D-I-I-S--------------------------------------------
Iteration    Energy (Eh)           Delta-E    RMSDP     MaxDP     DIISErr   Damp  Time(sec)
-------------------------------------------------------------------------------------------
               ***  Starting incremental Fock matrix formation  ***
    1    -1168.3638872959854780     0.00e+00  3.24e-08  1.80e-06  6.45e-06  0.700  23.7

  HOMO= 109 E= -7.881 eV LUMO=  8.097 eV gap=  15.978 eV
    2    -1168.3638872812116460     1.48e-08  2.80e-08  1.43e-06  3.24e-06  0.700   4.7
                 **** Energy Check signals convergence ****

  HOMO= 109 E= -7.881 eV LUMO=  8.097 eV gap=  15.978 eV

               *****************************************************
               *                     SUCCESS                       *
               *           SCF CONVERGED AFTER   2 CYCLES          *
               *****************************************************

Recomputing exchange energy using gridx3       ... done (   40.938 sec)
Old exchange energy                            :    -56.782676070 Eh
New exchange energy                            :    -56.782689621 Eh
Exchange energy change after final integration :     -0.000013551 Eh
Total energy after final integration           :  -1168.363900832 Eh
             **** ENERGY FILE WAS UPDATED (inpS.en.tmp) ****

----------------
TOTAL SCF ENERGY
----------------

Total Energy       :      -1168.36390083196738 Eh          -31792.79806 eV

Components:
Nuclear Repulsion  :       2775.24103575799791 Eh           75518.14785 eV
Electronic Energy  :      -3943.59440907357794 Eh         -107310.65944 eV
One Electron Energy:      -7095.80569447071139 Eh         -193086.68928 eV
Two Electron Energy:       3152.21128539713345 Eh           85776.02984 eV
CPCM Dielectric    :         -0.01051396563168 Eh              -0.28610 eV

Virial components:
Potential Energy   :      -2321.67764786267890 Eh          -63176.06061 eV
Kinetic Energy     :       1153.31374703071151 Eh           31383.26255 eV
Virial Ratio       :          2.01304948791255

DFT components:
N(Alpha)           :      110.000069818153 electrons
N(Beta)            :      110.000069818153 electrons
N(Total)           :      220.000139636305 electrons
E(X)               :     -111.769905513525 Eh       
E(C)               :       -8.950883057113 Eh       
E(XC)              :     -120.720788570638 Eh       

CPCM Solvation Model Properties:
Surface-charge          :         -0.04157210162839
Corrected charge        :         -0.00000000000000
Outlying charge corr.   :          0.00006049997756 Eh               0.00165 eV
Free-energy (cav+disp)  :  This term is not implemented in the current solvation scheme

---------------
SCF CONVERGENCE
---------------

  Last Energy change         ...   -1.4774e-08  Tolerance :   1.0000e-07
  Last MAX-Density change    ...    1.4284e-06  Tolerance :   1.0000e-05
  Last RMS-Density change    ...    2.7964e-08  Tolerance :   1.0000e-06
  Last DIIS Error            ...    3.2385e-06  Tolerance :   1.0000e-07


----------------
ORBITAL ENERGIES
----------------

  NO   OCC          E(Eh)            E(eV) 
   0   2.0000     -19.213671      -522.8306 
   1   2.0000     -10.329753      -281.0869 
   2   2.0000     -10.293400      -280.0977 
   3   2.0000     -10.290177      -280.0100 
   4   2.0000     -10.285929      -279.8944 
   5   2.0000     -10.285834      -279.8918 
   6   2.0000     -10.285093      -279.8716 
   7   2.0000     -10.282414      -279.7987 
   8   2.0000     -10.281947      -279.7860 
   9   2.0000     -10.281433      -279.7720 
  10   2.0000     -10.281264      -279.7674 
  11   2.0000     -10.280797      -279.7547 
  12   2.0000     -10.279424      -279.7174 
  13   2.0000     -10.278445      -279.6907 
  14   2.0000     -10.276884      -279.6482 
  15   2.0000     -10.276738      -279.6443 
  16   2.0000     -10.276666      -279.6423 
  17   2.0000     -10.276541      -279.6389 
  18   2.0000     -10.273436      -279.5544 
  19   2.0000     -10.272224      -279.5214 
  20   2.0000     -10.271781      -279.5094 
  21   2.0000     -10.271686      -279.5068 
  22   2.0000     -10.270179      -279.4658 
  23   2.0000     -10.269560      -279.4489 
  24   2.0000     -10.269445      -279.4458 
  25   2.0000     -10.268662      -279.4245 
  26   2.0000     -10.268398      -279.4173 
  27   2.0000     -10.266750      -279.3725 
  28   2.0000     -10.266222      -279.3581 
  29   2.0000      -1.131625       -30.7931 
  30   2.0000      -0.997874       -27.1535 
  31   2.0000      -0.979102       -26.6427 
  32   2.0000      -0.957229       -26.0475 
  33   2.0000      -0.942536       -25.6477 
  34   2.0000      -0.917503       -24.9665 
  35   2.0000      -0.910479       -24.7754 
  36   2.0000      -0.889528       -24.2053 
  37   2.0000      -0.887107       -24.1394 
  38   2.0000      -0.872894       -23.7526 
  39   2.0000      -0.852693       -23.2029 
  40   2.0000      -0.832397       -22.6507 
  41   2.0000      -0.826260       -22.4837 
  42   2.0000      -0.808307       -21.9951 
  43   2.0000      -0.800120       -21.7724 
  44   2.0000      -0.794641       -21.6233 
  45   2.0000      -0.786842       -21.4111 
  46   2.0000      -0.767029       -20.8719 
  47   2.0000      -0.758654       -20.6440 
  48   2.0000      -0.723490       -19.6872 
  49   2.0000      -0.712807       -19.3965 
  50   2.0000      -0.712120       -19.3778 
  51   2.0000      -0.696435       -18.9509 
  52   2.0000      -0.688832       -18.7441 
  53   2.0000      -0.667433       -18.1618 
  54   2.0000      -0.651620       -17.7315 
  55   2.0000      -0.639209       -17.3938 
  56   2.0000      -0.630694       -17.1621 
  57   2.0000      -0.620569       -16.8866 
  58   2.0000      -0.604959       -16.4618 
  59   2.0000      -0.597849       -16.2683 
  60   2.0000      -0.587708       -15.9923 
  61   2.0000      -0.582873       -15.8608 
  62   2.0000      -0.577444       -15.7130 
  63   2.0000      -0.568131       -15.4596 
  64   2.0000      -0.564430       -15.3589 
  65   2.0000      -0.562596       -15.3090 
  66   2.0000      -0.556488       -15.1428 
  67   2.0000      -0.547433       -14.8964 
  68   2.0000      -0.545161       -14.8346 
  69   2.0000      -0.542801       -14.7704 
  70   2.0000      -0.537139       -14.6163 
  71   2.0000      -0.533195       -14.5090 
  72   2.0000      -0.524690       -14.2775 
  73   2.0000      -0.518137       -14.0992 
  74   2.0000      -0.512595       -13.9484 
  75   2.0000      -0.507916       -13.8211 
  76   2.0000      -0.503393       -13.6980 
  77   2.0000      -0.502559       -13.6753 
  78   2.0000      -0.499254       -13.5854 
  79   2.0000      -0.496570       -13.5124 
  80   2.0000      -0.489855       -13.3296 
  81   2.0000      -0.487524       -13.2662 
  82   2.0000      -0.484739       -13.1904 
  83   2.0000      -0.480122       -13.0648 
  84   2.0000      -0.474484       -12.9114 
  85   2.0000      -0.468117       -12.7381 
  86   2.0000      -0.465814       -12.6754 
  87   2.0000      -0.461940       -12.5700 
  88   2.0000      -0.453673       -12.3451 
  89   2.0000      -0.452421       -12.3110 
  90   2.0000      -0.449215       -12.2238 
  91   2.0000      -0.444144       -12.0858 
  92   2.0000      -0.436566       -11.8796 
  93   2.0000      -0.429251       -11.6805 
  94   2.0000      -0.426539       -11.6067 
  95   2.0000      -0.425250       -11.5716 
  96   2.0000      -0.421527       -11.4703 
  97   2.0000      -0.420888       -11.4529 
  98   2.0000      -0.414188       -11.2706 
  99   2.0000      -0.414037       -11.2665 
 100   2.0000      -0.412007       -11.2113 
 101   2.0000      -0.411066       -11.1857 
 102   2.0000      -0.402602       -10.9554 
 103   2.0000      -0.401289       -10.9196 
 104   2.0000      -0.394172       -10.7260 
 105   2.0000      -0.380866       -10.3639 
 106   2.0000      -0.371948       -10.1212 
 107   2.0000      -0.356959        -9.7133 
 108   2.0000      -0.336520        -9.1572 
 109   2.0000      -0.289635        -7.8814 
 110   0.0000       0.047559         1.2941 
 111   0.0000       0.100427         2.7328 
 112   0.0000       0.110692         3.0121 
 113   0.0000       0.135689         3.6923 
 114   0.0000       0.140392         3.8203 
 115   0.0000       0.146279         3.9804 
 116   0.0000       0.152884         4.1602 
 117   0.0000       0.156263         4.2521 
 118   0.0000       0.158884         4.3235 
 119   0.0000       0.164823         4.4851 
 120   0.0000       0.168658         4.5894 
*Only the first 10 virtual orbitals were printed.

                    ********************************
                    * MULLIKEN POPULATION ANALYSIS *
                    ********************************

-----------------------
MULLIKEN ATOMIC CHARGES
-----------------------
   0 C :   -0.127570
   1 C :    0.144312
   2 C :    0.081653
   3 H :    0.016661
   4 H :    0.013256
   5 C :   -0.184754
   6 C :    0.111109
   7 C :    0.006715
   8 H :    0.029779
   9 H :    0.012236
  10 H :    0.023580
  11 H :    0.011346
  12 O :   -0.355197
  13 H :    0.014150
  14 C :   -0.024407
  15 C :   -0.044110
  16 H :    0.036251
  17 H :    0.029214
  18 C :   -0.060526
  19 H :   -0.007115
  20 C :   -0.115555
  21 H :    0.000592
  22 C :    0.115026
  23 C :   -0.000634
  24 H :    0.012772
  25 H :    0.017371
  26 C :    0.105918
  27 H :    0.012587
  28 H :    0.014980
  29 C :   -0.415296
  30 H :    0.008627
  31 H :   -0.002900
  32 C :   -0.044068
  33 H :    0.010937
  34 C :    0.128364
  35 H :    0.181692
  36 C :    0.042909
  37 H :    0.006539
  38 H :    0.014567
  39 C :   -0.024684
  40 H :    0.022720
  41 H :    0.007777
  42 H :   -0.009776
  43 C :   -0.038787
  44 C :    0.093094
  45 H :    0.023236
  46 H :    0.018258
  47 H :    0.020014
  48 H :    0.000163
  49 C :    0.053594
  50 C :   -0.045938
  51 C :   -0.058291
  52 H :    0.005671
  53 H :    0.001861
  54 C :   -0.066012
  55 C :    0.040679
  56 C :   -0.183977
  57 H :    0.013767
  58 H :    0.012016
  59 C :    0.039245
  60 C :    0.020215
  61 H :    0.023238
  62 H :    0.024498
  63 H :    0.019106
  64 H :    0.018786
  65 H :    0.015670
  66 H :    0.018377
  67 H :    0.017253
  68 H :    0.019481
  69 H :    0.018138
  70 H :    0.016160
  71 H :    0.030819
  72 H :    0.012615
Sum of atomic charges:   -0.0000000

--------------------------------
MULLIKEN REDUCED ORBITAL CHARGES
--------------------------------
  0 C s       :     3.078073  s :     3.078073
      pz      :     1.004215  p :     3.006652
      px      :     0.998907
      py      :     1.003530
      dz2     :     0.003245  d :     0.042844
      dxz     :     0.007025
      dyz     :     0.006113
      dx2y2   :     0.014687
      dxy     :     0.011775

  1 C s       :     2.932269  s :     2.932269
      pz      :     0.979343  p :     2.888976
      px      :     0.941992
      py      :     0.967641
      dz2     :     0.006920  d :     0.034443
      dxz     :     0.009267
      dyz     :     0.004854
      dx2y2   :     0.009055
      dxy     :     0.004347

  2 C s       :     3.075199  s :     3.075199
      pz      :     1.039138  p :     2.771991
      px      :     0.759223
      py      :     0.973630
      dz2     :     0.011562  d :     0.071157
      dxz     :     0.016237
      dyz     :     0.009408
      dx2y2   :     0.019321
      dxy     :     0.014628

  3 H s       :     0.960148  s :     0.960148
      pz      :     0.010656  p :     0.023191
      px      :     0.007823
      py      :     0.004712

  4 H s       :     0.963954  s :     0.963954
      pz      :     0.004310  p :     0.022790
      px      :     0.003809
      py      :     0.014671

  5 C s       :     3.111936  s :     3.111936
      pz      :     1.005009  p :     3.028021
      px      :     0.974169
      py      :     1.048843
      dz2     :     0.011283  d :     0.044797
      dxz     :     0.006773
      dyz     :     0.012053
      dx2y2   :     0.008200
      dxy     :     0.006488

  6 C s       :     2.949031  s :     2.949031
      pz      :     0.973432  p :     2.904387
      px      :     0.967427
      py      :     0.963528
      dz2     :     0.006805  d :     0.035474
      dxz     :     0.009498
      dyz     :     0.005155
      dx2y2   :     0.009240
      dxy     :     0.004775

  7 C s       :     3.012997  s :     3.012997
      pz      :     0.990418  p :     2.945268
      px      :     0.988501
      py      :     0.966349
      dz2     :     0.005226  d :     0.035020
      dxz     :     0.008297
      dyz     :     0.006754
      dx2y2   :     0.009690
      dxy     :     0.005052

  8 H s       :     0.946932  s :     0.946932
      pz      :     0.011262  p :     0.023288
      px      :     0.007372
      py      :     0.004654

  9 H s       :     0.964944  s :     0.964944
      pz      :     0.004535  p :     0.022820
      px      :     0.003743
      py      :     0.014542

 10 H s       :     0.953728  s :     0.953728
      pz      :     0.011302  p :     0.022692
      px      :     0.005020
      py      :     0.006370

 11 H s       :     0.965964  s :     0.965964
      pz      :     0.010777  p :     0.022690
      px      :     0.007386
      py      :     0.004528

 12 O s       :     3.726373  s :     3.726373
      pz      :     1.540472  p :     4.616617
      px      :     1.241821
      py      :     1.834324
      dz2     :     0.002485  d :     0.012207
      dxz     :     0.004282
      dyz     :     0.001618
      dx2y2   :     0.001793
      dxy     :     0.002029

 13 H s       :     0.965629  s :     0.965629
      pz      :     0.010928  p :     0.020221
      px      :     0.005157
      py      :     0.004137

 14 C s       :     3.197249  s :     3.197249
      pz      :     0.987907  p :     2.790916
      px      :     0.888747
      py      :     0.914263
      dz2     :     0.002791  d :     0.036242
      dxz     :     0.007561
      dyz     :     0.003361
      dx2y2   :     0.012162
      dxy     :     0.010367

 15 C s       :     3.122463  s :     3.122463
      pz      :     0.976589  p :     2.895396
      px      :     1.002219
      py      :     0.916588
      dz2     :     0.007256  d :     0.026250
      dxz     :     0.004247
      dyz     :     0.007197
      dx2y2   :     0.004735
      dxy     :     0.002816

 16 H s       :     0.939201  s :     0.939201
      pz      :     0.010866  p :     0.024548
      px      :     0.006036
      py      :     0.007647

 17 H s       :     0.946158  s :     0.946158
      pz      :     0.004050  p :     0.024627
      px      :     0.004688
      py      :     0.015890

 18 C s       :     3.200767  s :     3.200767
      pz      :     1.028292  p :     2.824454
      px      :     0.878366
      py      :     0.917796
      dz2     :     0.002868  d :     0.035305
      dxz     :     0.006983
      dyz     :     0.003162
      dx2y2   :     0.012375
      dxy     :     0.009918

 19 H s       :     0.982800  s :     0.982800
      pz      :     0.004692  p :     0.024315
      px      :     0.004369
      py      :     0.015254

 20 C s       :     3.099624  s :     3.099624
      pz      :     0.956142  p :     2.971921
      px      :     0.991721
      py      :     1.024058
      dz2     :     0.003512  d :     0.044009
      dxz     :     0.007161
      dyz     :     0.006955
      dx2y2   :     0.014686
      dxy     :     0.011696

 21 H s       :     0.974867  s :     0.974867
      pz      :     0.004623  p :     0.024541
      px      :     0.004296
      py      :     0.015621

 22 C s       :     2.924467  s :     2.924467
      pz      :     1.000937  p :     2.924947
      px      :     0.975930
      py      :     0.948079
      dz2     :     0.009342  d :     0.035560
      dxz     :     0.004283
      dyz     :     0.006117
      dx2y2   :     0.009881
      dxy     :     0.005938

 23 C s       :     3.000942  s :     3.000942
      pz      :     1.010364  p :     2.963262
      px      :     0.967596
      py      :     0.985303
      dz2     :     0.009678  d :     0.036430
      dxz     :     0.007840
      dyz     :     0.003120
      dx2y2   :     0.010266
      dxy     :     0.005525

 24 H s       :     0.963993  s :     0.963993
      pz      :     0.004757  p :     0.023235
      px      :     0.013846
      py      :     0.004632

 25 H s       :     0.959321  s :     0.959321
      pz      :     0.013374  p :     0.023308
      px      :     0.004938
      py      :     0.004995

 26 C s       :     2.970609  s :     2.970609
      pz      :     0.967848  p :     2.888132
      px      :     0.974682
      py      :     0.945603
      dz2     :     0.006718  d :     0.035340
      dxz     :     0.006768
      dyz     :     0.005847
      dx2y2   :     0.008735
      dxy     :     0.007273

 27 H s       :     0.964538  s :     0.964538
      pz      :     0.013422  p :     0.022875
      px      :     0.004567
      py      :     0.004885

 28 H s       :     0.962379  s :     0.962379
      pz      :     0.004560  p :     0.022641
      px      :     0.003811
      py      :     0.014270

 29 C s       :     3.257132  s :     3.257132
      pz      :     1.043937  p :     3.107173
      px      :     1.004461
      py      :     1.058775
      dz2     :     0.011584  d :     0.050990
      dxz     :     0.010390
      dyz     :     0.009504
      dx2y2   :     0.011008
      dxy     :     0.008505

 30 H s       :     0.968334  s :     0.968334
      pz      :     0.009420  p :     0.023039
      px      :     0.007449
      py      :     0.006171

 31 H s       :     0.980369  s :     0.980369
      pz      :     0.012875  p :     0.022531
      px      :     0.005027
      py      :     0.004629

 32 C s       :     3.033636  s :     3.033636
      pz      :     0.985555  p :     2.966592
      px      :     0.949287
      py      :     1.031750
      dz2     :     0.008349  d :     0.043840
      dxz     :     0.007524
      dyz     :     0.008081
      dx2y2   :     0.011111
      dxy     :     0.008774

 33 H s       :     0.967789  s :     0.967789
      pz      :     0.012038  p :     0.021275
      px      :     0.004313
      py      :     0.004923

 34 C s       :     2.889738  s :     2.889738
      pz      :     0.986610  p :     2.947053
      px      :     0.976526
      py      :     0.983917
      dz2     :     0.005511  d :     0.034845
      dxz     :     0.005863
      dyz     :     0.008180
      dx2y2   :     0.008847
      dxy     :     0.006444

 35 H s       :     0.750182  s :     0.750182
[...]
 Total          138.542          174.419          190.011  iso=     167.657

 Orientation: 
  X           0.2804767   -0.4627184    0.8409664
  Y          -0.1853525   -0.8857528   -0.4255426
  Z           0.9417947   -0.0365204   -0.3341990

 --------------
 Nucleus  39C :
 --------------

Diamagnetic contribution to the shielding tensor (ppm) : 
           264.657          4.083        -7.613
             3.798        260.835         8.061
            -7.955          6.247       261.354

Paramagnetic contribution to the shielding tensor (ppm): 
           -99.092          0.269         9.201
             4.505       -125.753        -2.590
            13.988         -3.349      -131.718

Total shielding tensor (ppm): 
           165.565          4.352         1.588
             8.303        135.082         5.470
             6.033          2.898       129.636


 Diagonalized sT*s matrix:
 
 sDSO           255.372          266.899          264.575  iso=     262.282
 sPSO          -128.008         -131.358          -97.197  iso=    -118.854
        ---------------  ---------------  ---------------
 Total          127.364          135.541          167.378  iso=     143.428

 Orientation: 
  X          -0.0067021   -0.2294783   -0.9732907
  Y          -0.4751825    0.8571306   -0.1988184
  Z           0.8798617    0.4611582   -0.1147886

 --------------
 Nucleus  43C :
 --------------

Diamagnetic contribution to the shielding tensor (ppm) : 
           258.727         -0.865        -6.452
            -5.041        245.490         9.391
           -10.257         13.014       246.229

Paramagnetic contribution to the shielding tensor (ppm): 
           -94.886         -1.942         5.160
             8.113        -94.760        -6.582
            11.222        -11.136       -93.526

Total shielding tensor (ppm): 
           163.841         -2.806        -1.293
             3.072        150.729         2.809
             0.965          1.879       152.703


 Diagonalized sT*s matrix:
 
 sDSO           235.348          256.094          259.004  iso=     250.149
 sPSO           -86.177         -101.835          -95.160  iso=     -94.391
        ---------------  ---------------  ---------------
 Total          149.171          154.260          163.843  iso=     155.758

 Orientation: 
  X          -0.0076411    0.0143291   -0.9998681
  Y           0.8322664    0.5543736    0.0015844
  Z          -0.5543233    0.8321445    0.0161617

 --------------
 Nucleus  44C :
 --------------

Diamagnetic contribution to the shielding tensor (ppm) : 
           251.670          0.208         1.523
            -2.083        256.688        -2.136
            -0.046          1.922       271.595

Paramagnetic contribution to the shielding tensor (ppm): 
           -72.421         -4.346        -1.682
            -0.247        -76.944        -1.255
             0.041         -5.428       -78.957

Total shielding tensor (ppm): 
           179.249         -4.138        -0.159
            -2.330        179.744        -3.390
            -0.005         -3.506       192.638


 Diagonalized sT*s matrix:
 
 sDSO           253.850          255.371          270.732  iso=     259.984
 sPSO           -77.962          -73.167          -77.193  iso=     -76.107
        ---------------  ---------------  ---------------
 Total          175.888          182.203          193.539  iso=     183.877

 Orientation: 
  X           0.6893308   -0.7226184    0.0514371
  Y           0.7088302    0.6581061   -0.2538821
  Z           0.1496088    0.2114689    0.9658665

 --------------
 Nucleus  49C :
 --------------

Diamagnetic contribution to the shielding tensor (ppm) : 
           243.141         -6.524        -3.003
           -19.435        256.087         5.324
           -10.093          7.044       243.884

Paramagnetic contribution to the shielding tensor (ppm): 
           -70.382          2.208        -3.036
            18.824        -69.118         3.551
             5.642         -0.617       -75.791

Total shielding tensor (ppm): 
           172.758         -4.316        -6.039
            -0.612        186.968         8.874
            -4.450          6.427       168.093


 Diagonalized sT*s matrix:
 
 sDSO           239.685          239.199          264.228  iso=     247.704
 sPSO           -76.255          -65.453          -73.585  iso=     -71.764
        ---------------  ---------------  ---------------
 Total          163.430          173.746          190.643  iso=     175.940

 Orientation: 
  X           0.4272777   -0.8757651    0.2246537
  Y          -0.2441901   -0.3510256   -0.9039647
  Z           0.8705200    0.3313858   -0.3638385

 --------------
 Nucleus  50C :
 --------------

Diamagnetic contribution to the shielding tensor (ppm) : 
           266.780         12.908         8.090
             8.192        261.699        -2.458
            15.049        -14.205       251.302

Paramagnetic contribution to the shielding tensor (ppm): 
          -196.714        -27.082       -94.656
           -35.582       -165.060        44.419
           -95.592         63.200      -232.890

Total shielding tensor (ppm): 
            70.067        -14.174       -86.566
           -27.389         96.638        41.960
           -80.543         48.995        18.412


 Diagonalized sT*s matrix:
 
 sDSO           270.093          269.257          240.431  iso=     259.927
 sPSO          -308.166         -208.227          -78.271  iso=    -198.221
        ---------------  ---------------  ---------------
 Total          -38.073           61.030          162.159  iso=      61.706

 Orientation: 
  X          -0.6784964    0.3781172   -0.6298174
  Y          -0.0628655    0.8243246    0.5626160
  Z          -0.7319089   -0.4213268    0.5355308

 --------------
 Nucleus  51C :
 --------------

Diamagnetic contribution to the shielding tensor (ppm) : 
           263.320         13.415         7.402
            12.531        265.186        -7.809
            -2.443         -4.395       267.372

Paramagnetic contribution to the shielding tensor (ppm): 
          -198.945        -25.646       -80.066
           -30.543       -161.986        45.569
           -70.434         40.199      -246.854

Total shielding tensor (ppm): 
            64.375        -12.232       -72.664
           -18.012        103.200        37.760
           -72.877         35.804        20.518


 Diagonalized sT*s matrix:
 
 sDSO           267.623          278.043          250.212  iso=     265.293
 sPSO          -304.302         -199.931         -103.552  iso=    -202.595
        ---------------  ---------------  ---------------
 Total          -36.679           78.112          146.661  iso=      62.698

 Orientation: 
  X          -0.5727441    0.5767894   -0.5824759
  Y           0.1353575    0.7673575    0.6267701
  Z          -0.8084816   -0.2801365    0.5175722

 --------------
 Nucleus  54C :
 --------------

Diamagnetic contribution to the shielding tensor (ppm) : 
           249.260         -0.929         6.884
             0.644        257.565       -10.549
             9.167        -10.909       251.791

Paramagnetic contribution to the shielding tensor (ppm): 
           -86.684         -1.721        -6.422
             1.110        -93.637        25.527
           -11.748         19.839      -101.562

Total shielding tensor (ppm): 
           162.576         -2.650         0.461
             1.754        163.928        14.979
            -2.581          8.930       150.229


 Diagonalized sT*s matrix:
 
 sDSO           263.054          249.718          245.844  iso=     252.872
 sPSO          -119.774          -87.219          -74.890  iso=     -93.961
        ---------------  ---------------  ---------------
 Total          143.279          162.498          170.955  iso=     158.911

 Orientation: 
  X           0.0274720   -0.9943042    0.1029775
  Y          -0.5083880   -0.1025961   -0.8549946
  Z           0.8606898   -0.0288641   -0.5083109

 --------------
 Nucleus  55C :
 --------------

Diamagnetic contribution to the shielding tensor (ppm) : 
           250.214         -0.289         6.090
            -8.206        232.177       -11.717
            20.082        -10.694       244.992

Paramagnetic contribution to the shielding tensor (ppm): 
           -63.114         -1.866        -2.146
             5.764        -47.265        11.054
           -17.205          9.809       -55.900

Total shielding tensor (ppm): 
           187.101         -2.155         3.944
            -2.442        184.913        -0.663
             2.877         -0.884       189.092


 Diagonalized sT*s matrix:
 
 sDSO           236.529          226.994          263.861  iso=     242.461
 sPSO           -53.410          -41.221          -71.647  iso=     -55.426
        ---------------  ---------------  ---------------
 Total          183.119          185.772          192.215  iso=     187.035

 Orientation: 
  X           0.6475243   -0.4505238    0.6146060
  Y           0.7100832    0.6494339   -0.2720616
  Z          -0.2765757    0.6125879    0.7404336

 --------------
 Nucleus  56C :
 --------------

Diamagnetic contribution to the shielding tensor (ppm) : 
           248.311          3.693        -2.852
             7.041        248.646         1.710
            -0.964          1.128       243.260

Paramagnetic contribution to the shielding tensor (ppm): 
           -84.249         -5.138         4.541
            -4.469        -72.007        -5.965
             5.578          0.926       -85.117

Total shielding tensor (ppm): 
           164.062         -1.445         1.689
             2.572        176.640        -4.255
             4.614          2.055       158.143


 Diagonalized sT*s matrix:
 
 sDSO           245.319          246.036          248.863  iso=     246.739
 sPSO           -88.613          -80.611          -72.149  iso=     -80.458
        ---------------  ---------------  ---------------
 Total          156.705          165.425          176.714  iso=     166.281

 Orientation: 
  X          -0.3917847   -0.9192698   -0.0380488
  Y           0.0726865    0.0103002   -0.9973016
  Z           0.9171812   -0.3934932    0.0627831

 --------------
 Nucleus  59C :
 --------------

Diamagnetic contribution to the shielding tensor (ppm) : 
           244.434         13.480         5.110
            21.583        230.497        -0.925
             9.319         -3.855       226.398

Paramagnetic contribution to the shielding tensor (ppm): 
           -54.272         -0.271       -12.281
            -6.766        -57.300         3.099
           -12.418         11.175       -62.735

Total shielding tensor (ppm): 
           190.161         13.209        -7.171
            14.817        173.197         2.173
            -3.099          7.319       163.663


 Diagonalized sT*s matrix:
 
 sDSO           228.929          217.340          255.060  iso=     233.776
 sPSO           -71.217          -46.227          -56.864  iso=     -58.103
        ---------------  ---------------  ---------------
 Total          157.712          171.114          198.196  iso=     175.674

 Orientation: 
  X           0.3617384   -0.3186917   -0.8761170
  Y          -0.5501239    0.6857371   -0.4765798
  Z           0.7526679    0.6543701    0.0727374

 --------------
 Nucleus  60C :
 --------------

Diamagnetic contribution to the shielding tensor (ppm) : 
           243.347         -6.358        -8.527
            12.594        255.789         6.517
             9.181         11.228       259.621

Paramagnetic contribution to the shielding tensor (ppm): 
           -52.652         10.045         0.587
           -12.351        -81.291        -3.676
           -21.533         -9.682       -79.458

Total shielding tensor (ppm): 
           190.696          3.687        -7.940
             0.243        174.498         2.842
           -12.352          1.546       180.163


 Diagonalized sT*s matrix:
 
 sDSO           246.374          265.167          247.217  iso=     252.919
 sPSO           -75.037          -88.020          -50.344  iso=     -71.134
        ---------------  ---------------  ---------------
 Total          171.337          177.147          196.873  iso=     181.786

 Orientation: 
  X          -0.3936892    0.3275531   -0.8589050
  Y           0.6762695    0.7360727   -0.0292664
  Z          -0.6226303    0.5923731    0.5112980



--------------------------------
CHEMICAL SHIELDING SUMMARY (ppm)
--------------------------------


  Nucleus  Element    Isotropic     Anisotropy
  -------  -------  ------------   ------------
      0       C           59.656        148.101 
      1       C          151.155         30.044 
      2       C          128.854         55.171 
      5       C           51.523        179.256 
      6       C          165.006         23.000 
      7       C          161.654         22.617 
     14       C           74.748        128.387 
     15       C           83.097        121.200 
     18       C           79.612        134.307 
     20       C           52.383        174.989 
     22       C          169.230          8.584 
     23       C          174.460         12.500 
     26       C          158.575         24.115 
     29       C          154.489         16.937 
     32       C          142.784         28.768 
     34       C          174.838         23.629 
     36       C          167.657         33.531 
     39       C          143.428         35.925 
     43       C          155.758         12.128 
     44       C          183.877         14.493 
     49       C          175.940         22.055 
     50       C           61.706        150.681 
     51       C           62.698        125.944 
     54       C          158.911         18.066 
     55       C          187.035          7.769 
     56       C          166.281         15.649 
     59       C          175.674         33.783 
     60       C          181.786         22.631 


NMR shielding tensor and spin rotation calculation done in   1.0 sec 

Maximum memory used throughout the entire PROP-calculation: 51.8 MB

--------------------------------
SUGGESTED CITATIONS FOR THIS RUN
--------------------------------

Below you find a list of papers that are relevant to this ORCA run
We neither can nor want to force you to cite these papers, but we appreciate if you do
You receive ORCA, which is the product of decades of hard work by many enthusiastic individuals, for free
The only thing we kindly ask in return is that you cite our papers,
We deeply appreciate it, if you show your appreciation for ORCA by not just citing the generic ORCA reference.

Please note that relegating all ORCA citations to the supporting information does *not* help us.
SI sections are not indexed - citations you put there will not count into any citation statistics
But we need these citations in order to attract the funding resources that allow us to do what we are doing

Therefore, if you are a happy ORCA user, please consider citing a few of the papers listed below in the main body of your paper

In addition to the list printed below, the program has created the file inpS.bibtex that contains the list in bibtex format
You can import this file easily into all common literature databanks and citation aid programs


List of essential papers. We consider these as the minimum necessary citations

  1. Neese,F.
     Software update: the ORCA program system, version 5.0
     WIRES Comput. Molec. Sci., 2022 12(1)e1606
     doi.org/10.1002/wcms.1606

List of papers to cite with high priority. The work reported in these papers was absolutely
necessary for this run to complete.
Our perspective: the developers of density functionals and basis sets usually get cited in chemistry papers
Good! But without the algorithms to do something with them, the functionals or basis sets would not do anything.
Hence, in our opinion, the algorithm design and method developments papers are equally worthy of getting cited

  1. Neese,F.
     An improvement of the resolution of the identity approximation for the formation of the Coulomb matrix
     J. Comp. Chem., 2003 24(14)1740-1747
     doi.org/10.1002/jcc.10318
  2. Neese,F.; Wennmohs,F.; Hansen,A.; Becker,U.
     Efficient, approximate and parallel Hartree-Fock and hybrid DFT calculations. A 'chain-of-spheres' algorithm for the Hartree-Fock exchange
     Chem. Phys., 2009 356(1-3)98-109
     doi.org/10.1016/j.chemphys.2008.10.036
  3. Stoychev,G.L.; Auer,A.A.; Izsak,R.; Neese,F.
     Self-Consistent Field Calculation of Nuclear Magnetic Resonance Chemical Shielding Constants Using Gauge-Including Atomic Orbitals and Approximate Two-Electron Integrals
     J. Chem. Theory Comput., 2018 14(2)619-637
     doi.org/10.1021/acs.jctc.7b01006
  4. Garcia-Rates,M.; Neese,F.
     Effect of the Solute Cavity on the Solvation Energy and its Derivatives within the Framework of the Gaussian Charge Scheme
     J. Comput. Chem., 2020 41 922-939
     doi.org/10.1002/jcc.26139
  5. Helmich-Paris,B.; de Souza,B.; Neese,F.; Izsák,R.
     An improved chain of spheres for exchange algorithm
     J. Chem. Phys., 2021 155 104109
     doi.org/doi: 10.1063/5.0058766.
  6. Neese,F.
     The SHARK Integral Generation and Digestion System
     J. Comp. Chem., 2022  1-16
     doi.org/10.1002/jcc.26942
  7. Caldeweyher,E.; Bannwarth,C.; Grimme,S.
     Extension of the D3 dispersion coefficient model
     J. Chem. Phys., 2017 147 034112-XXXX
     doi.org/10.1063/1.4993215
  8. Caldeweyher,E.; Ehlert,S.; Hansen,A.; Neugebauer,H.; Spicher,S.; Bannwarth,C.; Grimme,S.
     A generally applicable atomic-charge dependent London dispersion correction
     J. Chem. Phys., 2019 150 154122-XXXX
     doi.org/10.1063/1.5090222
  9. Caldeweyher,E.; Mewes,J.; Ehlert,S.; Grimme,S.
     Extension and evaluation of the D4 London-dispersion model for periodic systems
     Phys. Chem. Chem. Phys., 2020 22(16)8499-8512
     doi.org/10.1039/D0CP00502A

List of suggested additional citations. These are papers that are important in the 'surrounding' of 
of this run, or papers that preceded the highly important papers. If you like your results we are grateful for a citation.

  1. Izsak,R.; Neese,F.
     An overlap fitted chain of spheres exchange method
     J. Chem. Phys., 2011 135 144105
     doi.org/10.1063/1.3646921
  2. Izsak,R.; Hansen,A.; Neese,F.
     The resolution of identity and chain of spheres approximations for the LPNO-CCSD singles Fock term
     Molec. Phys., 2012 110 2413-2417
     doi.org/10.1080/00268976.2012.687466
  3. Neese,F.
     The ORCA program system
     WIRES Comput. Molec. Sci., 2012 2(1)73-78
     doi.org/10.1002/wcms.81
  4. Izsak,R.; Neese,F.; Klopper,W.
     Robust fitting techniques in the chain of spheres approximation to the Fock exchange: The role of the complementary space
     J. Chem. Phys., 2013 139 
     doi.org/10.1063/1.4819264
  5. Neese,F.
     Software update: the ORCA program system, version 4.0
     WIRES Comput. Molec. Sci., 2018 8(1)1-6
     doi.org/10.1002/wcms.1327
  6. Neese,F.; Wennmohs,F.; Becker,U.; Riplinger,C.
     The ORCA quantum chemistry program package
     J. Chem. Phys., 2020 152 Art. No. L224108
     doi.org/10.1063/5.0004608

Timings for individual modules:

Sum of individual times          ...      176.757 sec (=   2.946 min)
Startup calculation              ...        4.695 sec (=   0.078 min)   2.7 %
SCF iterations                   ...       72.160 sec (=   1.203 min)  40.8 %
Property integrals               ...       60.312 sec (=   1.005 min)  34.1 %
SCF Response                     ...       38.222 sec (=   0.637 min)  21.6 %
Property calculations            ...        1.368 sec (=   0.023 min)   0.8 %
                             ****ORCA TERMINATED NORMALLY****
TOTAL RUN TIME: 0 days 0 hours 2 minutes 57 seconds 43 msec
