
                                 *****************
                                 * O   R   C   A *
                                 *****************

                                            #,                                       
                                            ###                                      
                                            ####                                     
                                            #####                                    
                                            ######                                   
                                           ########,                                 
                                     ,,################,,,,,                         
                               ,,#################################,,                 
                          ,,##########################################,,             
                       ,#########################################, ''#####,          
                    ,#############################################,,   '####,        
                  ,##################################################,,,,####,       
                ,###########''''           ''''###############################       
              ,#####''   ,,,,##########,,,,          '''####'''          '####       
            ,##' ,,,,###########################,,,                        '##       
           ' ,,###''''                  '''############,,,                           
         ,,##''                                '''############,,,,        ,,,,,,###''
      ,#''                                            '''#######################'''  
     '                                                          ''''####''''         
             ,#######,   #######,   ,#######,      ##                                
            ,#'     '#,  ##    ##  ,#'     '#,    #''#        ######   ,####,        
            ##       ##  ##   ,#'  ##            #'  '#       #        #'  '#        
            ##       ##  #######   ##           ,######,      #####,   #    #        
            '#,     ,#'  ##    ##  '#,     ,#' ,#      #,         ##   #,  ,#        
             '#######'   ##     ##  '#######'  #'      '#     #####' # '####'        



                  #######################################################
                  #                        -***-                        #
                  #          Department of theory and spectroscopy      #
                  #    Directorship and core code : Frank Neese         #
                  #        Max Planck Institute fuer Kohlenforschung    #
                  #                Kaiser Wilhelm Platz 1               #
                  #                 D-45470 Muelheim/Ruhr               #
                  #                      Germany                        #
                  #                                                     #
                  #                  All rights reserved                #
                  #                        -***-                        #
                  #######################################################


                         Program Version 5.0.2 -  RELEASE  -


 With contributions from (in alphabetic order):
   Daniel Aravena         : Magnetic Suceptibility
   Michael Atanasov       : Ab Initio Ligand Field Theory (pilot matlab implementation)
   Alexander A. Auer      : GIAO ZORA, VPT2 properties, NMR spectrum
   Ute Becker             : Parallelization
   Giovanni Bistoni       : ED, misc. LED, open-shell LED, HFLD
   Martin Brehm           : Molecular dynamics
   Dmytro Bykov           : SCF Hessian
   Vijay G. Chilkuri      : MRCI spin determinant printing, contributions to CSF-ICE
   Dipayan Datta          : RHF DLPNO-CCSD density
   Achintya Kumar Dutta   : EOM-CC, STEOM-CC
   Dmitry Ganyushin       : Spin-Orbit,Spin-Spin,Magnetic field MRCI
   Miquel Garcia          : C-PCM and meta-GGA Hessian, CC/C-PCM, Gaussian charge scheme
   Yang Guo               : DLPNO-NEVPT2, F12-NEVPT2, CIM, IAO-localization
   Andreas Hansen         : Spin unrestricted coupled pair/coupled cluster methods
   Benjamin Helmich-Paris : MC-RPA, TRAH-SCF, COSX integrals
   Lee Huntington         : MR-EOM, pCC
   Robert Izsak           : Overlap fitted RIJCOSX, COSX-SCS-MP3, EOM
   Marcus Kettner         : VPT2
   Christian Kollmar      : KDIIS, OOCD, Brueckner-CCSD(T), CCSD density, CASPT2, CASPT2-K
   Simone Kossmann        : Meta GGA functionals, TD-DFT gradient, OOMP2, MP2 Hessian
   Martin Krupicka        : Initial AUTO-CI
   Lucas Lang             : DCDCAS
   Marvin Lechner         : AUTO-CI (C++ implementation), FIC-MRCC
   Dagmar Lenk            : GEPOL surface, SMD
   Dimitrios Liakos       : Extrapolation schemes; Compound Job, initial MDCI parallelization
   Dimitrios Manganas     : Further ROCIS development; embedding schemes
   Dimitrios Pantazis     : SARC Basis sets
   Anastasios Papadopoulos: AUTO-CI, single reference methods and gradients
   Taras Petrenko         : DFT Hessian,TD-DFT gradient, ASA, ECA, R-Raman, ABS, FL, XAS/XES, NRVS
   Peter Pinski           : DLPNO-MP2, DLPNO-MP2 Gradient
   Christoph Reimann      : Effective Core Potentials
   Marius Retegan         : Local ZFS, SOC
   Christoph Riplinger    : Optimizer, TS searches, QM/MM, DLPNO-CCSD(T), (RO)-DLPNO pert. Triples
   Tobias Risthaus        : Range-separated hybrids, TD-DFT gradient, RPA, STAB
   Michael Roemelt        : Original ROCIS implementation
   Masaaki Saitow         : Open-shell DLPNO-CCSD energy and density
   Barbara Sandhoefer     : DKH picture change effects
   Avijit Sen             : IP-ROCIS
   Kantharuban Sivalingam : CASSCF convergence, NEVPT2, FIC-MRCI
   Bernardo de Souza      : ESD, SOC TD-DFT
   Georgi Stoychev        : AutoAux, RI-MP2 NMR, DLPNO-MP2 response
   Willem Van den Heuvel  : Paramagnetic NMR
   Boris Wezisla          : Elementary symmetry handling
   Frank Wennmohs         : Technical directorship


 We gratefully acknowledge several colleagues who have allowed us to
 interface, adapt or use parts of their codes:
   Stefan Grimme, W. Hujo, H. Kruse, P. Pracht,  : VdW corrections, initial TS optimization,
                  C. Bannwarth, S. Ehlert          DFT functionals, gCP, sTDA/sTD-DF
   Ed Valeev, F. Pavosevic, A. Kumar             : LibInt (2-el integral package), F12 methods
   Garnet Chan, S. Sharma, J. Yang, R. Olivares  : DMRG
   Ulf Ekstrom                                   : XCFun DFT Library
   Mihaly Kallay                                 : mrcc  (arbitrary order and MRCC methods)
   Jiri Pittner, Ondrej Demel                    : Mk-CCSD
   Frank Weinhold                                : gennbo (NPA and NBO analysis)
   Christopher J. Cramer and Donald G. Truhlar   : smd solvation model
   Lars Goerigk                                  : TD-DFT with DH, B97 family of functionals
   V. Asgeirsson, H. Jonsson                     : NEB implementation
   FAccTs GmbH                                   : IRC, NEB, NEB-TS, DLPNO-Multilevel, CI-OPT
                                                   MM, QMMM, 2- and 3-layer-ONIOM, Crystal-QMMM,
                                                   LR-CPCM, SF, NACMEs, symmetry and pop. for TD-DFT,
                                                   nearIR, NL-DFT gradient (VV10), updates on ESD,
                                                   ML-optimized integration grids
   S Lehtola, MJT Oliveira, MAL Marques          : LibXC Library
   Liviu Ungur et al                             : ANISO software


 Your calculation uses the libint2 library for the computation of 2-el integrals
 For citations please refer to: http://libint.valeyev.net

 Your ORCA version has been built with support for libXC version: 5.1.0
 For citations please refer to: https://tddft.org/programs/libxc/

 This ORCA versions uses:
   CBLAS   interface :  Fast vector & matrix operations
   LAPACKE interface :  Fast linear algebra routines
   SCALAPACK package :  Parallel linear algebra routines
   Shared memory     :  Shared parallel matrices
   BLAS/LAPACK       :  OpenBLAS 0.3.15  USE64BITINT DYNAMIC_ARCH NO_AFFINITY Zen SINGLE_THREADED
        Core in use  :  Zen
   Copyright (c) 2011-2014, The OpenBLAS Project


Your calculation utilizes the atom-pairwise dispersion correction
based on tight binding partial charges (D4)
Cite in your paper:
E.Caldeweyher, C.Bannwarth, S.Grimme, J.Chem.Phys., (2017), 147, 034112.
E.Caldeweyher, S.Ehlert, A.Hansen, H.Neugebauer, S.Grimme, J.Chem.Phys., (2018), in progress.
   

================================================================================

----- Orbital basis set information -----
Your calculation utilizes the basis: pcSseg-1
   F. Jensen, J. Chem. Theory Comput. 11, 132 (2015).

----- AuxJ basis set information -----
Your calculation utilizes the auxiliary basis: def2/J
   F. Weigend, Phys. Chem. Chem. Phys. 8, 1057 (2006).

================================================================================
                                        WARNINGS
                       Please study these warnings very carefully!
================================================================================



WARNING: Found flag for RIJCOSX approximation but no HF exchange needed!
  ===> : RIJCOSX  will be disabled and Split-RI-J is turned on

INFO   : the flag for use of the SHARK integral package has been found!

================================================================================
                                       INPUT FILE
================================================================================
NAME = inpS
|  1> ! revTPSS
|  2> ! D4
|  3> ! pcSseg-1
|  4> ! def2/J RIJCOSX
|  5> ! DEFGRID2
|  6> ! scfconv7
|  7> ! smallprint printgap noloewdin
|  8> ! NOSOSCF
|  9> %MaxCore 4000
| 10> %output
| 11>        print[P_BondOrder_M] 1
| 12>        print[P_Mayer] 1
| 13>        print[P_basis] 2
| 14> end
| 15> %pal
| 16>     nprocs 4
| 17> end
| 18> ! CPCM(chloroform)
| 19> *xyz 0 1
| 20> C   -5.1679386200   0.2533097700   0.2125188200
| 21> C   -6.5533920900  -0.2507334900  -0.1174695200
| 22> C   -7.1249328700   0.4303545300  -1.3668895800
| 23> H   -7.2345291200  -0.0208599100   0.7194853900
| 24> H   -6.5472820900  -1.3376808700  -0.2541444100
| 25> C   -5.0527015200   1.7266728200   0.2556902800
| 26> C   -5.6695060900   2.4389771600  -0.9266783000
| 27> C   -7.0960294800   1.9459471800  -1.2047307100
| 28> H   -5.0526968800   2.2362700800  -1.8154112000
| 29> H   -5.6604079100   3.5217352400  -0.7629912200
| 30> H   -7.4930957100   2.4220809500  -2.1089712900
| 31> H   -7.7523866900   2.2229253900  -0.3659153100
| 32> O   -8.4437582300  -0.0491528300  -1.6603776000
| 33> H   -6.5201573900   0.1452997700  -2.2391482700
| 34> C   -4.1415667500  -0.6087936200   0.4051288900
| 35> C   -4.4934237900   2.3905420400   1.2739364900
| 36> H   -4.0789869600   1.8674504700   2.1311624700
| 37> H   -4.4485767700   3.4770956900   1.2757021700
| 38> C   -2.7586584600  -0.2587607800   0.6322015400
| 39> H   -4.3852530200  -1.6684101300   0.3407366200
| 40> C   -1.7516351100  -1.1114021400   0.9196129600
| 41> H   -2.5158032100   0.7984922300   0.5524123200
| 42> C   -1.8896821800  -2.5986665600   1.1267156700
| 43> C   -0.8893360300  -3.3967978800   0.2691613200
| 44> H   -2.9073589100  -2.9505801000   0.9361855500
| 45> H   -1.6755488600  -2.8100097300   2.1868191000
| 46> C    0.5513457700  -2.8880744300   0.4144176100
| 47> H   -1.1961683200  -3.3449738000  -0.7831013600
| 48> H   -0.9355794500  -4.4548811100   0.5548082600
| 49> C    0.6546623400  -1.3826445000   0.1314587100
| 50> H    1.2020275700  -3.4651236000  -0.2508125900
| 51> H    0.8982467200  -3.0727687900   1.4423394300
| 52> C   -0.3350837300  -0.6578852600   1.0967336100
| 53> H   -0.0277880400  -0.9869219400   2.1072425400
| 54> C    0.0393073100   0.8142970400   0.9688363700
| 55> H   -9.0119208700   0.1875373200  -0.9150837300
| 56> C    1.5806445800   0.7802141700   0.8320448900
| 57> H   -0.2965162200   1.4048529200   1.8279370600
| 58> H   -0.4195997300   1.2535777700   0.0758091600
| 59> C    1.9879952100  -0.7017765800   0.5552423200
| 60> H    2.0660289200   1.1532520500   1.7379109200
| 61> H    1.9211843400   1.4243106100   0.0123231600
| 62> H    2.2766315300  -1.1738865900   1.5076958900
| 63> C    3.1854565200  -0.7987252700  -0.4004316300
| 64> C    0.3100981400  -1.0721800500  -1.3320348200
| 65> H   -0.7482241000  -1.2594377800  -1.5383086400
| 66> H    0.9006580700  -1.6948390200  -2.0125079200
| 67> H    0.5098989400  -0.0255806300  -1.5831082200
| 68> H    2.9049582500  -0.2860137500  -1.3343758200
| 69> C    3.5833520000  -2.2399250100  -0.7697429300
| 70> C    4.4253303800  -0.1039219300   0.1177940400
| 71> C    4.7214479100   0.2051094700   1.3791720700
| 72> H    5.1775501600   0.1062549500  -0.6479954400
| 73> H    4.0038167000  -0.0028572100   2.1763331600
| 74> C    6.0125036800   0.8251324600   1.8367297200
| 75> C    6.7430923500  -0.1591560400   2.7645567900
| 76> C    5.7540331900   2.1916453100   2.5179370500
| 77> H    6.6433367100   1.0073638100   0.9519748200
| 78> H    5.0693676500   2.0091923600   3.3624407000
| 79> C    5.0767030400   3.1658719900   1.5503804500
| 80> C    7.0397033500   2.8150599800   3.0693622500
| 81> H    6.8348427200  -1.1383360400   2.2833738800
| 82> H    6.1849590400  -0.2935493000   3.6997764400
| 83> H    7.7495207500   0.1882853000   3.0157184500
| 84> H    4.8752428300   4.1246585000   2.0407015000
| 85> H    4.1304458300   2.7667720000   1.1726038200
| 86> H    5.7273197300   3.3583804300   0.6872187600
| 87> H    7.7908080200   2.9135839400   2.2747533300
| 88> H    7.4763415300   2.2214231900   3.8774301900
| 89> H    6.8390407600   3.8169673800   3.4647524600
| 90> H    4.5241729000  -2.2421947500  -1.3315397200
| 91> H    2.8270123300  -2.7302534900  -1.3880171700
| 92> H    3.7329279000  -2.8375400400   0.1371453900
| 93> *
| 94> %eprnmr
| 95>  Nuclei = all H { shift }
| 96>  origin giao
| 97>  giao_2el giao_2el_same_as_scf
| 98>  giao_1el giao_1el_analytic
| 99> end
|100> 
|101>                          ****END OF INPUT****
================================================================================

                       ****************************
                       * Single Point Calculation *
                       ****************************

---------------------------------
CARTESIAN COORDINATES (ANGSTROEM)
---------------------------------
  C     -5.167939    0.253310    0.212519
  C     -6.553392   -0.250733   -0.117470
  C     -7.124933    0.430355   -1.366890
  H     -7.234529   -0.020860    0.719485
  H     -6.547282   -1.337681   -0.254144
  C     -5.052702    1.726673    0.255690
  C     -5.669506    2.438977   -0.926678
  C     -7.096029    1.945947   -1.204731
  H     -5.052697    2.236270   -1.815411
  H     -5.660408    3.521735   -0.762991
  H     -7.493096    2.422081   -2.108971
  H     -7.752387    2.222925   -0.365915
  O     -8.443758   -0.049153   -1.660378
  H     -6.520157    0.145300   -2.239148
  C     -4.141567   -0.608794    0.405129
  C     -4.493424    2.390542    1.273936
  H     -4.078987    1.867450    2.131162
  H     -4.448577    3.477096    1.275702
  C     -2.758658   -0.258761    0.632202
  H     -4.385253   -1.668410    0.340737
  C     -1.751635   -1.111402    0.919613
  H     -2.515803    0.798492    0.552412
  C     -1.889682   -2.598667    1.126716
  C     -0.889336   -3.396798    0.269161
  H     -2.907359   -2.950580    0.936186
  H     -1.675549   -2.810010    2.186819
  C      0.551346   -2.888074    0.414418
  H     -1.196168   -3.344974   -0.783101
  H     -0.935579   -4.454881    0.554808
  C      0.654662   -1.382644    0.131459
  H      1.202028   -3.465124   -0.250813
  H      0.898247   -3.072769    1.442339
  C     -0.335084   -0.657885    1.096734
  H     -0.027788   -0.986922    2.107243
  C      0.039307    0.814297    0.968836
  H     -9.011921    0.187537   -0.915084
  C      1.580645    0.780214    0.832045
  H     -0.296516    1.404853    1.827937
  H     -0.419600    1.253578    0.075809
  C      1.987995   -0.701777    0.555242
  H      2.066029    1.153252    1.737911
  H      1.921184    1.424311    0.012323
  H      2.276632   -1.173887    1.507696
  C      3.185457   -0.798725   -0.400432
  C      0.310098   -1.072180   -1.332035
  H     -0.748224   -1.259438   -1.538309
  H      0.900658   -1.694839   -2.012508
  H      0.509899   -0.025581   -1.583108
  H      2.904958   -0.286014   -1.334376
  C      3.583352   -2.239925   -0.769743
  C      4.425330   -0.103922    0.117794
  C      4.721448    0.205109    1.379172
  H      5.177550    0.106255   -0.647995
  H      4.003817   -0.002857    2.176333
  C      6.012504    0.825132    1.836730
  C      6.743092   -0.159156    2.764557
  C      5.754033    2.191645    2.517937
  H      6.643337    1.007364    0.951975
  H      5.069368    2.009192    3.362441
  C      5.076703    3.165872    1.550380
  C      7.039703    2.815060    3.069362
  H      6.834843   -1.138336    2.283374
  H      6.184959   -0.293549    3.699776
  H      7.749521    0.188285    3.015718
  H      4.875243    4.124658    2.040701
  H      4.130446    2.766772    1.172604
  H      5.727320    3.358380    0.687219
  H      7.790808    2.913584    2.274753
  H      7.476342    2.221423    3.877430
  H      6.839041    3.816967    3.464752
  H      4.524173   -2.242195   -1.331540
  H      2.827012   -2.730253   -1.388017
  H      3.732928   -2.837540    0.137145

----------------------------
CARTESIAN COORDINATES (A.U.)
----------------------------
  NO LB      ZA    FRAG     MASS         X           Y           Z
   0 C     6.0000    0    12.011   -9.765989    0.478686    0.401602
   1 C     6.0000    0    12.011  -12.384116   -0.473818   -0.221985
   2 C     6.0000    0    12.011  -13.464172    0.813252   -2.583047
   3 H     1.0000    0     1.008  -13.671279   -0.039420    1.359630
   4 H     1.0000    0     1.008  -12.372570   -2.527850   -0.480263
   5 C     6.0000    0    12.011   -9.548222    3.262939    0.483185
   6 C     6.0000    0    12.011  -10.713814    4.608999   -1.751168
   7 C     6.0000    0    12.011  -13.409552    3.677307   -2.276611
   8 H     1.0000    0     1.008   -9.548213    4.225938   -3.430630
   9 H     1.0000    0     1.008  -10.696621    6.655115   -1.441844
  10 H     1.0000    0     1.008  -14.159899    4.577070   -3.985378
  11 H     1.0000    0     1.008  -14.649888    4.200720   -0.691480
  12 O     8.0000    0    15.999  -15.956391   -0.092885   -3.137659
  13 H     1.0000    0     1.008  -12.321312    0.274577   -4.231377
  14 C     6.0000    0    12.011   -7.826427   -1.150453    0.765583
  15 C     6.0000    0    12.011   -8.491340    4.517470    2.407391
  16 H     1.0000    0     1.008   -7.708168    3.528970    4.027313
  17 H     1.0000    0     1.008   -8.406592    6.570759    2.410728
  18 C     6.0000    0    12.011   -5.213109   -0.488987    1.194688
  19 H     1.0000    0     1.008   -8.286927   -3.152838    0.643899
  20 C     6.0000    0    12.011   -3.310111   -2.100246    1.737817
  21 H     1.0000    0     1.008   -4.754179    1.508932    1.043908
  22 C     6.0000    0    12.011   -3.570982   -4.910768    2.129184
  23 C     6.0000    0    12.011   -1.680602   -6.419018    0.508641
  24 H     1.0000    0     1.008   -5.494112   -5.575788    1.769134
  25 H     1.0000    0     1.008   -3.166328   -5.310149    4.132489
  26 C     6.0000    0    12.011    1.041893   -5.457670    0.783136
  27 H     1.0000    0     1.008   -2.260431   -6.321084   -1.479847
  28 H     1.0000    0     1.008   -1.767989   -8.418505    1.048436
  29 C     6.0000    0    12.011    1.237133   -2.612819    0.248421
  30 H     1.0000    0     1.008    2.271503   -6.548135   -0.473967
  31 H     1.0000    0     1.008    1.697440   -5.806691    2.725627
  32 C     6.0000    0    12.011   -0.633216   -1.243223    2.072526
  33 H     1.0000    0     1.008   -0.052512   -1.865012    3.982111
  34 C     6.0000    0    12.011    0.074280    1.538798    1.830835
  35 H     1.0000    0     1.008  -17.030062    0.354394   -1.729258
  36 C     6.0000    0    12.011    2.986985    1.474391    1.572337
  37 H     1.0000    0     1.008   -0.560334    2.654787    3.454300
  38 H     1.0000    0     1.008   -0.792929    2.368919    0.143259
  39 C     6.0000    0    12.011    3.756767   -1.326166    1.049256
  40 H     1.0000    0     1.008    3.904229    2.179331    3.284176
  41 H     1.0000    0     1.008    3.630512    2.691557    0.023287
  42 H     1.0000    0     1.008    4.302210   -2.218324    2.849132
  43 C     6.0000    0    12.011    6.019640   -1.509372   -0.756706
  44 C     6.0000    0    12.011    0.586001   -2.026127   -2.517181
  45 H     1.0000    0     1.008   -1.413939   -2.379992   -2.906982
  46 H     1.0000    0     1.008    1.701997   -3.202782   -3.803089
  47 H     1.0000    0     1.008    0.963569   -0.048340   -2.991641
  48 H     1.0000    0     1.008    5.489576   -0.540488   -2.521605
  49 C     6.0000    0    12.011    6.771554   -4.232845   -1.454603
  50 C     6.0000    0    12.011    8.362662   -0.196384    0.222598
  51 C     6.0000    0    12.011    8.922244    0.387601    2.606258
  52 H     1.0000    0     1.008    9.784152    0.200793   -1.224534
  53 H     1.0000    0     1.008    7.566117   -0.005399    4.112674
  54 C     6.0000    0    12.011   11.361985    1.559274    3.470916
  55 C     6.0000    0    12.011   12.742598   -0.300761    5.224255
  56 C     6.0000    0    12.011   10.873547    4.141609    4.758211
  57 H     1.0000    0     1.008   12.554087    1.903642    1.798972
  58 H     1.0000    0     1.008    9.579717    3.796823    6.354092
  59 C     6.0000    0    12.011    9.593578    5.982631    2.929794
  60 C     6.0000    0    12.011   13.303111    5.319692    5.800254
  61 H     1.0000    0     1.008   12.915981   -2.151143    4.314951
  62 H     1.0000    0     1.008   11.687879   -0.554728    6.991564
  63 H     1.0000    0     1.008   14.644472    0.355808    5.698882
  64 H     1.0000    0     1.008    9.212874    7.794475    3.856367
  65 H     1.0000    0     1.008    7.805411    5.228441    2.215900
  66 H     1.0000    0     1.008   10.823066    6.346419    1.298655
  67 H     1.0000    0     1.008   14.722494    5.505876    4.298661
  68 H     1.0000    0     1.008   14.128238    4.197881    7.327281
  69 H     1.0000    0     1.008   12.923914    7.213023    6.547433
  70 H     1.0000    0     1.008    8.549448   -4.237134   -2.516245
  71 H     1.0000    0     1.008    5.342279   -5.159431   -2.622972
  72 H     1.0000    0     1.008    7.054211   -5.362174    0.259167

--------------------------------
INTERNAL COORDINATES (ANGSTROEM)
--------------------------------
 C      0   0   0     0.000000000000     0.00000000     0.00000000
 C      1   0   0     1.510772395175     0.00000000     0.00000000
 C      2   1   0     1.533489563225   111.81256139     0.00000000
 H      2   1   3     1.103305505194   109.32609033   241.47249984
 H      2   1   3     1.095523602916   110.68049656   122.94153647
 C      1   2   3     1.478493165787   114.22556635    50.17518564
 C      6   1   2     1.511893121000   114.51087159   312.25842924
 C      3   2   1     1.524516968029   110.35360719   305.18291002
 H      7   6   1     1.100631604746   108.42606313   289.95195856
 H      7   6   1     1.095098761228   110.21483732   172.72266897
 H      8   3   2     1.096364895671   109.70318863   179.18283816
 H      8   3   2     1.100514875506   108.66131711   296.63611916
 O      3   2   1     1.433653673785   111.16748036   180.51541204
 H      3   2   1     1.099019935983   109.04763615    65.34999782
 C      1   2   3     1.354163989199   120.91280200   232.01348951
 C      6   1   2     1.338035599196   123.31421424   129.98475052
 H     16   6   1     1.086378873806   121.40190776     0.66674266
 H     16   6   1     1.087480210007   120.94415776   181.35957038
 C     15   1   2     1.444479254267   126.42133350   175.38558272
 H     15   1   2     1.089181578474   116.19104779   358.03301334
 C     19  15   1     1.350443867984   126.46777835   174.88198887
 H     19  15   1     1.087717297479   115.96104282   354.31438652
 C     21  19  15     1.507946942377   125.70998704   356.81339925
 C     23  21  19     1.540488716930   112.03016400   129.02478421
 H     23  21  19     1.093531340678   112.25111628     4.79305732
 H     23  21  19     1.101970188588   107.66733606   247.69893054
 C     24  23  21     1.534751767295   112.65277635    50.48464595
 H     24  23  21     1.097309681528   109.13388630   288.34447025
 H     24  23  21     1.096937896980   109.11193698   172.38198677
 C     27  24  23     1.535271743655   111.76210108   306.06167760
 H     27  24  23     1.094944641724   109.00473013   182.49297286
 H     27  24  23     1.100488774935   109.18848436    65.97103965
 C     21  19  15     1.497887544938   122.62982719   178.00362873
 H     33  21  19     1.106265824966   106.29914844   122.81079164
 C     33  21  19     1.524416963716   120.97979806     0.47765776
 H     13   3   2     0.966588829471   107.51619971    62.61325502
 C     35  33  21     1.547770697138   103.33971685   194.97422407
 H     35  33  21     1.095256904230   112.30924621    73.19189895
 H     35  33  21     1.095929207983   110.64767417   313.52457544
 C     30  27  24     1.555940299244   115.88434222   166.76894704
 H     37  35  33     1.093319935673   111.18430580   251.64848983
 H     37  35  33     1.096709290011   111.24430825   133.35006808
 H     40  30  27     1.101529205138   105.81296296   321.87416922
 C     40  30  27     1.535130397116   118.11525291    82.72956657
 C     30  27  24     1.535228313635   111.03180085   295.04226768
 H     45  30  27     1.094376676442   111.23041812    67.84639100
 H     45  30  27     1.095220920028   110.87244021   307.80068097
 H     45  30  27     1.094681943677   111.77856367   187.72590328
 H     44  40  30     1.101727794080   107.44215045    62.64326675
 C     44  40  30     1.540054654838   114.19984823   303.71911833
 C     44  40  30     1.512810865585   113.39367696   180.14507352
 C     51  44  40     1.332013713265   127.81739016    21.57936268
 H     51  44  40     1.093820115919   114.33370209   197.73141581
 H     52  51  44     1.092570591297   120.04958996   356.98257177
 C     52  51  44     1.503533342647   125.08200842   176.15398363
 C     55  52  51     1.537350554620   109.12972914   243.88838085
 C     55  52  51     1.548614797121   110.75873844   119.81515213
 H     55  52  51     1.101793905291   108.38916635     1.95535204
 H     57  55  52     1.102380331596   107.13332640    58.05171569
 C     57  55  52     1.531032178083   110.93720581   299.98351793
 C     57  55  52     1.531555863258   112.17579514   176.68875920
 H     56  55  52     1.094873780703   110.31484878    52.09191335
 H     56  55  52     1.097365086838   110.55171085   292.80781777
 H     56  55  52     1.093935916094   111.86549639   172.24293015
 H     60  57  55     1.095569495762   110.81745531   178.78041728
 H     60  57  55     1.094257141475   111.63311157    57.91922979
 H     60  57  55     1.097911508211   110.25803257   298.17730223
 H     61  57  55     1.097847226044   110.50302109    55.95552002
 H     61  57  55     1.093632175062   112.34830912   295.15925076
 H     61  57  55     1.095635583287   110.39026089   175.01701533
 H     50  44  40     1.095794118825   110.28605593   188.15483808
 H     50  44  40     1.093039226452   112.12716515    68.20675946
 H     50  44  40     1.096340776809   110.30359531   307.12845545

---------------------------
INTERNAL COORDINATES (A.U.)
---------------------------
 C      0   0   0     0.000000000000     0.00000000     0.00000000
 C      1   0   0     2.854946077569     0.00000000     0.00000000
 C      2   1   0     2.897875303722   111.81256139     0.00000000
 H      2   1   3     2.084945246865   109.32609033   241.47249984
 H      2   1   3     2.070239582757   110.68049656   122.94153647
 C      1   2   3     2.793947174213   114.22556635    50.17518564
 C      6   1   2     2.857063942449   114.51087159   312.25842924
 C      3   2   1     2.880919556090   110.35360719   305.18291002
 H      7   6   1     2.079892307308   108.42606313   289.95195856
 H      7   6   1     2.069436748318   110.21483732   172.72266897
 H      8   3   2     2.071829395663   109.70318863   179.18283816
 H      8   3   2     2.079671721014   108.66131711   296.63611916
 O      3   2   1     2.709212814343   111.16748036   180.51541204
 H      3   2   1     2.076846694728   109.04763615    65.34999782
 C      1   2   3     2.558999080004   120.91280200   232.01348951
 C      6   1   2     2.528520839918   123.31421424   129.98475052
 H     16   6   1     2.052958549172   121.40190776     0.66674266
 H     16   6   1     2.055039772973   120.94415776   181.35957038
 C     15   1   2     2.729670196695   126.42133350   175.38558272
 H     15   1   2     2.058254893428   116.19104779   358.03301334
 C     19  15   1     2.551969069722   126.46777835   174.88198887
 H     19  15   1     2.055487803364   115.96104282   354.31438652
 C     21  19  15     2.849606745576   125.70998704   356.81339925
 C     23  21  19     2.911101787393   112.03016400   129.02478421
 H     23  21  19     2.066474752742   112.25111628     4.79305732
 H     23  21  19     2.082421864178   107.66733606   247.69893054
 C     24  23  21     2.900260523740   112.65277635    50.48464595
 H     24  23  21     2.073614782188   109.13388630   288.34447025
 H     24  23  21     2.072912211213   109.11193698   172.38198677
 C     27  24  23     2.901243136656   111.76210108   306.06167760
 H     27  24  23     2.069145504664   109.00473013   182.49297286
 H     27  24  23     2.079622398082   109.18848436    65.97103965
 C     21  19  15     2.830597239345   122.62982719   178.00362873
 H     33  21  19     2.090539440502   106.29914844   122.81079164
 C     33  21  19     2.880730575327   120.97979806     0.47765776
 H     13   3   2     1.826588171808   107.51619971    62.61325502
 C     35  33  21     2.924862735699   103.33971685   194.97422407
 H     35  33  21     2.069735595280   112.30924621    73.19189895
 H     35  33  21     2.071006065254   110.64767417   313.52457544
 C     30  27  24     2.940301046303   115.88434222   166.76894704
 H     37  35  33     2.066075255178   111.18430580   251.64848983
 H     37  35  33     2.072480206647   111.24430825   133.35006808
 H     40  30  27     2.081588526226   105.81296296   321.87416922
 C     40  30  27     2.900976030406   118.11525291    82.72956657
 C     30  27  24     2.901161065812   111.03180085   295.04226768
 H     45  30  27     2.068072205827   111.23041812    67.84639100
 H     45  30  27     2.069667594994   110.87244021   307.80068097
 H     45  30  27     2.068649077298   111.77856367   187.72590328
 H     44  40  30     2.081963804940   107.44215045    62.64326675
 C     44  40  30     2.910281528914   114.19984823   303.71911833
 C     44  40  30     2.858798228377   113.39367696   180.14507352
 C     51  44  40     2.517141124698   127.81739016    21.57936268
 H     51  44  40     2.067020458860   114.33370209   197.73141581
 H     52  51  44     2.064659199527   120.04958996   356.98257177
 C     52  51  44     2.841266250823   125.08200842   176.15398363
 C     55  52  51     2.905171520063   109.12972914   243.88838085
 C     55  52  51     2.926457853496   110.75873844   119.81515213
 H     55  52  51     2.082088737023   108.38916635     1.95535204
 H     57  55  52     2.083196922138   107.13332640    58.05171569
 C     57  55  52     2.893231518798   110.93720581   299.98351793
 C     57  55  52     2.894221140359   112.17579514   176.68875920
 H     56  55  52     2.069011596740   110.31484878    52.09191335
 H     56  55  52     2.073719483051   110.55171085   292.80781777
 H     56  55  52     2.067239289479   111.86549639   172.24293015
 H     60  57  55     2.070326307668   110.81745531   178.78041728
 H     60  57  55     2.067846317475   111.63311157    57.91922979
 H     60  57  55     2.074752069799   110.25803257   298.17730223
 H     61  57  55     2.074630594109   110.50302109    55.95552002
 H     61  57  55     2.066665302112   112.34830912   295.15925076
 H     61  57  55     2.070451194991   110.39026089   175.01701533
 H     50  44  40     2.070750783740   110.28605593   188.15483808
 H     50  44  40     2.065544791627   112.12716515    68.20675946
 H     50  44  40     2.071783817620   110.30359531   307.12845545

---------------------
BASIS SET INFORMATION
---------------------
There are 3 groups of distinct atoms

 Group   1 Type C   : 8s5p1d contracted to 3s3p1d pattern {521/311/1}
 Group   2 Type H   : 4s2p contracted to 2s1p pattern {31/2}
 Group   3 Type O   : 8s5p1d contracted to 3s3p1d pattern {521/311/1}

Atom   0C    basis set group =>   1
Atom   1C    basis set group =>   1
Atom   2C    basis set group =>   1
Atom   3H    basis set group =>   2
Atom   4H    basis set group =>   2
Atom   5C    basis set group =>   1
Atom   6C    basis set group =>   1
Atom   7C    basis set group =>   1
Atom   8H    basis set group =>   2
Atom   9H    basis set group =>   2
Atom  10H    basis set group =>   2
Atom  11H    basis set group =>   2
Atom  12O    basis set group =>   3
Atom  13H    basis set group =>   2
Atom  14C    basis set group =>   1
Atom  15C    basis set group =>   1
Atom  16H    basis set group =>   2
Atom  17H    basis set group =>   2
Atom  18C    basis set group =>   1
Atom  19H    basis set group =>   2
Atom  20C    basis set group =>   1
Atom  21H    basis set group =>   2
Atom  22C    basis set group =>   1
Atom  23C    basis set group =>   1
Atom  24H    basis set group =>   2
Atom  25H    basis set group =>   2
Atom  26C    basis set group =>   1
Atom  27H    basis set group =>   2
Atom  28H    basis set group =>   2
Atom  29C    basis set group =>   1
Atom  30H    basis set group =>   2
Atom  31H    basis set group =>   2
Atom  32C    basis set group =>   1
Atom  33H    basis set group =>   2
Atom  34C    basis set group =>   1
Atom  35H    basis set group =>   2
Atom  36C    basis set group =>   1
Atom  37H    basis set group =>   2
Atom  38H    basis set group =>   2
Atom  39C    basis set group =>   1
Atom  40H    basis set group =>   2
Atom  41H    basis set group =>   2
Atom  42H    basis set group =>   2
Atom  43C    basis set group =>   1
Atom  44C    basis set group =>   1
Atom  45H    basis set group =>   2
Atom  46H    basis set group =>   2
Atom  47H    basis set group =>   2
Atom  48H    basis set group =>   2
Atom  49C    basis set group =>   1
Atom  50C    basis set group =>   1
Atom  51C    basis set group =>   1
Atom  52H    basis set group =>   2
Atom  53H    basis set group =>   2
Atom  54C    basis set group =>   1
Atom  55C    basis set group =>   1
Atom  56C    basis set group =>   1
Atom  57H    basis set group =>   2
Atom  58H    basis set group =>   2
Atom  59C    basis set group =>   1
Atom  60C    basis set group =>   1
Atom  61H    basis set group =>   2
Atom  62H    basis set group =>   2
Atom  63H    basis set group =>   2
Atom  64H    basis set group =>   2
Atom  65H    basis set group =>   2
Atom  66H    basis set group =>   2
Atom  67H    basis set group =>   2
Atom  68H    basis set group =>   2
Atom  69H    basis set group =>   2
Atom  70H    basis set group =>   2
Atom  71H    basis set group =>   2
Atom  72H    basis set group =>   2

-------------------------
BASIS SET IN INPUT FORMAT
-------------------------

 # Basis set for element : H 
 NewGTO H 
 S 3 
   1      12.2518000000      0.0372173893
   2       1.8687100000      0.2538082070
   3       0.4182080000      0.7973867639
 S 1 
   1       0.1061000000      1.0000000000
 P 2 
   1       9.0000000000      0.0402678705
   2       1.0000000000      0.9880231245
  end;

 # Basis set for element : C 
 NewGTO C 
 S 5 
   1    1243.2000000000      0.0056300977
   2     187.1450000000      0.0419506039
   3      42.5126000000      0.1846643605
   4      11.7393000000      0.4665574214
   5       3.5054800000      0.4482347783
 S 2 
   1       5.3908900000     -0.1481148174
   2       0.4933410000      1.0519817143
 S 1 
   1       0.1497410000      1.0000000000
 P 3 
   1      59.6736000000      0.0113906672
   2       9.1805600000      0.1672414929
   3       1.9365800000      0.9041087436
 P 1 
   1       0.5262960000      1.0000000000
 P 1 
   1       0.1363190000      1.0000000000
 D 1 
   1       0.8000000000      1.0000000000
  end;

 # Basis set for element : O 
 NewGTO O 
 S 5 
   1    2288.6400000000      0.0054511382
   2     344.4160000000      0.0407189228
   3      78.2538000000      0.1813694209
   4      21.7195000000      0.4655368202
   5       6.5590700000      0.4512113212
 S 2 
   1      10.4656000000     -0.1502112012
   2       0.9643510000      1.0528679834
 S 1 
   1       0.2851270000      1.0000000000
 P 3 
   1     110.8840000000      0.0113058003
   2      17.0590000000      0.1699226452
   3       3.6899900000      0.9008060328
 P 1 
   1       0.9929960000      1.0000000000
 P 1 
   1       0.2449240000      1.0000000000
 D 1 
   1       1.0000000000      1.0000000000
  end;

---------------------------------
AUXILIARY/J BASIS SET INFORMATION
---------------------------------
There are 3 groups of distinct atoms

 Group   1 Type C   : 12s5p4d2f1g contracted to 6s4p3d1f1g pattern {711111/2111/211/2/1}
 Group   2 Type H   : 5s2p1d contracted to 3s1p1d pattern {311/2/1}
 Group   3 Type O   : 12s5p4d2f1g contracted to 6s4p3d1f1g pattern {711111/2111/211/2/1}

Atom   0C    basis set group =>   1
Atom   1C    basis set group =>   1
Atom   2C    basis set group =>   1
Atom   3H    basis set group =>   2
Atom   4H    basis set group =>   2
Atom   5C    basis set group =>   1
Atom   6C    basis set group =>   1
Atom   7C    basis set group =>   1
Atom   8H    basis set group =>   2
Atom   9H    basis set group =>   2
Atom  10H    basis set group =>   2
Atom  11H    basis set group =>   2
Atom  12O    basis set group =>   3
Atom  13H    basis set group =>   2
Atom  14C    basis set group =>   1
Atom  15C    basis set group =>   1
Atom  16H    basis set group =>   2
Atom  17H    basis set group =>   2
Atom  18C    basis set group =>   1
Atom  19H    basis set group =>   2
Atom  20C    basis set group =>   1
Atom  21H    basis set group =>   2
Atom  22C    basis set group =>   1
Atom  23C    basis set group =>   1
Atom  24H    basis set group =>   2
Atom  25H    basis set group =>   2
Atom  26C    basis set group =>   1
Atom  27H    basis set group =>   2
Atom  28H    basis set group =>   2
Atom  29C    basis set group =>   1
Atom  30H    basis set group =>   2
Atom  31H    basis set group =>   2
Atom  32C    basis set group =>   1
Atom  33H    basis set group =>   2
Atom  34C    basis set group =>   1
Atom  35H    basis set group =>   2
Atom  36C    basis set group =>   1
Atom  37H    basis set group =>   2
Atom  38H    basis set group =>   2
Atom  39C    basis set group =>   1
Atom  40H    basis set group =>   2
Atom  41H    basis set group =>   2
Atom  42H    basis set group =>   2
Atom  43C    basis set group =>   1
Atom  44C    basis set group =>   1
Atom  45H    basis set group =>   2
Atom  46H    basis set group =>   2
Atom  47H    basis set group =>   2
Atom  48H    basis set group =>   2
Atom  49C    basis set group =>   1
Atom  50C    basis set group =>   1
Atom  51C    basis set group =>   1
Atom  52H    basis set group =>   2
Atom  53H    basis set group =>   2
Atom  54C    basis set group =>   1
Atom  55C    basis set group =>   1
Atom  56C    basis set group =>   1
Atom  57H    basis set group =>   2
Atom  58H    basis set group =>   2
Atom  59C    basis set group =>   1
Atom  60C    basis set group =>   1
Atom  61H    basis set group =>   2
Atom  62H    basis set group =>   2
Atom  63H    basis set group =>   2
Atom  64H    basis set group =>   2
Atom  65H    basis set group =>   2
Atom  66H    basis set group =>   2
Atom  67H    basis set group =>   2
Atom  68H    basis set group =>   2
Atom  69H    basis set group =>   2
Atom  70H    basis set group =>   2
Atom  71H    basis set group =>   2
Atom  72H    basis set group =>   2

-------------------------------------
AUXILIARY/J BASIS SET IN INPUT FORMAT
-------------------------------------

 # Auxiliary/J basis set for element : H 
 NewAuxJGTO H 
 S 3 
   1      15.6752927000      0.1007184237
   2       3.6063578000      0.3404257499
   3       1.2080016000      0.6491996172
 S 1 
   1       0.4726794000      1.0000000000
 S 1 
   1       0.2018100000      1.0000000000
 P 2 
   1       2.0281365000      0.5596620919
   2       0.5358730000      0.5596620919
 D 1 
   1       2.2165124000      1.0000000000
  end;

 # Auxiliary/J basis set for element : C 
 NewAuxJGTO C 
 S 7 
   1    1861.0916331000      0.0134602335
   2     642.9939764000      0.0299160374
   3     235.1105725000      0.1008649584
   4      90.7028894000      0.2370970548
   5      36.7794552000      0.3924037254
   6      15.6046273000      0.3195862154
   7       6.8907294000      0.0530104441
 S 1 
   1       3.1478850000     -1.0000000000
 S 1 
   1       1.4777287000      1.0000000000
 S 1 
   1       0.7076466000      1.0000000000
 S 1 
   1       0.3430122000      1.0000000000
 S 1 
   1       0.1669453000      1.0000000000
 P 2 
   1      13.5472892000     -0.6769313712
   2       5.4669419000     -0.3779500978
 P 1 
   1       2.1751721000      1.0000000000
 P 1 
   1       0.8582194000      1.0000000000
 P 1 
   1       0.3376720000      1.0000000000
 D 2 
   1       5.9287253000     -0.3533329857
   2       1.9809209000     -0.7456525731
 D 1 
   1       0.8055417000     -1.0000000000
 D 1 
   1       0.3531244000     -1.0000000000
 F 2 
   1       1.6755626000      0.6311076882
   2       0.5997536000      0.4968166032
 G 1 
   1       1.0024600000     -1.0000000000
  end;

 # Auxiliary/J basis set for element : O 
 NewAuxJGTO O 
 S 7 
   1    2876.8216605000      0.0168151159
   2    1004.7443032000      0.0340137548
   3     369.7579954000      0.1194951309
   4     142.9442404000      0.2664627624
   5      57.8366425000      0.4202764046
   6      24.3864983000      0.2765077335
   7      10.6622662000      0.0057008815
 S 1 
   1       4.8070437000     -1.0000000000
 S 1 
   1       2.2210770000      1.0000000000
 S 1 
   1       1.0447795000      1.0000000000
 S 1 
   1       0.4968425000      1.0000000000
 S 1 
   1       0.2371384000      1.0000000000
 P 2 
   1      64.2613382000     -0.2731534179
   2      16.3006076000     -0.8168011598
 P 1 
   1       4.3550542000      1.0000000000
 P 1 
   1       1.2019554000      1.0000000000
 P 1 
   1       0.3354196000      1.0000000000
 D 2 
   1       9.2146611000     -0.4661230638
   2       2.8435251000     -0.6600908911
 D 1 
   1       0.9955759000     -1.0000000000
 D 1 
   1       0.3649441000     -1.0000000000
 F 2 
   1       2.6420115000      0.5931563945
   2       0.7345613000      0.5931563945
 G 1 
   1       1.3931000000     -1.0000000000
  end;



           ************************************************************
           *        Program running with 4 parallel MPI-processes     *
           *              working on a common directory               *
           ************************************************************
------------------------------------------------------------------------------
                           ORCA GTO INTEGRAL CALCULATION
                           -- RI-GTO INTEGRALS CHOSEN --
------------------------------------------------------------------------------
------------------------------------------------------------------------------
                   ___                                                        
                  /   \      - P O W E R E D   B Y -                         
                 /     \                                                     
                 |  |  |   _    _      __       _____    __    __             
                 |  |  |  | |  | |    /  \     |  _  \  |  |  /  |          
                  \  \/   | |  | |   /    \    | | | |  |  | /  /          
                 / \  \   | |__| |  /  /\  \   | |_| |  |  |/  /          
                |  |  |   |  __  | /  /__\  \  |    /   |      \           
                |  |  |   | |  | | |   __   |  |    \   |  |\   \          
                \     /   | |  | | |  |  |  |  | |\  \  |  | \   \       
                 \___/    |_|  |_| |__|  |__|  |_| \__\ |__|  \__/        
                                                                              
                      - O R C A' S   B I G   F R I E N D -                    
                                      &                                       
                       - I N T E G R A L  F E E D E R -                       
                                                                              
 v1 FN, 2020, v2 2021                                                         
------------------------------------------------------------------------------


Reading SHARK input file inpS.SHARKINP.tmp ... ok
----------------------
SHARK INTEGRAL PACKAGE
----------------------

Number of atoms                             ...     73
Number of basis functions                   ...    713
Number of shells                            ...    335
Maximum angular momentum                    ...      2
Integral batch strategy                     ... SHARK/LIBINT Hybrid
RI-J (if used) integral strategy            ... SPLIT-RIJ (Revised 2003 algorithm where possible)
Printlevel                                  ...      1
Contraction scheme used                     ... SEGMENTED contraction
Coulomb Range Separation                    ... NOT USED
Exchange Range Separation                   ... NOT USED
Finite Nucleus Model                        ... NOT USED
Auxiliary Coulomb fitting basis             ... AVAILABLE
   # of basis functions in Aux-J            ...   1905
   # of shells in Aux-J                     ...    655
   Maximum angular momentum in Aux-J        ...      4
Auxiliary J/K fitting basis                 ... NOT available
Auxiliary Correlation fitting basis         ... NOT available
Auxiliary 'external' fitting basis          ... NOT available
Integral threshold                          ...     3.000000e-11
Primitive cut-off                           ...     1.000000e-12
Primitive pair pre-selection threshold      ...     1.000000e-12

Calculating pre-screening integrals         ... done (  0.1 sec) Dimension = 335
Organizing shell pair data                  ... done (  0.2 sec)
Shell pair information
Total number of shell pairs                 ...     56280
Shell pairs after pre-screening             ...     31720
Total number of primitive shell pairs       ...    225367
Primitive shell pairs kept                  ...     74623
          la=0 lb=0:   9718 shell pairs
          la=1 lb=0:  13035 shell pairs
          la=1 lb=1:   4246 shell pairs
          la=2 lb=0:   2770 shell pairs
          la=2 lb=1:   1755 shell pairs
          la=2 lb=2:    196 shell pairs

Calculating one electron integrals          ... done (  0.1 sec)
Calculating RI/J V-Matrix + Cholesky decomp.... done (  0.2 sec)
Calculating Nuclear repulsion               ... done (  0.0 sec) ENN=   2779.438676980233 Eh

SHARK setup successfully completed in   0.8 seconds

Maximum memory used throughout the entire GTOINT-calculation: 61.2 MB


           ************************************************************
           *        Program running with 4 parallel MPI-processes     *
           *              working on a common directory               *
           ************************************************************
-------------------------------------------------------------------------------
                                 ORCA SCF
-------------------------------------------------------------------------------

------------
SCF SETTINGS
------------
Hamiltonian:
 Density Functional     Method          .... DFT(GTOs)
 Exchange Functional    Exchange        .... revTPSS
 Correlation Functional Correlation     .... revTPSS
 LDA part of GGA corr.  LDAOpt          .... PW91-LDA
 Gradients option       PostSCFGGA      .... off
   Density functional embedding theory  .... OFF
 RI-approximation to the Coulomb term is turned on
   Number of AuxJ basis functions       .... 1905


General Settings:
 Integral files         IntName         .... inpS
 Hartree-Fock type      HFTyp           .... RHF
 Total Charge           Charge          ....    0
 Multiplicity           Mult            ....    1
 Number of Electrons    NEL             ....  220
 Basis Dimension        Dim             ....  713
 Nuclear Repulsion      ENuc            ....   2779.4386769802 Eh

Convergence Acceleration:
 DIIS                   CNVDIIS         .... on
   Start iteration      DIISMaxIt       ....    12
   Startup error        DIISStart       ....  0.200000
   # of expansion vecs  DIISMaxEq       ....     5
   Bias factor          DIISBfac        ....   1.050
   Max. coefficient     DIISMaxC        ....  10.000
 Trust-Rad. Augm. Hess. CNVTRAH         .... auto
   Auto Start mean grad. ratio tolernc. ....  1.125000
   Auto Start start iteration           ....    20
   Auto Start num. interpolation iter.  ....    10
   Max. Number of Micro iterations      ....    16
   Max. Number of Macro iterations      .... Maxiter - #DIIS iter
   Number of Davidson start vectors     ....     2
   Converg. threshold I  (grad. norm)   ....   1.000e-04
   Converg. threshold II (energy diff.) ....   1.000e-07
   Grad. Scal. Fac. for Micro threshold ....   0.100
   Minimum threshold for Micro iter.    ....   0.010
   NR start threshold (gradient norm)   ....   0.001
   Initial trust radius                 ....   0.400
   Minimum AH scaling param. (alpha)    ....   1.000
   Maximum AH scaling param. (alpha)    .... 1000.000
   Orbital update algorithm             .... Taylor
   White noise on init. David. guess    .... on
   Maximum white noise                  ....   0.010
   Quad. conv. algorithm                .... NR
 SOSCF                  CNVSOSCF        .... off
 Level Shifting         CNVShift        .... on
   Level shift para.    LevelShift      ....    0.2500
   Turn off err/grad.   ShiftErr        ....    0.0010
 Zerner damping         CNVZerner       .... off
 Static damping         CNVDamp         .... on
   Fraction old density DampFac         ....    0.7000
   Max. Damping (<1)    DampMax         ....    0.9800
   Min. Damping (>=0)   DampMin         ....    0.0000
   Turn off err/grad.   DampErr         ....    0.1000
 Fernandez-Rico         CNVRico         .... off

SCF Procedure:
 Maximum # iterations   MaxIter         ....   125
 SCF integral mode      SCFMode         .... Direct
   Integral package                     .... SHARK and LIBINT hybrid scheme
 Reset frequency        DirectResetFreq ....    20
 Integral Threshold     Thresh          ....  3.000e-11 Eh
 Primitive CutOff       TCut            ....  1.000e-12 Eh

Convergence Tolerance:
 Convergence Check Mode ConvCheckMode   .... Total+1el-Energy
 Convergence forced     ConvForced      .... 0
 Energy Change          TolE            ....  1.000e-07 Eh
 1-El. energy change                    ....  1.000e-04 Eh
 DIIS Error             TolErr          ....  1.000e-07


Diagonalization of the overlap matrix:
Smallest eigenvalue                        ... 4.956e-04
Time for diagonalization                   ...    0.081 sec
Threshold for overlap eigenvalues          ... 1.000e-08
Number of eigenvalues below threshold      ... 0
Time for construction of square roots      ...    0.050 sec
Total time needed                          ...    0.133 sec

Time for model grid setup =    0.769 sec

------------------------------
INITIAL GUESS: MODEL POTENTIAL
------------------------------
Loading Hartree-Fock densities                     ... done
Calculating cut-offs                               ... done
Initializing the effective Hamiltonian             ... done
Setting up the integral package (SHARK)            ... done
Starting the Coulomb interaction                   ... done (   0.7 sec)
Reading the grid                                   ... done
Mapping shells                                     ... done
Starting the XC term evaluation                    ... done (   0.3 sec)
  promolecular density results
     # of electrons  =    219.983520595
     EX              =   -164.431528510
     EC              =     -7.325679067
     EX+EC           =   -171.757207577
Transforming the Hamiltonian                       ... done (   0.0 sec)
Diagonalizing the Hamiltonian                      ... done (   0.1 sec)
Back transforming the eigenvectors                 ... done (   0.0 sec)
Now organizing SCF variables                       ... done
                      ------------------
                      INITIAL GUESS DONE (   1.9 sec)
                      ------------------
-------------------
DFT GRID GENERATION
-------------------

General Integration Accuracy     IntAcc      ... 4.388
Radial Grid Type                 RadialGrid  ... OptM3 with GC (2021)
Angular Grid (max. ang.)         AngularGrid ... 4 (Lebedev-302)
Angular grid pruning method      GridPruning ... 4 (adaptive)
Weight generation scheme         WeightScheme... Becke
Basis function cutoff            BFCut       ... 1.0000e-11
Integration weight cutoff        WCut        ... 1.0000e-14
Angular grids for H and He will be reduced by one unit
Partially contracted basis set               ... off
Rotationally invariant grid construction     ... off

Total number of grid points                  ...   309905
Total number of batches                      ...     4878
Average number of points per batch           ...       63
Average number of grid points per atom       ...     4245
Time for grid setup =    3.056 sec


--------------------
CPCM SOLVATION MODEL
--------------------
CPCM parameters:
  Epsilon                                         ...       4.9000
  Refrac                                          ...       1.4500
  Rsolv                                           ...       1.3000
  Surface type                                    ... GAUSSIAN VDW
  Epsilon function type                           ...         CPCM
Radii:
 Radius for C  used is    3.8550 Bohr (=   2.0400 Ang.)
 Radius for H  used is    2.4944 Bohr (=   1.3200 Ang.)
 Radius for O  used is    3.4469 Bohr (=   1.8240 Ang.)
Calculating surface                               ...        done! (  0.0s)
GEPOL surface points                              ...         3645
GEPOL Volume                                      ...    3609.9821
GEPOL Surface-area                                ...    1791.8086
Calculating surface distance matrix               ...        done! (  0.1s)
Performing Cholesky decomposition & store         ...        done! (  0.5s)
Overall time for CPCM initialization              ...                 0.6s
--------------
SCF ITERATIONS
--------------
ITER       Energy         Delta-E        Max-DP      RMS-DP      [F,P]     Damp
               ***  Starting incremental Fock matrix formation  ***

  HOMO= 109 E= -1.881 eV LUMO=  7.824 eV gap=   9.705 eV
  0  -1167.5249474564   0.000000000000 0.05246235  0.00083122  0.2613627 0.7000

  HOMO= 109 E= -3.350 eV LUMO=  6.714 eV gap=  10.064 eV
  1  -1167.8972268778  -0.372279421388 0.02893249  0.00061432  0.1017338 0.7000
                               ***Turning on DIIS***

  HOMO= 109 E= -4.322 eV LUMO=  5.825 eV gap=  10.147 eV
  2  -1168.0436405838  -0.146413706006 0.05200694  0.00101367  0.0299976 0.0000

  HOMO= 109 E= -4.950 eV LUMO=  5.233 eV gap=  10.183 eV
  3  -1168.2401478842  -0.196507300363 0.02318295  0.00047374  0.0529442 0.0000

  HOMO= 109 E= -4.988 eV LUMO=  5.196 eV gap=  10.184 eV
  4  -1168.3073227652  -0.067174881030 0.00759175  0.00015319  0.0102034 0.0000

  HOMO= 109 E= -4.940 eV LUMO=  5.251 eV gap=  10.191 eV
  5  -1168.3104282037  -0.003105438536 0.00310748  0.00005707  0.0093527 0.0000

  HOMO= 109 E= -4.920 eV LUMO=  5.268 eV gap=  10.188 eV
  6  -1168.3107073110  -0.000279107241 0.00120454  0.00001942  0.0027055 0.0000

  HOMO= 109 E= -4.921 eV LUMO= -1.536 eV gap=   3.385 eV
  7  -1168.3107267403  -0.000019429323 0.00071693  0.00001184  0.0006003 0.0000

  HOMO= 109 E= -4.920 eV LUMO= -1.535 eV gap=   3.385 eV
  8  -1168.3107299124  -0.000003172085 0.00026125  0.00000285  0.0003917 0.0000

  HOMO= 109 E= -4.918 eV LUMO= -1.532 eV gap=   3.385 eV
  9  -1168.3107304917  -0.000000579330 0.00016484  0.00000159  0.0002673 0.0000

  HOMO= 109 E= -4.918 eV LUMO= -1.533 eV gap=   3.385 eV
 10  -1168.3107307714  -0.000000279732 0.00006629  0.00000071  0.0000984 0.0000

  HOMO= 109 E= -4.918 eV LUMO= -1.533 eV gap=   3.385 eV
 11  -1168.3107308101  -0.000000038685 0.00002808  0.00000029  0.0000361 0.0000

  HOMO= 109 E= -4.918 eV LUMO= -1.533 eV gap=   3.385 eV
 12  -1168.3107307815   0.000000028623 0.00001374  0.00000013  0.0000190 0.0000

  HOMO= 109 E= -4.918 eV LUMO= -1.533 eV gap=   3.385 eV
 13  -1168.3107308025  -0.000000021009 0.00000606  0.00000005  0.0000082 0.0000
                 **** Energy Check signals convergence ****

               *****************************************************
               *                     SUCCESS                       *
               *           SCF CONVERGED AFTER  14 CYCLES          *
               *****************************************************


----------------
TOTAL SCF ENERGY
----------------

Total Energy       :        -1168.31073081 Eh          -31791.35123 eV

Components:
Nuclear Repulsion  :         2779.43867698 Eh           75632.37148 eV
Electronic Energy  :        -3947.74940779 Eh         -107423.72270 eV
One Electron Energy:        -7105.25880947 Eh         -193343.92162 eV
Two Electron Energy:         3157.50940168 Eh           85920.19892 eV
CPCM Dielectric    :           -0.01028032 Eh              -0.27974 eV

Virial components:
Potential Energy   :        -2330.41595234 Eh          -63413.84196 eV
Kinetic Energy     :         1162.10522153 Eh           31622.49073 eV
Virial Ratio       :            2.00533989


DFT components:
N(Alpha)           :      110.000220165053 electrons
N(Beta)            :      110.000220165053 electrons
N(Total)           :      220.000440330107 electrons
E(X)               :     -169.582680449721 Eh       
E(C)               :       -7.442495909839 Eh       
E(XC)              :     -177.025176359561 Eh       
DFET-embed. en.    :        0.000000000000 Eh       
CPCM Solvation Model Properties:
Surface-charge          :           -0.04542097
Charge-correction       :           -0.00002295 Eh              -0.00062 eV
Free-energy (cav+disp)  :  This term is not implemented in the current solvation scheme

---------------
SCF CONVERGENCE
---------------

  Last Energy change         ...   -5.7751e-09  Tolerance :   1.0000e-07
  Last MAX-Density change    ...    2.3499e-06  Tolerance :   1.0000e-05
  Last RMS-Density change    ...    2.5179e-08  Tolerance :   1.0000e-06
  Last DIIS Error            ...    2.9147e-06  Tolerance :   1.0000e-07

             **** THE GBW FILE WAS UPDATED (inpS.gbw) ****
             **** DENSITY inpS.scfp WAS UPDATED ****
             **** ENERGY FILE WAS UPDATED (inpS.en.tmp) ****
             **** THE GBW FILE WAS UPDATED (inpS.gbw) ****
             **** DENSITY inpS.scfp WAS UPDATED ****
----------------
ORBITAL ENERGIES
----------------

  NO   OCC          E(Eh)            E(eV) 
   0   2.0000     -18.905513      -514.4452 
   1   2.0000     -10.057025      -273.6656 
   2   2.0000     -10.015886      -272.5461 
   3   2.0000     -10.013417      -272.4789 
   4   2.0000     -10.013396      -272.4783 
   5   2.0000     -10.011443      -272.4252 
   6   2.0000     -10.011350      -272.4227 
   7   2.0000     -10.010232      -272.3923 
   8   2.0000     -10.008982      -272.3582 
   9   2.0000     -10.008232      -272.3378 
  10   2.0000     -10.007765      -272.3251 
  11   2.0000     -10.007240      -272.3108 
  12   2.0000     -10.006807      -272.2991 
  13   2.0000     -10.006587      -272.2931 
  14   2.0000     -10.005313      -272.2584 
  15   2.0000     -10.004821      -272.2450 
  16   2.0000     -10.004032      -272.2236 
  17   2.0000     -10.001038      -272.1421 
  18   2.0000      -9.999974      -272.1131 
  19   2.0000      -9.998718      -272.0790 
  20   2.0000      -9.998400      -272.0703 
  21   2.0000      -9.998362      -272.0693 
  22   2.0000      -9.998319      -272.0681 
  23   2.0000      -9.997817      -272.0544 
  24   2.0000      -9.997678      -272.0507 
  25   2.0000      -9.996041      -272.0061 
  26   2.0000      -9.995633      -271.9950 
  27   2.0000      -9.994656      -271.9684 
  28   2.0000      -9.993060      -271.9250 
  29   2.0000      -0.955801       -26.0087 
  30   2.0000      -0.807022       -21.9602 
  31   2.0000      -0.790973       -21.5235 
  32   2.0000      -0.770373       -20.9629 
  33   2.0000      -0.756238       -20.5783 
  34   2.0000      -0.734100       -19.9759 
  35   2.0000      -0.727448       -19.7949 
  36   2.0000      -0.708449       -19.2779 
  37   2.0000      -0.707977       -19.2650 
  38   2.0000      -0.693789       -18.8790 
  39   2.0000      -0.675347       -18.3771 
  40   2.0000      -0.657763       -17.8986 
  41   2.0000      -0.655275       -17.8309 
  42   2.0000      -0.634778       -17.2732 
  43   2.0000      -0.626725       -17.0540 
  44   2.0000      -0.623325       -16.9615 
  45   2.0000      -0.616037       -16.7632 
  46   2.0000      -0.589780       -16.0487 
  47   2.0000      -0.584438       -15.9034 
  48   2.0000      -0.556999       -15.1567 
  49   2.0000      -0.548900       -14.9363 
  50   2.0000      -0.547459       -14.8971 
  51   2.0000      -0.537054       -14.6140 
  52   2.0000      -0.526232       -14.3195 
  53   2.0000      -0.508279       -13.8310 
  54   2.0000      -0.506257       -13.7759 
  55   2.0000      -0.476435       -12.9645 
  56   2.0000      -0.472843       -12.8667 
  57   2.0000      -0.463953       -12.6248 
  58   2.0000      -0.451142       -12.2762 
  59   2.0000      -0.444889       -12.1061 
  60   2.0000      -0.431681       -11.7466 
  61   2.0000      -0.424578       -11.5534 
  62   2.0000      -0.417563       -11.3625 
  63   2.0000      -0.415537       -11.3073 
  64   2.0000      -0.413483       -11.2515 
  65   2.0000      -0.406503       -11.0615 
  66   2.0000      -0.401526       -10.9261 
  67   2.0000      -0.396886       -10.7998 
  68   2.0000      -0.395575       -10.7641 
  69   2.0000      -0.388748       -10.5784 
  70   2.0000      -0.385487       -10.4896 
  71   2.0000      -0.381559       -10.3827 
  72   2.0000      -0.377695       -10.2776 
  73   2.0000      -0.375620       -10.2212 
  74   2.0000      -0.371698       -10.1144 
  75   2.0000      -0.365488        -9.9454 
  76   2.0000      -0.359134        -9.7725 
  77   2.0000      -0.356814        -9.7094 
  78   2.0000      -0.352977        -9.6050 
  79   2.0000      -0.346850        -9.4383 
  80   2.0000      -0.345053        -9.3894 
  81   2.0000      -0.344309        -9.3691 
  82   2.0000      -0.341928        -9.3043 
  83   2.0000      -0.338202        -9.2029 
  84   2.0000      -0.335963        -9.1420 
  85   2.0000      -0.330613        -8.9964 
  86   2.0000      -0.323546        -8.8041 
  87   2.0000      -0.320182        -8.7126 
  88   2.0000      -0.317919        -8.6510 
  89   2.0000      -0.313258        -8.5242 
  90   2.0000      -0.308579        -8.3969 
  91   2.0000      -0.306797        -8.3484 
  92   2.0000      -0.302738        -8.2379 
  93   2.0000      -0.294729        -8.0200 
  94   2.0000      -0.289474        -7.8770 
  95   2.0000      -0.287338        -7.8189 
  96   2.0000      -0.283822        -7.7232 
  97   2.0000      -0.282605        -7.6901 
  98   2.0000      -0.281883        -7.6704 
  99   2.0000      -0.278646        -7.5823 
 100   2.0000      -0.275869        -7.5068 
 101   2.0000      -0.272175        -7.4063 
 102   2.0000      -0.270960        -7.3732 
 103   2.0000      -0.266456        -7.2506 
 104   2.0000      -0.260409        -7.0861 
 105   2.0000      -0.248316        -6.7570 
 106   2.0000      -0.233396        -6.3510 
 107   2.0000      -0.227228        -6.1832 
 108   2.0000      -0.212430        -5.7805 
 109   2.0000      -0.180744        -4.9183 
 110   0.0000      -0.056338        -1.5330 
 111   0.0000      -0.012978        -0.3532 
 112   0.0000      -0.005734        -0.1560 
 113   0.0000       0.032112         0.8738 
 114   0.0000       0.040929         1.1137 
 115   0.0000       0.042751         1.1633 
 116   0.0000       0.048081         1.3083 
 117   0.0000       0.048770         1.3271 
 118   0.0000       0.053358         1.4520 
 119   0.0000       0.056688         1.5425 
 120   0.0000       0.058670         1.5965 
 121   0.0000       0.066745         1.8162 
 122   0.0000       0.071054         1.9335 
 123   0.0000       0.073875         2.0103 
 124   0.0000       0.074944         2.0393 
 125   0.0000       0.078201         2.1280 
 126   0.0000       0.084323         2.2946 
 127   0.0000       0.086882         2.3642 
 128   0.0000       0.089166         2.4263 
 129   0.0000       0.092977         2.5300 
 130   0.0000       0.100655         2.7390 
 131   0.0000       0.102411         2.7867 
 132   0.0000       0.105018         2.8577 
 133   0.0000       0.105231         2.8635 
 134   0.0000       0.110252         3.0001 
 135   0.0000       0.111927         3.0457 
 136   0.0000       0.116026         3.1572 
 137   0.0000       0.119758         3.2588 
 138   0.0000       0.122135         3.3235 
 139   0.0000       0.125356         3.4111 
 140   0.0000       0.126214         3.4345 
 141   0.0000       0.127173         3.4605 
 142   0.0000       0.130421         3.5489 
 143   0.0000       0.131799         3.5864 
 144   0.0000       0.135283         3.6812 
 145   0.0000       0.137024         3.7286 
 146   0.0000       0.140465         3.8222 
 147   0.0000       0.142278         3.8716 
 148   0.0000       0.145574         3.9613 
 149   0.0000       0.148287         4.0351 
 150   0.0000       0.150191         4.0869 
 151   0.0000       0.156973         4.2715 
 152   0.0000       0.159927         4.3518 
 153   0.0000       0.160463         4.3664 
 154   0.0000       0.166682         4.5357 
 155   0.0000       0.170221         4.6319 
 156   0.0000       0.175081         4.7642 
 157   0.0000       0.177080         4.8186 
 158   0.0000       0.181630         4.9424 
 159   0.0000       0.186663         5.0794 
 160   0.0000       0.192288         5.2324 
 161   0.0000       0.195390         5.3168 
 162   0.0000       0.197431         5.3724 
 163   0.0000       0.199258         5.4221 
 164   0.0000       0.200747         5.4626 
 165   0.0000       0.202921         5.5218 
 166   0.0000       0.205858         5.6017 
 167   0.0000       0.210856         5.7377 
 168   0.0000       0.215490         5.8638 
 169   0.0000       0.221989         6.0406 
 170   0.0000       0.222586         6.0569 
 171   0.0000       0.226407         6.1608 
 172   0.0000       0.228874         6.2280 
 173   0.0000       0.231142         6.2897 
 174   0.0000       0.235074         6.3967 
 175   0.0000       0.243632         6.6296 
 176   0.0000       0.251187         6.8351 
 177   0.0000       0.256914         6.9910 
 178   0.0000       0.263131         7.1601 
 179   0.0000       0.266105         7.2411 
 180   0.0000       0.272180         7.4064 
 181   0.0000       0.287185         7.8147 
 182   0.0000       0.289947         7.8899 
 183   0.0000       0.295902         8.0519 
 184   0.0000       0.296777         8.0757 
 185   0.0000       0.332421         9.0456 
 186   0.0000       0.338753         9.2179 
 187   0.0000       0.342938         9.3318 
 188   0.0000       0.349732         9.5167 
 189   0.0000       0.352953         9.6043 
 190   0.0000       0.354966         9.6591 
 191   0.0000       0.358360         9.7515 
 192   0.0000       0.362280         9.8581 
 193   0.0000       0.368567        10.0292 
 194   0.0000       0.371771        10.1164 
 195   0.0000       0.375881        10.2283 
 196   0.0000       0.378782        10.3072 
 197   0.0000       0.387502        10.5445 
 198   0.0000       0.393017        10.6945 
 199   0.0000       0.401148        10.9158 
 200   0.0000       0.402510        10.9528 
 201   0.0000       0.407693        11.0939 
 202   0.0000       0.412261        11.2182 
 203   0.0000       0.420650        11.4465 
 204   0.0000       0.430214        11.7067 
 205   0.0000       0.433039        11.7836 
 206   0.0000       0.436004        11.8643 
 207   0.0000       0.442516        12.0415 
 208   0.0000       0.447270        12.1708 
 209   0.0000       0.454684        12.3726 
 210   0.0000       0.460801        12.5390 
 211   0.0000       0.468937        12.7604 
 212   0.0000       0.472615        12.8605 
 213   0.0000       0.474670        12.9164 
 214   0.0000       0.481237        13.0951 
 215   0.0000       0.483373        13.1533 
 216   0.0000       0.489661        13.3244 
 217   0.0000       0.492981        13.4147 
 218   0.0000       0.493541        13.4299 
 219   0.0000       0.502857        13.6834 
 220   0.0000       0.507637        13.8135 
 221   0.0000       0.512152        13.9364 
 222   0.0000       0.520501        14.1635 
 223   0.0000       0.523990        14.2585 
 224   0.0000       0.530892        14.4463 
 225   0.0000       0.534692        14.5497 
 226   0.0000       0.539562        14.6822 
 227   0.0000       0.542902        14.7731 
 228   0.0000       0.546848        14.8805 
 229   0.0000       0.549274        14.9465 
 230   0.0000       0.550512        14.9802 
 231   0.0000       0.554521        15.0893 
 232   0.0000       0.556502        15.1432 
 233   0.0000       0.562818        15.3151 
 234   0.0000       0.567446        15.4410 
 235   0.0000       0.570344        15.5199 
 236   0.0000       0.573403        15.6031 
 237   0.0000       0.576725        15.6935 
 238   0.0000       0.578539        15.7429 
 239   0.0000       0.583122        15.8675 
 240   0.0000       0.584585        15.9074 
 241   0.0000       0.586382        15.9563 
 242   0.0000       0.588118        16.0035 
 243   0.0000       0.592459        16.1216 
 244   0.0000       0.592693        16.1280 
 245   0.0000       0.595501        16.2044 
 246   0.0000       0.596321        16.2267 
 247   0.0000       0.599057        16.3012 
 248   0.0000       0.602591        16.3973 
 249   0.0000       0.605007        16.4631 
 250   0.0000       0.606810        16.5121 
 251   0.0000       0.610282        16.6066 
 252   0.0000       0.611727        16.6459 
 253   0.0000       0.615777        16.7561 
 254   0.0000       0.617470        16.8022 
 255   0.0000       0.620218        16.8770 
 256   0.0000       0.623700        16.9717 
 257   0.0000       0.624940        17.0055 
 258   0.0000       0.627793        17.0831 
 259   0.0000       0.630209        17.1488 
 260   0.0000       0.633681        17.2433 
 261   0.0000       0.635005        17.2794 
 262   0.0000       0.637980        17.3603 
 263   0.0000       0.640844        17.4382 
 264   0.0000       0.642895        17.4941 
 265   0.0000       0.646994        17.6056 
 266   0.0000       0.648854        17.6562 
 267   0.0000       0.652044        17.7430 
 268   0.0000       0.654193        17.8015 
 269   0.0000       0.658717        17.9246 
 270   0.0000       0.661130        17.9903 
 271   0.0000       0.662703        18.0331 
 272   0.0000       0.665063        18.0973 
 273   0.0000       0.671266        18.2661 
 274   0.0000       0.674153        18.3446 
 275   0.0000       0.676145        18.3988 
 276   0.0000       0.680651        18.5214 
 277   0.0000       0.684032        18.6134 
 278   0.0000       0.688933        18.7468 
 279   0.0000       0.692964        18.8565 
 280   0.0000       0.693931        18.8828 
 281   0.0000       0.698255        19.0005 
 282   0.0000       0.702841        19.1253 
 283   0.0000       0.707423        19.2500 
 284   0.0000       0.709993        19.3199 
 285   0.0000       0.713281        19.4094 
 286   0.0000       0.720493        19.6056 
 287   0.0000       0.724157        19.7053 
 288   0.0000       0.731754        19.9120 
 289   0.0000       0.740100        20.1392 
 290   0.0000       0.743756        20.2386 
 291   0.0000       0.745963        20.2987 
 292   0.0000       0.748980        20.3808 
 293   0.0000       0.755079        20.5467 
 294   0.0000       0.759154        20.6576 
 295   0.0000       0.766279        20.8515 
 296   0.0000       0.772589        21.0232 
 297   0.0000       0.774458        21.0741 
 298   0.0000       0.781096        21.2547 
 299   0.0000       0.787983        21.4421 
 300   0.0000       0.802255        21.8305 
 301   0.0000       0.827240        22.5103 
 302   0.0000       0.836277        22.7563 
 303   0.0000       0.837615        22.7927 
 304   0.0000       0.843044        22.9404 
 305   0.0000       0.851819        23.1792 
 306   0.0000       0.858890        23.3716 
 307   0.0000       0.874039        23.7838 
 308   0.0000       0.888216        24.1696 
 309   0.0000       0.907659        24.6986 
 310   0.0000       0.917562        24.9681 
 311   0.0000       0.938890        25.5485 
 312   0.0000       0.940232        25.5850 
 313   0.0000       0.951892        25.9023 
 314   0.0000       0.971265        26.4295 
 315   0.0000       0.983414        26.7601 
 316   0.0000       0.996317        27.1112 
 317   0.0000       1.017335        27.6831 
 318   0.0000       1.031375        28.0651 
 319   0.0000       1.039020        28.2732 
 320   0.0000       1.047535        28.5049 
 321   0.0000       1.063985        28.9525 
 322   0.0000       1.074498        29.2386 
 323   0.0000       1.078815        29.3561 
 324   0.0000       1.125244        30.6194 
 325   0.0000       1.129614        30.7384 
 326   0.0000       1.140342        31.0303 
 327   0.0000       1.154139        31.4057 
 328   0.0000       1.165487        31.7145 
 329   0.0000       1.184251        32.2251 
 330   0.0000       1.192349        32.4455 
 331   0.0000       1.210972        32.9522 
 332   0.0000       1.236498        33.6468 
 333   0.0000       1.242043        33.7977 
 334   0.0000       1.261849        34.3366 
 335   0.0000       1.266615        34.4663 
 336   0.0000       1.272600        34.6292 
 337   0.0000       1.283644        34.9297 
 338   0.0000       1.288274        35.0557 
 339   0.0000       1.310176        35.6517 
 340   0.0000       1.330211        36.1969 
 341   0.0000       1.337862        36.4051 
 342   0.0000       1.340828        36.4858 
 343   0.0000       1.356869        36.9223 
 344   0.0000       1.364496        37.1298 
 345   0.0000       1.377868        37.4937 
 346   0.0000       1.381188        37.5840 
 347   0.0000       1.387065        37.7440 
 348   0.0000       1.410785        38.3894 
 349   0.0000       1.413496        38.4632 
 350   0.0000       1.427106        38.8335 
 351   0.0000       1.432391        38.9774 
 352   0.0000       1.448806        39.4240 
 353   0.0000       1.456293        39.6278 
 354   0.0000       1.459427        39.7130 
 355   0.0000       1.468110        39.9493 
 356   0.0000       1.479955        40.2716 
 357   0.0000       1.493974        40.6531 
 358   0.0000       1.505884        40.9772 
 359   0.0000       1.511693        41.1353 
 360   0.0000       1.518422        41.3184 
 361   0.0000       1.524198        41.4755 
 362   0.0000       1.532746        41.7081 
 363   0.0000       1.535899        41.7939 
 364   0.0000       1.547582        42.1118 
 365   0.0000       1.554066        42.2883 
 366   0.0000       1.568000        42.6675 
 367   0.0000       1.576754        42.9057 
 368   0.0000       1.595556        43.4173 
 369   0.0000       1.601058        43.5670 
 370   0.0000       1.608854        43.7792 
 371   0.0000       1.618481        44.0411 
 372   0.0000       1.628039        44.3012 
 373   0.0000       1.634295        44.4714 
 374   0.0000       1.643644        44.7258 
 375   0.0000       1.651181        44.9309 
 376   0.0000       1.657527        45.1036 
 377   0.0000       1.666704        45.3533 
 378   0.0000       1.679412        45.6991 
 379   0.0000       1.684309        45.8324 
 380   0.0000       1.689223        45.9661 
 381   0.0000       1.693982        46.0956 
 382   0.0000       1.700196        46.2647 
 383   0.0000       1.702825        46.3362 
 384   0.0000       1.709639        46.5217 
 385   0.0000       1.722252        46.8649 
 386   0.0000       1.725029        46.9404 
 387   0.0000       1.730042        47.0768 
 388   0.0000       1.731873        47.1267 
 389   0.0000       1.736979        47.2656 
 390   0.0000       1.742997        47.4294 
 391   0.0000       1.745556        47.4990 
 392   0.0000       1.754508        47.7426 
 393   0.0000       1.769211        48.1427 
 394   0.0000       1.770331        48.1731 
 395   0.0000       1.774818        48.2953 
 396   0.0000       1.781940        48.4891 
 397   0.0000       1.787141        48.6306 
 398   0.0000       1.788587        48.6699 
 399   0.0000       1.796111        48.8747 
 400   0.0000       1.797256        48.9058 
 401   0.0000       1.803223        49.0682 
 402   0.0000       1.804855        49.1126 
 403   0.0000       1.811458        49.2923 
 404   0.0000       1.816167        49.4204 
 405   0.0000       1.821256        49.5589 
 406   0.0000       1.833017        49.8789 
 407   0.0000       1.835548        49.9478 
 408   0.0000       1.843783        50.1719 
 409   0.0000       1.857570        50.5471 
 410   0.0000       1.859181        50.5909 
 411   0.0000       1.867412        50.8149 
 412   0.0000       1.874230        51.0004 
 413   0.0000       1.880878        51.1813 
 414   0.0000       1.883734        51.2590 
 415   0.0000       1.897342        51.6293 
 416   0.0000       1.898469        51.6600 
 417   0.0000       1.903799        51.8050 
 418   0.0000       1.910338        51.9829 
 419   0.0000       1.913822        52.0777 
 420   0.0000       1.915970        52.1362 
 421   0.0000       1.935467        52.6667 
 422   0.0000       1.938125        52.7391 
 423   0.0000       1.944493        52.9124 
 424   0.0000       1.948763        53.0285 
 425   0.0000       1.951953        53.1153 
 426   0.0000       1.958694        53.2988 
 427   0.0000       1.965805        53.4923 
 428   0.0000       1.971133        53.6373 
 429   0.0000       1.975753        53.7630 
 430   0.0000       1.982165        53.9375 
 431   0.0000       1.983463        53.9728 
 432   0.0000       1.989241        54.1300 
 433   0.0000       1.996657        54.3318 
 434   0.0000       1.997334        54.3502 
 435   0.0000       1.998550        54.3833 
 436   0.0000       2.009527        54.6820 
 437   0.0000       2.013021        54.7771 
 438   0.0000       2.016242        54.8647 
 439   0.0000       2.018271        54.9200 
 440   0.0000       2.025675        55.1214 
 441   0.0000       2.028626        55.2017 
 442   0.0000       2.032805        55.3154 
 443   0.0000       2.041687        55.5571 
[...]

 --------------
 Nucleus  47H :
 --------------

Diamagnetic contribution to the shielding tensor (ppm) : 
            31.047          2.482        -0.130
             0.158         50.647        -5.504
             1.779         -4.388        40.216

Paramagnetic contribution to the shielding tensor (ppm): 
            -2.562         -2.116         0.851
             0.271        -17.948         2.037
            -1.602          0.939        -7.611

Total shielding tensor (ppm): 
            28.485          0.366         0.721
             0.430         32.699        -3.466
             0.177         -3.450        32.605


 Diagonalized sT*s matrix:
 
 sDSO            32.023           39.446           50.441  iso=      40.637
 sPSO            -3.879           -9.911          -14.331  iso=      -9.374
        ---------------  ---------------  ---------------
 Total           28.143           29.535           36.110  iso=      31.263

 --------------
 Nucleus  48H :
 --------------

Diamagnetic contribution to the shielding tensor (ppm) : 
            35.491         -0.944        -0.749
            -5.006         42.435        -7.460
             1.854         -2.876        40.652

Paramagnetic contribution to the shielding tensor (ppm): 
            -4.259          1.914         1.095
             5.375        -15.013         4.726
            -1.888          0.909        -9.770

Total shielding tensor (ppm): 
            31.232          0.970         0.346
             0.369         27.422        -2.734
            -0.035         -1.967        30.882


 Diagonalized sT*s matrix:
 
 sDSO            38.598           35.791           44.189  iso=      39.526
 sPSO           -12.452           -4.505          -12.085  iso=      -9.681
        ---------------  ---------------  ---------------
 Total           26.146           31.286           32.104  iso=      29.845

 --------------
 Nucleus  52H :
 --------------

Diamagnetic contribution to the shielding tensor (ppm) : 
            41.342          1.070        -6.311
             1.555         30.485        -7.002
            -3.484         -3.017        41.320

Paramagnetic contribution to the shielding tensor (ppm): 
           -14.365          0.978         8.462
             0.880         -5.191         9.093
             4.894          4.649       -15.026

Total shielding tensor (ppm): 
            26.976          2.048         2.151
             2.436         25.294         2.091
             1.410          1.632        26.294


 Diagonalized sT*s matrix:
 
 sDSO            33.983           46.141           33.023  iso=      37.716
 sPSO           -10.425          -21.318           -2.839  iso=     -11.527
        ---------------  ---------------  ---------------
 Total           23.558           24.823           30.184  iso=      26.188

 --------------
 Nucleus  53H :
 --------------

Diamagnetic contribution to the shielding tensor (ppm) : 
            45.388          2.986        -4.791
             0.353         45.156        -5.803
            -4.415         -1.520        41.334

Paramagnetic contribution to the shielding tensor (ppm): 
           -15.694         -0.698        11.062
             2.026        -19.819         8.778
             8.933          2.910       -16.645

Total shielding tensor (ppm): 
            29.694          2.288         6.271
             2.379         25.338         2.975
             4.517          1.390        24.689


 Diagonalized sT*s matrix:
 
 sDSO            47.854           44.112           39.912  iso=      43.959
 sPSO           -26.705          -19.784           -5.669  iso=     -17.386
        ---------------  ---------------  ---------------
 Total           21.149           24.328           34.242  iso=      26.573

 --------------
 Nucleus  57H :
 --------------

Diamagnetic contribution to the shielding tensor (ppm) : 
            40.515          1.804        -4.376
            -3.779         25.237        -7.576
            -3.315         -4.550        45.789

Paramagnetic contribution to the shielding tensor (ppm): 
            -9.720         -1.485         2.777
             4.363          3.396         7.813
             2.763          5.192       -13.917

Total shielding tensor (ppm): 
            30.795          0.320        -1.600
             0.583         28.633         0.237
            -0.552          0.642        31.872


 Diagonalized sT*s matrix:
 
 sDSO            29.611           34.554           47.375  iso=      37.180
 sPSO            -1.203           -4.205          -14.834  iso=      -6.747
        ---------------  ---------------  ---------------
 Total           28.409           30.350           32.541  iso=      30.433

 --------------
 Nucleus  58H :
 --------------

Diamagnetic contribution to the shielding tensor (ppm) : 
            34.922         -0.321        -7.986
            12.873         30.947         8.935
            -6.693          3.614        42.688

Paramagnetic contribution to the shielding tensor (ppm): 
            -3.110          1.668         5.656
           -11.406         -2.594        -8.542
             4.562         -3.891       -10.679

Total shielding tensor (ppm): 
            31.812          1.346        -2.330
             1.466         28.353         0.393
            -2.131         -0.278        32.009


 Diagonalized sT*s matrix:
 
 sDSO            23.771           39.118           45.667  iso=      36.186
 sPSO             3.894           -8.905          -11.372  iso=      -5.461
        ---------------  ---------------  ---------------
 Total           27.666           30.214           34.295  iso=      30.725

 --------------
 Nucleus  61H :
 --------------

Diamagnetic contribution to the shielding tensor (ppm) : 
            32.723         -4.751         3.737
           -20.358         27.257       -13.431
            -1.149          0.459        26.700

Paramagnetic contribution to the shielding tensor (ppm): 
            -3.320          1.801        -2.174
            17.246          8.199        15.251
             2.593          0.911         1.333

Total shielding tensor (ppm): 
            29.403         -2.950         1.564
            -3.112         35.455         1.819
             1.444          1.370        28.034


 Diagonalized sT*s matrix:
 
 sDSO            25.921           25.875           34.885  iso=      28.893
 sPSO             0.129            4.158            1.924  iso=       2.070
        ---------------  ---------------  ---------------
 Total           26.050           30.033           36.809  iso=      30.964

 --------------
 Nucleus  62H :
 --------------

Diamagnetic contribution to the shielding tensor (ppm) : 
            32.538          2.000        -2.812
           -10.299         15.831       -12.558
            -2.180         -8.549        43.457

Paramagnetic contribution to the shielding tensor (ppm): 
            -3.519         -1.673         2.709
            10.724         13.897         8.804
             1.330          5.649        -9.103

Total shielding tensor (ppm): 
            29.019          0.327        -0.103
             0.426         29.728        -3.754
            -0.850         -2.900        34.354


 Diagonalized sT*s matrix:
 
 sDSO            14.262           31.364           46.199  iso=      30.609
 sPSO            13.715           -2.382          -10.057  iso=       0.425
        ---------------  ---------------  ---------------
 Total           27.977           28.982           36.143  iso=      31.034

 --------------
 Nucleus  63H :
 --------------

Diamagnetic contribution to the shielding tensor (ppm) : 
            46.446          3.743         6.759
            -9.464          2.149        -8.067
            -0.817         -1.208        31.423

Paramagnetic contribution to the shielding tensor (ppm): 
           -11.343         -3.744        -2.654
             8.565         27.210         7.433
             5.357          1.617        -4.903

Total shielding tensor (ppm): 
            35.102         -0.002         4.105
            -0.898         29.360        -0.634
             4.540          0.409        26.520


 Diagonalized sT*s matrix:
 
 sDSO            31.569            1.758           46.691  iso=      26.673
 sPSO            -6.849           27.575           -9.762  iso=       3.655
        ---------------  ---------------  ---------------
 Total           24.719           29.333           36.929  iso=      30.327

 --------------
 Nucleus  64H :
 --------------

Diamagnetic contribution to the shielding tensor (ppm) : 
            22.657         -5.216        -5.006
            16.012         48.930        13.645
            -3.832         -0.062        32.824

Paramagnetic contribution to the shielding tensor (ppm): 
             6.237          2.158         5.547
           -18.538        -12.496       -11.144
             4.406          1.444        -5.367

Total shielding tensor (ppm): 
            28.894         -3.058         0.541
            -2.525         36.435         2.500
             0.574          1.382        27.457


 Diagonalized sT*s matrix:
 
 sDSO            33.640           24.759           46.012  iso=      34.804
 sPSO            -7.253            4.008           -8.380  iso=      -3.875
        ---------------  ---------------  ---------------
 Total           26.387           28.767           37.632  iso=      30.929

 --------------
 Nucleus  65H :
 --------------

Diamagnetic contribution to the shielding tensor (ppm) : 
            36.064         -1.096         4.943
            18.404         51.451         7.275
             7.315         -4.714        29.985

Paramagnetic contribution to the shielding tensor (ppm): 
            -1.645          3.586        -0.246
           -16.638        -20.551        -6.843
            -2.184          5.788        -4.191

Total shielding tensor (ppm): 
            34.419          2.490         4.697
             1.766         30.900         0.432
             5.131          1.075        25.794


 Diagonalized sT*s matrix:
 
 sDSO            26.284           45.009           46.206  iso=      39.167
 sPSO            -2.721          -14.880           -8.787  iso=      -8.796
        ---------------  ---------------  ---------------
 Total           23.563           30.129           37.420  iso=      30.371

 --------------
 Nucleus  66H :
 --------------

Diamagnetic contribution to the shielding tensor (ppm) : 
            28.237         -0.130        -6.583
            18.013         39.666         3.185
            -8.218         -8.021        38.300

Paramagnetic contribution to the shielding tensor (ppm): 
             1.169          1.288         5.282
           -16.058         -8.566        -6.461
             6.501          4.896        -4.861

Total shielding tensor (ppm): 
            29.405          1.157        -1.301
             1.955         31.100        -3.276
            -1.718         -3.125        33.439


 Diagonalized sT*s matrix:
 
 sDSO            26.627           33.232           46.344  iso=      35.401
 sPSO             1.783           -4.030          -10.012  iso=      -4.086
        ---------------  ---------------  ---------------
 Total           28.410           29.202           36.333  iso=      31.315

 --------------
 Nucleus  67H :
 --------------

Diamagnetic contribution to the shielding tensor (ppm) : 
            37.221         11.101        -3.819
            14.093          8.933         4.200
            -8.247         -2.584        26.975

Paramagnetic contribution to the shielding tensor (ppm): 
            -1.885         -8.036         1.221
           -10.928         20.316        -4.690
             6.113          2.466         2.213

Total shielding tensor (ppm): 
            35.337          3.065        -2.598
             3.165         29.249        -0.490
            -2.134         -0.118        29.188


 Diagonalized sT*s matrix:
 
 sDSO             7.735           21.711           43.683  iso=      24.376
 sPSO            19.817            7.208           -6.380  iso=       6.882
        ---------------  ---------------  ---------------
 Total           27.552           28.919           37.303  iso=      31.258

 --------------
 Nucleus  68H :
 --------------

Diamagnetic contribution to the shielding tensor (ppm) : 
            30.930          5.422         5.703
             4.693          3.127        -1.002
             9.953         -0.664        39.188

Paramagnetic contribution to the shielding tensor (ppm): 
            -0.920         -5.998         0.323
            -4.084         26.467         0.513
            -4.441         -0.423        -7.536

Total shielding tensor (ppm): 
            30.010         -0.576         6.026
             0.609         29.594        -0.489
             5.512         -1.088        31.652


 Diagonalized sT*s matrix:
 
 sDSO            25.386            5.243           42.616  iso=      24.415
 sPSO            -0.443           24.365           -5.911  iso=       6.004
        ---------------  ---------------  ---------------
 Total           24.944           29.607           36.705  iso=      30.419

 --------------
 Nucleus  69H :
 --------------

Diamagnetic contribution to the shielding tensor (ppm) : 
            19.516          5.742        -0.983
            21.358         24.454        17.052
             8.405          9.221        25.304

Paramagnetic contribution to the shielding tensor (ppm): 
             9.077         -3.979         2.956
           -20.375         10.346       -12.415
            -6.609         -4.444         3.786

Total shielding tensor (ppm): 
            28.593          1.762         1.973
             0.983         34.801         4.637
             1.796          4.777        29.090


 Diagonalized sT*s matrix:
 
 sDSO            17.562           10.600           41.113  iso=      23.091
 sPSO             8.449           17.937           -3.177  iso=       7.736
        ---------------  ---------------  ---------------
 Total           26.011           28.536           37.935  iso=      30.828

 --------------
 Nucleus  70H :
 --------------

Diamagnetic contribution to the shielding tensor (ppm) : 
            36.170         -7.586        -7.978
           -15.570         29.221        -2.426
            -9.320          3.867        29.824

Paramagnetic contribution to the shielding tensor (ppm): 
            -2.284          5.992         3.357
            13.469         -0.222         5.850
             4.897         -1.341        -0.443

Total shielding tensor (ppm): 
            33.886         -1.594        -4.622
            -2.101         28.999         3.423
            -4.424          2.526        29.381


 Diagonalized sT*s matrix:
 
 sDSO            29.253           18.949           47.013  iso=      31.738
 sPSO            -3.642            9.878           -9.185  iso=      -0.983
        ---------------  ---------------  ---------------
 Total           25.612           28.826           37.827  iso=      30.755

 --------------
 Nucleus  71H :
 --------------

Diamagnetic contribution to the shielding tensor (ppm) : 
            32.496          1.843         4.408
            -7.983         42.042         6.192
             0.954          7.397        34.294

Paramagnetic contribution to the shielding tensor (ppm): 
            -0.353         -1.345        -4.306
             9.714        -11.709        -0.648
             0.006         -2.557        -5.896

Total shielding tensor (ppm): 
            32.143          0.498         0.102
             1.731         30.333         5.544
             0.960          4.840        28.397


 Diagonalized sT*s matrix:
 
 sDSO            31.132           34.513           43.187  iso=      36.277
 sPSO            -7.058           -2.839           -8.061  iso=      -5.986
        ---------------  ---------------  ---------------
 Total           24.073           31.674           35.127  iso=      30.291

 --------------
 Nucleus  72H :
 --------------

Diamagnetic contribution to the shielding tensor (ppm) : 
            29.297         -6.896         1.190
           -15.261         42.354        -8.827
            -0.297         -7.216        33.184

Paramagnetic contribution to the shielding tensor (ppm): 
             1.591          4.377        -0.321
            13.194         -8.881         6.251
             0.404          5.070        -3.847

Total shielding tensor (ppm): 
            30.888         -2.519         0.869
            -2.067         33.474        -2.576
             0.107         -2.146        29.337


 Diagonalized sT*s matrix:
 
 sDSO            26.121           27.162           51.553  iso=      34.945
 sPSO             2.015            2.749          -15.900  iso=      -3.712
        ---------------  ---------------  ---------------
 Total           28.136           29.910           35.653  iso=      31.233



--------------------------------
CHEMICAL SHIELDING SUMMARY (ppm)
--------------------------------


  Nucleus  Element    Isotropic     Anisotropy
  -------  -------  ------------   ------------
      3       H           29.637          5.413 
      4       H           29.128          5.302 
      8       H           29.569          6.412 
      9       H           29.431          7.744 
     10       H           29.630          8.813 
     11       H           30.532          6.210 
     13       H           28.184          2.724 
     16       H           26.854          5.082 
     17       H           26.517          5.001 
     19       H           25.446         10.749 
     21       H           25.701         15.091 
     24       H           28.885          9.991 
     25       H           29.970          9.381 
     27       H           30.224          7.295 
     28       H           30.154         11.828 
     30       H           29.730          8.030 
     31       H           30.403          6.821 
     33       H           29.772          3.925 
     35       H           31.124         14.837 
     37       H           30.345         10.597 
     38       H           30.298          9.278 
     40       H           29.610         11.039 
     41       H           30.664          7.908 
     42       H           30.204          6.618 
     45       H           31.042          8.243 
     46       H           31.287          9.555 
     47       H           31.263          7.271 
     48       H           29.845          3.388 
     52       H           26.188          5.993 
     53       H           26.573         11.504 
     57       H           30.433          3.162 
     58       H           30.725          5.356 
     61       H           30.964          8.767 
     62       H           31.034          7.663 
     63       H           30.327          9.903 
     64       H           30.929         10.055 
     65       H           30.371         10.574 
     66       H           31.315          7.527 
     67       H           31.258          9.067 
     68       H           30.419          9.430 
     69       H           30.828         10.662 
     70       H           30.755         10.608 
     71       H           30.291          7.253 
     72       H           31.233          6.629 



Maximum memory used throughout the entire EPRNMR-calculation: 140.8 MB

Timings for individual modules:

Sum of individual times         ...      145.557 sec (=   2.426 min)
GTO integral calculation        ...        1.006 sec (=   0.017 min)   0.7 %
SCF iterations                  ...       91.234 sec (=   1.521 min)  62.7 %
EPR/NMR calculation             ...       53.316 sec (=   0.889 min)  36.6 %
                             ****ORCA TERMINATED NORMALLY****
TOTAL RUN TIME: 0 days 0 hours 2 minutes 26 seconds 112 msec
